%VERSION  VERSION_STAMP = V0001.000  DATE = 02/23/26  18:16:04                  
%FLAG TITLE                                                                     
%FORMAT(20a4)                                                                   
default_name                                                                    
%FLAG POINTERS                                                                  
%FORMAT(10I8)                                                                   
   18432       5    9216   10368   21024   14112   36288   22176       0       0
  102816     288   10368   14112   22176      13      23      16       8       0
       0       0       0       0       0       0       0       0      64       0
       0
%FLAG ATOM_NAME                                                                 
%FORMAT(20a4)                                                                   
S1  C2  C3  C4  C5  C6  C7  C8  C9  S10 C11 H12 C13 C14 H15 C16 C17 C18 H19 C20 
H21 H22 H23 C24 C25 C26 C27 H28 C29 H30 C31 H32 H33 C34 H35 H36 C37 H38 H39 H40 
C41 H42 H43 C44 H45 H46 C47 H48 H49 C50 H51 H52 H53 H54 C55 C56 H57 H58 H59 C60 
H61 H62 H63 H64 S1  C2  C3  C4  C5  C6  C7  C8  C9  S10 C11 H12 C13 C14 H15 C16 
C17 C18 H19 C20 H21 H22 H23 C24 C25 C26 C27 H28 C29 H30 C31 H32 H33 C34 H35 H36 
C37 H38 H39 H40 C41 H42 H43 C44 H45 H46 C47 H48 H49 C50 H51 H52 H53 H54 C55 C56 
H57 H58 H59 C60 H61 H62 H63 H64 S1  C2  C3  C4  C5  C6  C7  C8  C9  S10 C11 H12 
C13 C14 H15 C16 C17 C18 H19 C20 H21 H22 H23 C24 C25 C26 C27 H28 C29 H30 C31 H32 
H33 C34 H35 H36 C37 H38 H39 H40 C41 H42 H43 C44 H45 H46 C47 H48 H49 C50 H51 H52 
H53 H54 C55 C56 H57 H58 H59 C60 H61 H62 H63 H64 S1  C2  C3  C4  C5  C6  C7  C8  
C9  S10 C11 H12 C13 C14 H15 C16 C17 C18 H19 C20 H21 H22 H23 C24 C25 C26 C27 H28 
C29 H30 C31 H32 H33 C34 H35 H36 C37 H38 H39 H40 C41 H42 H43 C44 H45 H46 C47 H48 
H49 C50 H51 H52 H53 H54 C55 C56 H57 H58 H59 C60 H61 H62 H63 H64 S1  C2  C3  C4  
C5  C6  C7  C8  C9  S10 C11 H12 C13 C14 H15 C16 C17 C18 H19 C20 H21 H22 H23 C24 
C25 C26 C27 H28 C29 H30 C31 H32 H33 C34 H35 H36 C37 H38 H39 H40 C41 H42 H43 C44 
H45 H46 C47 H48 H49 C50 H51 H52 H53 H54 C55 C56 H57 H58 H59 C60 H61 H62 H63 H64 
S1  C2  C3  C4  C5  C6  C7  C8  C9  S10 C11 H12 C13 C14 H15 C16 C17 C18 H19 C20 
H21 H22 H23 C24 C25 C26 C27 H28 C29 H30 C31 H32 H33 C34 H35 H36 C37 H38 H39 H40 
C41 H42 H43 C44 H45 H46 C47 H48 H49 C50 H51 H52 H53 H54 C55 C56 H57 H58 H59 C60 
H61 H62 H63 H64 S1  C2  C3  C4  C5  C6  C7  C8  C9  S10 C11 H12 C13 C14 H15 C16 
C17 C18 H19 C20 H21 H22 H23 C24 C25 C26 C27 H28 C29 H30 C31 H32 H33 C34 H35 H36 
C37 H38 H39 H40 C41 H42 H43 C44 H45 H46 C47 H48 H49 C50 H51 H52 H53 H54 C55 C56 
H57 H58 H59 C60 H61 H62 H63 H64 S1  C2  C3  C4  C5  C6  C7  C8  C9  S10 C11 H12 
C13 C14 H15 C16 C17 C18 H19 C20 H21 H22 H23 C24 C25 C26 C27 H28 C29 H30 C31 H32 
H33 C34 H35 H36 C37 H38 H39 H40 C41 H42 H43 C44 H45 H46 C47 H48 H49 C50 H51 H52 
H53 H54 C55 C56 H57 H58 H59 C60 H61 H62 H63 H64 S1  C2  C3  C4  C5  C6  C7  C8  
C9  S10 C11 H12 C13 C14 H15 C16 C17 C18 H19 C20 H21 H22 H23 C24 C25 C26 C27 H28 
C29 H30 C31 H32 H33 C34 H35 H36 C37 H38 H39 H40 C41 H42 H43 C44 H45 H46 C47 H48 
H49 C50 H51 H52 H53 H54 C55 C56 H57 H58 H59 C60 H61 H62 H63 H64 S1  C2  C3  C4  
C5  C6  C7  C8  C9  S10 C11 H12 C13 C14 H15 C16 C17 C18 H19 C20 H21 H22 H23 C24 
C25 C26 C27 H28 C29 H30 C31 H32 H33 C34 H35 H36 C37 H38 H39 H40 C41 H42 H43 C44 
H45 H46 C47 H48 H49 C50 H51 H52 H53 H54 C55 C56 H57 H58 H59 C60 H61 H62 H63 H64 
S1  C2  C3  C4  C5  C6  C7  C8  C9  S10 C11 H12 C13 C14 H15 C16 C17 C18 H19 C20 
H21 H22 H23 C24 C25 C26 C27 H28 C29 H30 C31 H32 H33 C34 H35 H36 C37 H38 H39 H40 
C41 H42 H43 C44 H45 H46 C47 H48 H49 C50 H51 H52 H53 H54 C55 C56 H57 H58 H59 C60 
H61 H62 H63 H64 S1  C2  C3  C4  C5  C6  C7  C8  C9  S10 C11 H12 C13 C14 H15 C16 
C17 C18 H19 C20 H21 H22 H23 C24 C25 C26 C27 H28 C29 H30 C31 H32 H33 C34 H35 H36 
C37 H38 H39 H40 C41 H42 H43 C44 H45 H46 C47 H48 H49 C50 H51 H52 H53 H54 C55 C56 
H57 H58 H59 C60 H61 H62 H63 H64 S1  C2  C3  C4  C5  C6  C7  C8  C9  S10 C11 H12 
C13 C14 H15 C16 C17 C18 H19 C20 H21 H22 H23 C24 C25 C26 C27 H28 C29 H30 C31 H32 
H33 C34 H35 H36 C37 H38 H39 H40 C41 H42 H43 C44 H45 H46 C47 H48 H49 C50 H51 H52 
H53 H54 C55 C56 H57 H58 H59 C60 H61 H62 H63 H64 S1  C2  C3  C4  C5  C6  C7  C8  
C9  S10 C11 H12 C13 C14 H15 C16 C17 C18 H19 C20 H21 H22 H23 C24 C25 C26 C27 H28 
C29 H30 C31 H32 H33 C34 H35 H36 C37 H38 H39 H40 C41 H42 H43 C44 H45 H46 C47 H48 
H49 C50 H51 H52 H53 H54 C55 C56 H57 H58 H59 C60 H61 H62 H63 H64 S1  C2  C3  C4  
C5  C6  C7  C8  C9  S10 C11 H12 C13 C14 H15 C16 C17 C18 H19 C20 H21 H22 H23 C24 
C25 C26 C27 H28 C29 H30 C31 H32 H33 C34 H35 H36 C37 H38 H39 H40 C41 H42 H43 C44 
H45 H46 C47 H48 H49 C50 H51 H52 H53 H54 C55 C56 H57 H58 H59 C60 H61 H62 H63 H64 
S1  C2  C3  C4  C5  C6  C7  C8  C9  S10 C11 H12 C13 C14 H15 C16 C17 C18 H19 C20 
H21 H22 H23 C24 C25 C26 C27 H28 C29 H30 C31 H32 H33 C34 H35 H36 C37 H38 H39 H40 
C41 H42 H43 C44 H45 H46 C47 H48 H49 C50 H51 H52 H53 H54 C55 C56 H57 H58 H59 C60 
H61 H62 H63 H64 S1  C2  C3  C4  C5  C6  C7  C8  C9  S10 C11 H12 C13 C14 H15 C16 
C17 C18 H19 C20 H21 H22 H23 C24 C25 C26 C27 H28 C29 H30 C31 H32 H33 C34 H35 H36 
C37 H38 H39 H40 C41 H42 H43 C44 H45 H46 C47 H48 H49 C50 H51 H52 H53 H54 C55 C56 
H57 H58 H59 C60 H61 H62 H63 H64 S1  C2  C3  C4  C5  C6  C7  C8  C9  S10 C11 H12 
C13 C14 H15 C16 C17 C18 H19 C20 H21 H22 H23 C24 C25 C26 C27 H28 C29 H30 C31 H32 
H33 C34 H35 H36 C37 H38 H39 H40 C41 H42 H43 C44 H45 H46 C47 H48 H49 C50 H51 H52 
H53 H54 C55 C56 H57 H58 H59 C60 H61 H62 H63 H64 S1  C2  C3  C4  C5  C6  C7  C8  
C9  S10 C11 H12 C13 C14 H15 C16 C17 C18 H19 C20 H21 H22 H23 C24 C25 C26 C27 H28 
C29 H30 C31 H32 H33 C34 H35 H36 C37 H38 H39 H40 C41 H42 H43 C44 H45 H46 C47 H48 
H49 C50 H51 H52 H53 H54 C55 C56 H57 H58 H59 C60 H61 H62 H63 H64 S1  C2  C3  C4  
C5  C6  C7  C8  C9  S10 C11 H12 C13 C14 H15 C16 C17 C18 H19 C20 H21 H22 H23 C24 
C25 C26 C27 H28 C29 H30 C31 H32 H33 C34 H35 H36 C37 H38 H39 H40 C41 H42 H43 C44 
H45 H46 C47 H48 H49 C50 H51 H52 H53 H54 C55 C56 H57 H58 H59 C60 H61 H62 H63 H64 
S1  C2  C3  C4  C5  C6  C7  C8  C9  S10 C11 H12 C13 C14 H15 C16 C17 C18 H19 C20 
H21 H22 H23 C24 C25 C26 C27 H28 C29 H30 C31 H32 H33 C34 H35 H36 C37 H38 H39 H40 
C41 H42 H43 C44 H45 H46 C47 H48 H49 C50 H51 H52 H53 H54 C55 C56 H57 H58 H59 C60 
H61 H62 H63 H64 S1  C2  C3  C4  C5  C6  C7  C8  C9  S10 C11 H12 C13 C14 H15 C16 
C17 C18 H19 C20 H21 H22 H23 C24 C25 C26 C27 H28 C29 H30 C31 H32 H33 C34 H35 H36 
C37 H38 H39 H40 C41 H42 H43 C44 H45 H46 C47 H48 H49 C50 H51 H52 H53 H54 C55 C56 
H57 H58 H59 C60 H61 H62 H63 H64 S1  C2  C3  C4  C5  C6  C7  C8  C9  S10 C11 H12 
C13 C14 H15 C16 C17 C18 H19 C20 H21 H22 H23 C24 C25 C26 C27 H28 C29 H30 C31 H32 
H33 C34 H35 H36 C37 H38 H39 H40 C41 H42 H43 C44 H45 H46 C47 H48 H49 C50 H51 H52 
H53 H54 C55 C56 H57 H58 H59 C60 H61 H62 H63 H64 S1  C2  C3  C4  C5  C6  C7  C8  
C9  S10 C11 H12 C13 C14 H15 C16 C17 C18 H19 C20 H21 H22 H23 C24 C25 C26 C27 H28 
C29 H30 C31 H32 H33 C34 H35 H36 C37 H38 H39 H40 C41 H42 H43 C44 H45 H46 C47 H48 
H49 C50 H51 H52 H53 H54 C55 C56 H57 H58 H59 C60 H61 H62 H63 H64 S1  C2  C3  C4  
C5  C6  C7  C8  C9  S10 C11 H12 C13 C14 H15 C16 C17 C18 H19 C20 H21 H22 H23 C24 
C25 C26 C27 H28 C29 H30 C31 H32 H33 C34 H35 H36 C37 H38 H39 H40 C41 H42 H43 C44 
H45 H46 C47 H48 H49 C50 H51 H52 H53 H54 C55 C56 H57 H58 H59 C60 H61 H62 H63 H64 
S1  C2  C3  C4  C5  C6  C7  C8  C9  S10 C11 H12 C13 C14 H15 C16 C17 C18 H19 C20 
H21 H22 H23 C24 C25 C26 C27 H28 C29 H30 C31 H32 H33 C34 H35 H36 C37 H38 H39 H40 
C41 H42 H43 C44 H45 H46 C47 H48 H49 C50 H51 H52 H53 H54 C55 C56 H57 H58 H59 C60 
H61 H62 H63 H64 S1  C2  C3  C4  C5  C6  C7  C8  C9  S10 C11 H12 C13 C14 H15 C16 
C17 C18 H19 C20 H21 H22 H23 C24 C25 C26 C27 H28 C29 H30 C31 H32 H33 C34 H35 H36 
C37 H38 H39 H40 C41 H42 H43 C44 H45 H46 C47 H48 H49 C50 H51 H52 H53 H54 C55 C56 
H57 H58 H59 C60 H61 H62 H63 H64 S1  C2  C3  C4  C5  C6  C7  C8  C9  S10 C11 H12 
C13 C14 H15 C16 C17 C18 H19 C20 H21 H22 H23 C24 C25 C26 C27 H28 C29 H30 C31 H32 
H33 C34 H35 H36 C37 H38 H39 H40 C41 H42 H43 C44 H45 H46 C47 H48 H49 C50 H51 H52 
H53 H54 C55 C56 H57 H58 H59 C60 H61 H62 H63 H64 S1  C2  C3  C4  C5  C6  C7  C8  
C9  S10 C11 H12 C13 C14 H15 C16 C17 C18 H19 C20 H21 H22 H23 C24 C25 C26 C27 H28 
C29 H30 C31 H32 H33 C34 H35 H36 C37 H38 H39 H40 C41 H42 H43 C44 H45 H46 C47 H48 
H49 C50 H51 H52 H53 H54 C55 C56 H57 H58 H59 C60 H61 H62 H63 H64 S1  C2  C3  C4  
C5  C6  C7  C8  C9  S10 C11 H12 C13 C14 H15 C16 C17 C18 H19 C20 H21 H22 H23 C24 
C25 C26 C27 H28 C29 H30 C31 H32 H33 C34 H35 H36 C37 H38 H39 H40 C41 H42 H43 C44 
H45 H46 C47 H48 H49 C50 H51 H52 H53 H54 C55 C56 H57 H58 H59 C60 H61 H62 H63 H64 
S1  C2  C3  C4  C5  C6  C7  C8  C9  S10 C11 H12 C13 C14 H15 C16 C17 C18 H19 C20 
H21 H22 H23 C24 C25 C26 C27 H28 C29 H30 C31 H32 H33 C34 H35 H36 C37 H38 H39 H40 
C41 H42 H43 C44 H45 H46 C47 H48 H49 C50 H51 H52 H53 H54 C55 C56 H57 H58 H59 C60 
H61 H62 H63 H64 S1  C2  C3  C4  C5  C6  C7  C8  C9  S10 C11 H12 C13 C14 H15 C16 
C17 C18 H19 C20 H21 H22 H23 C24 C25 C26 C27 H28 C29 H30 C31 H32 H33 C34 H35 H36 
C37 H38 H39 H40 C41 H42 H43 C44 H45 H46 C47 H48 H49 C50 H51 H52 H53 H54 C55 C56 
H57 H58 H59 C60 H61 H62 H63 H64 S1  C2  C3  C4  C5  C6  C7  C8  C9  S10 C11 H12 
C13 C14 H15 C16 C17 C18 H19 C20 H21 H22 H23 C24 C25 C26 C27 H28 C29 H30 C31 H32 
H33 C34 H35 H36 C37 H38 H39 H40 C41 H42 H43 C44 H45 H46 C47 H48 H49 C50 H51 H52 
H53 H54 C55 C56 H57 H58 H59 C60 H61 H62 H63 H64 S1  C2  C3  C4  C5  C6  C7  C8  
C9  S10 C11 H12 C13 C14 H15 C16 C17 C18 H19 C20 H21 H22 H23 C24 C25 C26 C27 H28 
C29 H30 C31 H32 H33 C34 H35 H36 C37 H38 H39 H40 C41 H42 H43 C44 H45 H46 C47 H48 
H49 C50 H51 H52 H53 H54 C55 C56 H57 H58 H59 C60 H61 H62 H63 H64 S1  C2  C3  C4  
C5  C6  C7  C8  C9  S10 C11 H12 C13 C14 H15 C16 C17 C18 H19 C20 H21 H22 H23 C24 
C25 C26 C27 H28 C29 H30 C31 H32 H33 C34 H35 H36 C37 H38 H39 H40 C41 H42 H43 C44 
H45 H46 C47 H48 H49 C50 H51 H52 H53 H54 C55 C56 H57 H58 H59 C60 H61 H62 H63 H64 
S1  C2  C3  C4  C5  C6  C7  C8  C9  S10 C11 H12 C13 C14 H15 C16 C17 C18 H19 C20 
H21 H22 H23 C24 C25 C26 C27 H28 C29 H30 C31 H32 H33 C34 H35 H36 C37 H38 H39 H40 
C41 H42 H43 C44 H45 H46 C47 H48 H49 C50 H51 H52 H53 H54 C55 C56 H57 H58 H59 C60 
H61 H62 H63 H64 S1  C2  C3  C4  C5  C6  C7  C8  C9  S10 C11 H12 C13 C14 H15 C16 
C17 C18 H19 C20 H21 H22 H23 C24 C25 C26 C27 H28 C29 H30 C31 H32 H33 C34 H35 H36 
C37 H38 H39 H40 C41 H42 H43 C44 H45 H46 C47 H48 H49 C50 H51 H52 H53 H54 C55 C56 
H57 H58 H59 C60 H61 H62 H63 H64 S1  C2  C3  C4  C5  C6  C7  C8  C9  S10 C11 H12 
C13 C14 H15 C16 C17 C18 H19 C20 H21 H22 H23 C24 C25 C26 C27 H28 C29 H30 C31 H32 
H33 C34 H35 H36 C37 H38 H39 H40 C41 H42 H43 C44 H45 H46 C47 H48 H49 C50 H51 H52 
H53 H54 C55 C56 H57 H58 H59 C60 H61 H62 H63 H64 S1  C2  C3  C4  C5  C6  C7  C8  
C9  S10 C11 H12 C13 C14 H15 C16 C17 C18 H19 C20 H21 H22 H23 C24 C25 C26 C27 H28 
C29 H30 C31 H32 H33 C34 H35 H36 C37 H38 H39 H40 C41 H42 H43 C44 H45 H46 C47 H48 
H49 C50 H51 H52 H53 H54 C55 C56 H57 H58 H59 C60 H61 H62 H63 H64 S1  C2  C3  C4  
C5  C6  C7  C8  C9  S10 C11 H12 C13 C14 H15 C16 C17 C18 H19 C20 H21 H22 H23 C24 
C25 C26 C27 H28 C29 H30 C31 H32 H33 C34 H35 H36 C37 H38 H39 H40 C41 H42 H43 C44 
H45 H46 C47 H48 H49 C50 H51 H52 H53 H54 C55 C56 H57 H58 H59 C60 H61 H62 H63 H64 
S1  C2  C3  C4  C5  C6  C7  C8  C9  S10 C11 H12 C13 C14 H15 C16 C17 C18 H19 C20 
H21 H22 H23 C24 C25 C26 C27 H28 C29 H30 C31 H32 H33 C34 H35 H36 C37 H38 H39 H40 
C41 H42 H43 C44 H45 H46 C47 H48 H49 C50 H51 H52 H53 H54 C55 C56 H57 H58 H59 C60 
H61 H62 H63 H64 S1  C2  C3  C4  C5  C6  C7  C8  C9  S10 C11 H12 C13 C14 H15 C16 
C17 C18 H19 C20 H21 H22 H23 C24 C25 C26 C27 H28 C29 H30 C31 H32 H33 C34 H35 H36 
C37 H38 H39 H40 C41 H42 H43 C44 H45 H46 C47 H48 H49 C50 H51 H52 H53 H54 C55 C56 
H57 H58 H59 C60 H61 H62 H63 H64 S1  C2  C3  C4  C5  C6  C7  C8  C9  S10 C11 H12 
C13 C14 H15 C16 C17 C18 H19 C20 H21 H22 H23 C24 C25 C26 C27 H28 C29 H30 C31 H32 
H33 C34 H35 H36 C37 H38 H39 H40 C41 H42 H43 C44 H45 H46 C47 H48 H49 C50 H51 H52 
H53 H54 C55 C56 H57 H58 H59 C60 H61 H62 H63 H64 S1  C2  C3  C4  C5  C6  C7  C8  
C9  S10 C11 H12 C13 C14 H15 C16 C17 C18 H19 C20 H21 H22 H23 C24 C25 C26 C27 H28 
C29 H30 C31 H32 H33 C34 H35 H36 C37 H38 H39 H40 C41 H42 H43 C44 H45 H46 C47 H48 
H49 C50 H51 H52 H53 H54 C55 C56 H57 H58 H59 C60 H61 H62 H63 H64 S1  C2  C3  C4  
C5  C6  C7  C8  C9  S10 C11 H12 C13 C14 H15 C16 C17 C18 H19 C20 H21 H22 H23 C24 
C25 C26 C27 H28 C29 H30 C31 H32 H33 C34 H35 H36 C37 H38 H39 H40 C41 H42 H43 C44 
H45 H46 C47 H48 H49 C50 H51 H52 H53 H54 C55 C56 H57 H58 H59 C60 H61 H62 H63 H64 
S1  C2  C3  C4  C5  C6  C7  C8  C9  S10 C11 H12 C13 C14 H15 C16 C17 C18 H19 C20 
H21 H22 H23 C24 C25 C26 C27 H28 C29 H30 C31 H32 H33 C34 H35 H36 C37 H38 H39 H40 
C41 H42 H43 C44 H45 H46 C47 H48 H49 C50 H51 H52 H53 H54 C55 C56 H57 H58 H59 C60 
H61 H62 H63 H64 S1  C2  C3  C4  C5  C6  C7  C8  C9  S10 C11 H12 C13 C14 H15 C16 
C17 C18 H19 C20 H21 H22 H23 C24 C25 C26 C27 H28 C29 H30 C31 H32 H33 C34 H35 H36 
C37 H38 H39 H40 C41 H42 H43 C44 H45 H46 C47 H48 H49 C50 H51 H52 H53 H54 C55 C56 
H57 H58 H59 C60 H61 H62 H63 H64 S1  C2  C3  C4  C5  C6  C7  C8  C9  S10 C11 H12 
C13 C14 H15 C16 C17 C18 H19 C20 H21 H22 H23 C24 C25 C26 C27 H28 C29 H30 C31 H32 
H33 C34 H35 H36 C37 H38 H39 H40 C41 H42 H43 C44 H45 H46 C47 H48 H49 C50 H51 H52 
H53 H54 C55 C56 H57 H58 H59 C60 H61 H62 H63 H64 S1  C2  C3  C4  C5  C6  C7  C8  
C9  S10 C11 H12 C13 C14 H15 C16 C17 C18 H19 C20 H21 H22 H23 C24 C25 C26 C27 H28 
C29 H30 C31 H32 H33 C34 H35 H36 C37 H38 H39 H40 C41 H42 H43 C44 H45 H46 C47 H48 
H49 C50 H51 H52 H53 H54 C55 C56 H57 H58 H59 C60 H61 H62 H63 H64 S1  C2  C3  C4  
C5  C6  C7  C8  C9  S10 C11 H12 C13 C14 H15 C16 C17 C18 H19 C20 H21 H22 H23 C24 
C25 C26 C27 H28 C29 H30 C31 H32 H33 C34 H35 H36 C37 H38 H39 H40 C41 H42 H43 C44 
H45 H46 C47 H48 H49 C50 H51 H52 H53 H54 C55 C56 H57 H58 H59 C60 H61 H62 H63 H64 
S1  C2  C3  C4  C5  C6  C7  C8  C9  S10 C11 H12 C13 C14 H15 C16 C17 C18 H19 C20 
H21 H22 H23 C24 C25 C26 C27 H28 C29 H30 C31 H32 H33 C34 H35 H36 C37 H38 H39 H40 
C41 H42 H43 C44 H45 H46 C47 H48 H49 C50 H51 H52 H53 H54 C55 C56 H57 H58 H59 C60 
H61 H62 H63 H64 S1  C2  C3  C4  C5  C6  C7  C8  C9  S10 C11 H12 C13 C14 H15 C16 
C17 C18 H19 C20 H21 H22 H23 C24 C25 C26 C27 H28 C29 H30 C31 H32 H33 C34 H35 H36 
C37 H38 H39 H40 C41 H42 H43 C44 H45 H46 C47 H48 H49 C50 H51 H52 H53 H54 C55 C56 
H57 H58 H59 C60 H61 H62 H63 H64 S1  C2  C3  C4  C5  C6  C7  C8  C9  S10 C11 H12 
C13 C14 H15 C16 C17 C18 H19 C20 H21 H22 H23 C24 C25 C26 C27 H28 C29 H30 C31 H32 
H33 C34 H35 H36 C37 H38 H39 H40 C41 H42 H43 C44 H45 H46 C47 H48 H49 C50 H51 H52 
H53 H54 C55 C56 H57 H58 H59 C60 H61 H62 H63 H64 S1  C2  C3  C4  C5  C6  C7  C8  
C9  S10 C11 H12 C13 C14 H15 C16 C17 C18 H19 C20 H21 H22 H23 C24 C25 C26 C27 H28 
C29 H30 C31 H32 H33 C34 H35 H36 C37 H38 H39 H40 C41 H42 H43 C44 H45 H46 C47 H48 
H49 C50 H51 H52 H53 H54 C55 C56 H57 H58 H59 C60 H61 H62 H63 H64 S1  C2  C3  C4  
C5  C6  C7  C8  C9  S10 C11 H12 C13 C14 H15 C16 C17 C18 H19 C20 H21 H22 H23 C24 
C25 C26 C27 H28 C29 H30 C31 H32 H33 C34 H35 H36 C37 H38 H39 H40 C41 H42 H43 C44 
H45 H46 C47 H48 H49 C50 H51 H52 H53 H54 C55 C56 H57 H58 H59 C60 H61 H62 H63 H64 
S1  C2  C3  C4  C5  C6  C7  C8  C9  S10 C11 H12 C13 C14 H15 C16 C17 C18 H19 C20 
H21 H22 H23 C24 C25 C26 C27 H28 C29 H30 C31 H32 H33 C34 H35 H36 C37 H38 H39 H40 
C41 H42 H43 C44 H45 H46 C47 H48 H49 C50 H51 H52 H53 H54 C55 C56 H57 H58 H59 C60 
H61 H62 H63 H64 S1  C2  C3  C4  C5  C6  C7  C8  C9  S10 C11 H12 C13 C14 H15 C16 
C17 C18 H19 C20 H21 H22 H23 C24 C25 C26 C27 H28 C29 H30 C31 H32 H33 C34 H35 H36 
C37 H38 H39 H40 C41 H42 H43 C44 H45 H46 C47 H48 H49 C50 H51 H52 H53 H54 C55 C56 
H57 H58 H59 C60 H61 H62 H63 H64 S1  C2  C3  C4  C5  C6  C7  C8  C9  S10 C11 H12 
C13 C14 H15 C16 C17 C18 H19 C20 H21 H22 H23 C24 C25 C26 C27 H28 C29 H30 C31 H32 
H33 C34 H35 H36 C37 H38 H39 H40 C41 H42 H43 C44 H45 H46 C47 H48 H49 C50 H51 H52 
H53 H54 C55 C56 H57 H58 H59 C60 H61 H62 H63 H64 S1  C2  C3  C4  C5  C6  C7  C8  
C9  S10 C11 H12 C13 C14 H15 C16 C17 C18 H19 C20 H21 H22 H23 C24 C25 C26 C27 H28 
C29 H30 C31 H32 H33 C34 H35 H36 C37 H38 H39 H40 C41 H42 H43 C44 H45 H46 C47 H48 
H49 C50 H51 H52 H53 H54 C55 C56 H57 H58 H59 C60 H61 H62 H63 H64 S1  C2  C3  C4  
C5  C6  C7  C8  C9  S10 C11 H12 C13 C14 H15 C16 C17 C18 H19 C20 H21 H22 H23 C24 
C25 C26 C27 H28 C29 H30 C31 H32 H33 C34 H35 H36 C37 H38 H39 H40 C41 H42 H43 C44 
H45 H46 C47 H48 H49 C50 H51 H52 H53 H54 C55 C56 H57 H58 H59 C60 H61 H62 H63 H64 
S1  C2  C3  C4  C5  C6  C7  C8  C9  S10 C11 H12 C13 C14 H15 C16 C17 C18 H19 C20 
H21 H22 H23 C24 C25 C26 C27 H28 C29 H30 C31 H32 H33 C34 H35 H36 C37 H38 H39 H40 
C41 H42 H43 C44 H45 H46 C47 H48 H49 C50 H51 H52 H53 H54 C55 C56 H57 H58 H59 C60 
H61 H62 H63 H64 S1  C2  C3  C4  C5  C6  C7  C8  C9  S10 C11 H12 C13 C14 H15 C16 
C17 C18 H19 C20 H21 H22 H23 C24 C25 C26 C27 H28 C29 H30 C31 H32 H33 C34 H35 H36 
C37 H38 H39 H40 C41 H42 H43 C44 H45 H46 C47 H48 H49 C50 H51 H52 H53 H54 C55 C56 
H57 H58 H59 C60 H61 H62 H63 H64 S1  C2  C3  C4  C5  C6  C7  C8  C9  S10 C11 H12 
C13 C14 H15 C16 C17 C18 H19 C20 H21 H22 H23 C24 C25 C26 C27 H28 C29 H30 C31 H32 
H33 C34 H35 H36 C37 H38 H39 H40 C41 H42 H43 C44 H45 H46 C47 H48 H49 C50 H51 H52 
H53 H54 C55 C56 H57 H58 H59 C60 H61 H62 H63 H64 S1  C2  C3  C4  C5  C6  C7  C8  
C9  S10 C11 H12 C13 C14 H15 C16 C17 C18 H19 C20 H21 H22 H23 C24 C25 C26 C27 H28 
C29 H30 C31 H32 H33 C34 H35 H36 C37 H38 H39 H40 C41 H42 H43 C44 H45 H46 C47 H48 
H49 C50 H51 H52 H53 H54 C55 C56 H57 H58 H59 C60 H61 H62 H63 H64 S1  C2  C3  C4  
C5  C6  C7  C8  C9  S10 C11 H12 C13 C14 H15 C16 C17 C18 H19 C20 H21 H22 H23 C24 
C25 C26 C27 H28 C29 H30 C31 H32 H33 C34 H35 H36 C37 H38 H39 H40 C41 H42 H43 C44 
H45 H46 C47 H48 H49 C50 H51 H52 H53 H54 C55 C56 H57 H58 H59 C60 H61 H62 H63 H64 
S1  C2  C3  C4  C5  C6  C7  C8  C9  S10 C11 H12 C13 C14 H15 C16 C17 C18 H19 C20 
H21 H22 H23 C24 C25 C26 C27 H28 C29 H30 C31 H32 H33 C34 H35 H36 C37 H38 H39 H40 
C41 H42 H43 C44 H45 H46 C47 H48 H49 C50 H51 H52 H53 H54 C55 C56 H57 H58 H59 C60 
H61 H62 H63 H64 S1  C2  C3  C4  C5  C6  C7  C8  C9  S10 C11 H12 C13 C14 H15 C16 
C17 C18 H19 C20 H21 H22 H23 C24 C25 C26 C27 H28 C29 H30 C31 H32 H33 C34 H35 H36 
C37 H38 H39 H40 C41 H42 H43 C44 H45 H46 C47 H48 H49 C50 H51 H52 H53 H54 C55 C56 
H57 H58 H59 C60 H61 H62 H63 H64 S1  C2  C3  C4  C5  C6  C7  C8  C9  S10 C11 H12 
C13 C14 H15 C16 C17 C18 H19 C20 H21 H22 H23 C24 C25 C26 C27 H28 C29 H30 C31 H32 
H33 C34 H35 H36 C37 H38 H39 H40 C41 H42 H43 C44 H45 H46 C47 H48 H49 C50 H51 H52 
H53 H54 C55 C56 H57 H58 H59 C60 H61 H62 H63 H64 S1  C2  C3  C4  C5  C6  C7  C8  
C9  S10 C11 H12 C13 C14 H15 C16 C17 C18 H19 C20 H21 H22 H23 C24 C25 C26 C27 H28 
C29 H30 C31 H32 H33 C34 H35 H36 C37 H38 H39 H40 C41 H42 H43 C44 H45 H46 C47 H48 
H49 C50 H51 H52 H53 H54 C55 C56 H57 H58 H59 C60 H61 H62 H63 H64 S1  C2  C3  C4  
C5  C6  C7  C8  C9  S10 C11 H12 C13 C14 H15 C16 C17 C18 H19 C20 H21 H22 H23 C24 
C25 C26 C27 H28 C29 H30 C31 H32 H33 C34 H35 H36 C37 H38 H39 H40 C41 H42 H43 C44 
H45 H46 C47 H48 H49 C50 H51 H52 H53 H54 C55 C56 H57 H58 H59 C60 H61 H62 H63 H64 
S1  C2  C3  C4  C5  C6  C7  C8  C9  S10 C11 H12 C13 C14 H15 C16 C17 C18 H19 C20 
H21 H22 H23 C24 C25 C26 C27 H28 C29 H30 C31 H32 H33 C34 H35 H36 C37 H38 H39 H40 
C41 H42 H43 C44 H45 H46 C47 H48 H49 C50 H51 H52 H53 H54 C55 C56 H57 H58 H59 C60 
H61 H62 H63 H64 S1  C2  C3  C4  C5  C6  C7  C8  C9  S10 C11 H12 C13 C14 H15 C16 
C17 C18 H19 C20 H21 H22 H23 C24 C25 C26 C27 H28 C29 H30 C31 H32 H33 C34 H35 H36 
C37 H38 H39 H40 C41 H42 H43 C44 H45 H46 C47 H48 H49 C50 H51 H52 H53 H54 C55 C56 
H57 H58 H59 C60 H61 H62 H63 H64 S1  C2  C3  C4  C5  C6  C7  C8  C9  S10 C11 H12 
C13 C14 H15 C16 C17 C18 H19 C20 H21 H22 H23 C24 C25 C26 C27 H28 C29 H30 C31 H32 
H33 C34 H35 H36 C37 H38 H39 H40 C41 H42 H43 C44 H45 H46 C47 H48 H49 C50 H51 H52 
H53 H54 C55 C56 H57 H58 H59 C60 H61 H62 H63 H64 S1  C2  C3  C4  C5  C6  C7  C8  
C9  S10 C11 H12 C13 C14 H15 C16 C17 C18 H19 C20 H21 H22 H23 C24 C25 C26 C27 H28 
C29 H30 C31 H32 H33 C34 H35 H36 C37 H38 H39 H40 C41 H42 H43 C44 H45 H46 C47 H48 
H49 C50 H51 H52 H53 H54 C55 C56 H57 H58 H59 C60 H61 H62 H63 H64 S1  C2  C3  C4  
C5  C6  C7  C8  C9  S10 C11 H12 C13 C14 H15 C16 C17 C18 H19 C20 H21 H22 H23 C24 
C25 C26 C27 H28 C29 H30 C31 H32 H33 C34 H35 H36 C37 H38 H39 H40 C41 H42 H43 C44 
H45 H46 C47 H48 H49 C50 H51 H52 H53 H54 C55 C56 H57 H58 H59 C60 H61 H62 H63 H64 
S1  C2  C3  C4  C5  C6  C7  C8  C9  S10 C11 H12 C13 C14 H15 C16 C17 C18 H19 C20 
H21 H22 H23 C24 C25 C26 C27 H28 C29 H30 C31 H32 H33 C34 H35 H36 C37 H38 H39 H40 
C41 H42 H43 C44 H45 H46 C47 H48 H49 C50 H51 H52 H53 H54 C55 C56 H57 H58 H59 C60 
H61 H62 H63 H64 S1  C2  C3  C4  C5  C6  C7  C8  C9  S10 C11 H12 C13 C14 H15 C16 
C17 C18 H19 C20 H21 H22 H23 C24 C25 C26 C27 H28 C29 H30 C31 H32 H33 C34 H35 H36 
C37 H38 H39 H40 C41 H42 H43 C44 H45 H46 C47 H48 H49 C50 H51 H52 H53 H54 C55 C56 
H57 H58 H59 C60 H61 H62 H63 H64 S1  C2  C3  C4  C5  C6  C7  C8  C9  S10 C11 H12 
C13 C14 H15 C16 C17 C18 H19 C20 H21 H22 H23 C24 C25 C26 C27 H28 C29 H30 C31 H32 
H33 C34 H35 H36 C37 H38 H39 H40 C41 H42 H43 C44 H45 H46 C47 H48 H49 C50 H51 H52 
H53 H54 C55 C56 H57 H58 H59 C60 H61 H62 H63 H64 S1  C2  C3  C4  C5  C6  C7  C8  
C9  S10 C11 H12 C13 C14 H15 C16 C17 C18 H19 C20 H21 H22 H23 C24 C25 C26 C27 H28 
C29 H30 C31 H32 H33 C34 H35 H36 C37 H38 H39 H40 C41 H42 H43 C44 H45 H46 C47 H48 
H49 C50 H51 H52 H53 H54 C55 C56 H57 H58 H59 C60 H61 H62 H63 H64 S1  C2  C3  C4  
C5  C6  C7  C8  C9  S10 C11 H12 C13 C14 H15 C16 C17 C18 H19 C20 H21 H22 H23 C24 
C25 C26 C27 H28 C29 H30 C31 H32 H33 C34 H35 H36 C37 H38 H39 H40 C41 H42 H43 C44 
H45 H46 C47 H48 H49 C50 H51 H52 H53 H54 C55 C56 H57 H58 H59 C60 H61 H62 H63 H64 
S1  C2  C3  C4  C5  C6  C7  C8  C9  S10 C11 H12 C13 C14 H15 C16 C17 C18 H19 C20 
H21 H22 H23 C24 C25 C26 C27 H28 C29 H30 C31 H32 H33 C34 H35 H36 C37 H38 H39 H40 
C41 H42 H43 C44 H45 H46 C47 H48 H49 C50 H51 H52 H53 H54 C55 C56 H57 H58 H59 C60 
H61 H62 H63 H64 S1  C2  C3  C4  C5  C6  C7  C8  C9  S10 C11 H12 C13 C14 H15 C16 
C17 C18 H19 C20 H21 H22 H23 C24 C25 C26 C27 H28 C29 H30 C31 H32 H33 C34 H35 H36 
C37 H38 H39 H40 C41 H42 H43 C44 H45 H46 C47 H48 H49 C50 H51 H52 H53 H54 C55 C56 
H57 H58 H59 C60 H61 H62 H63 H64 S1  C2  C3  C4  C5  C6  C7  C8  C9  S10 C11 H12 
C13 C14 H15 C16 C17 C18 H19 C20 H21 H22 H23 C24 C25 C26 C27 H28 C29 H30 C31 H32 
H33 C34 H35 H36 C37 H38 H39 H40 C41 H42 H43 C44 H45 H46 C47 H48 H49 C50 H51 H52 
H53 H54 C55 C56 H57 H58 H59 C60 H61 H62 H63 H64 S1  C2  C3  C4  C5  C6  C7  C8  
C9  S10 C11 H12 C13 C14 H15 C16 C17 C18 H19 C20 H21 H22 H23 C24 C25 C26 C27 H28 
C29 H30 C31 H32 H33 C34 H35 H36 C37 H38 H39 H40 C41 H42 H43 C44 H45 H46 C47 H48 
H49 C50 H51 H52 H53 H54 C55 C56 H57 H58 H59 C60 H61 H62 H63 H64 S1  C2  C3  C4  
C5  C6  C7  C8  C9  S10 C11 H12 C13 C14 H15 C16 C17 C18 H19 C20 H21 H22 H23 C24 
C25 C26 C27 H28 C29 H30 C31 H32 H33 C34 H35 H36 C37 H38 H39 H40 C41 H42 H43 C44 
H45 H46 C47 H48 H49 C50 H51 H52 H53 H54 C55 C56 H57 H58 H59 C60 H61 H62 H63 H64 
S1  C2  C3  C4  C5  C6  C7  C8  C9  S10 C11 H12 C13 C14 H15 C16 C17 C18 H19 C20 
H21 H22 H23 C24 C25 C26 C27 H28 C29 H30 C31 H32 H33 C34 H35 H36 C37 H38 H39 H40 
C41 H42 H43 C44 H45 H46 C47 H48 H49 C50 H51 H52 H53 H54 C55 C56 H57 H58 H59 C60 
H61 H62 H63 H64 S1  C2  C3  C4  C5  C6  C7  C8  C9  S10 C11 H12 C13 C14 H15 C16 
C17 C18 H19 C20 H21 H22 H23 C24 C25 C26 C27 H28 C29 H30 C31 H32 H33 C34 H35 H36 
C37 H38 H39 H40 C41 H42 H43 C44 H45 H46 C47 H48 H49 C50 H51 H52 H53 H54 C55 C56 
H57 H58 H59 C60 H61 H62 H63 H64 S1  C2  C3  C4  C5  C6  C7  C8  C9  S10 C11 H12 
C13 C14 H15 C16 C17 C18 H19 C20 H21 H22 H23 C24 C25 C26 C27 H28 C29 H30 C31 H32 
H33 C34 H35 H36 C37 H38 H39 H40 C41 H42 H43 C44 H45 H46 C47 H48 H49 C50 H51 H52 
H53 H54 C55 C56 H57 H58 H59 C60 H61 H62 H63 H64 S1  C2  C3  C4  C5  C6  C7  C8  
C9  S10 C11 H12 C13 C14 H15 C16 C17 C18 H19 C20 H21 H22 H23 C24 C25 C26 C27 H28 
C29 H30 C31 H32 H33 C34 H35 H36 C37 H38 H39 H40 C41 H42 H43 C44 H45 H46 C47 H48 
H49 C50 H51 H52 H53 H54 C55 C56 H57 H58 H59 C60 H61 H62 H63 H64 S1  C2  C3  C4  
C5  C6  C7  C8  C9  S10 C11 H12 C13 C14 H15 C16 C17 C18 H19 C20 H21 H22 H23 C24 
C25 C26 C27 H28 C29 H30 C31 H32 H33 C34 H35 H36 C37 H38 H39 H40 C41 H42 H43 C44 
H45 H46 C47 H48 H49 C50 H51 H52 H53 H54 C55 C56 H57 H58 H59 C60 H61 H62 H63 H64 
S1  C2  C3  C4  C5  C6  C7  C8  C9  S10 C11 H12 C13 C14 H15 C16 C17 C18 H19 C20 
H21 H22 H23 C24 C25 C26 C27 H28 C29 H30 C31 H32 H33 C34 H35 H36 C37 H38 H39 H40 
C41 H42 H43 C44 H45 H46 C47 H48 H49 C50 H51 H52 H53 H54 C55 C56 H57 H58 H59 C60 
H61 H62 H63 H64 S1  C2  C3  C4  C5  C6  C7  C8  C9  S10 C11 H12 C13 C14 H15 C16 
C17 C18 H19 C20 H21 H22 H23 C24 C25 C26 C27 H28 C29 H30 C31 H32 H33 C34 H35 H36 
C37 H38 H39 H40 C41 H42 H43 C44 H45 H46 C47 H48 H49 C50 H51 H52 H53 H54 C55 C56 
H57 H58 H59 C60 H61 H62 H63 H64 S1  C2  C3  C4  C5  C6  C7  C8  C9  S10 C11 H12 
C13 C14 H15 C16 C17 C18 H19 C20 H21 H22 H23 C24 C25 C26 C27 H28 C29 H30 C31 H32 
H33 C34 H35 H36 C37 H38 H39 H40 C41 H42 H43 C44 H45 H46 C47 H48 H49 C50 H51 H52 
H53 H54 C55 C56 H57 H58 H59 C60 H61 H62 H63 H64 S1  C2  C3  C4  C5  C6  C7  C8  
C9  S10 C11 H12 C13 C14 H15 C16 C17 C18 H19 C20 H21 H22 H23 C24 C25 C26 C27 H28 
C29 H30 C31 H32 H33 C34 H35 H36 C37 H38 H39 H40 C41 H42 H43 C44 H45 H46 C47 H48 
H49 C50 H51 H52 H53 H54 C55 C56 H57 H58 H59 C60 H61 H62 H63 H64 S1  C2  C3  C4  
C5  C6  C7  C8  C9  S10 C11 H12 C13 C14 H15 C16 C17 C18 H19 C20 H21 H22 H23 C24 
C25 C26 C27 H28 C29 H30 C31 H32 H33 C34 H35 H36 C37 H38 H39 H40 C41 H42 H43 C44 
H45 H46 C47 H48 H49 C50 H51 H52 H53 H54 C55 C56 H57 H58 H59 C60 H61 H62 H63 H64 
S1  C2  C3  C4  C5  C6  C7  C8  C9  S10 C11 H12 C13 C14 H15 C16 C17 C18 H19 C20 
H21 H22 H23 C24 C25 C26 C27 H28 C29 H30 C31 H32 H33 C34 H35 H36 C37 H38 H39 H40 
C41 H42 H43 C44 H45 H46 C47 H48 H49 C50 H51 H52 H53 H54 C55 C56 H57 H58 H59 C60 
H61 H62 H63 H64 S1  C2  C3  C4  C5  C6  C7  C8  C9  S10 C11 H12 C13 C14 H15 C16 
C17 C18 H19 C20 H21 H22 H23 C24 C25 C26 C27 H28 C29 H30 C31 H32 H33 C34 H35 H36 
C37 H38 H39 H40 C41 H42 H43 C44 H45 H46 C47 H48 H49 C50 H51 H52 H53 H54 C55 C56 
H57 H58 H59 C60 H61 H62 H63 H64 S1  C2  C3  C4  C5  C6  C7  C8  C9  S10 C11 H12 
C13 C14 H15 C16 C17 C18 H19 C20 H21 H22 H23 C24 C25 C26 C27 H28 C29 H30 C31 H32 
H33 C34 H35 H36 C37 H38 H39 H40 C41 H42 H43 C44 H45 H46 C47 H48 H49 C50 H51 H52 
H53 H54 C55 C56 H57 H58 H59 C60 H61 H62 H63 H64 S1  C2  C3  C4  C5  C6  C7  C8  
C9  S10 C11 H12 C13 C14 H15 C16 C17 C18 H19 C20 H21 H22 H23 C24 C25 C26 C27 H28 
C29 H30 C31 H32 H33 C34 H35 H36 C37 H38 H39 H40 C41 H42 H43 C44 H45 H46 C47 H48 
H49 C50 H51 H52 H53 H54 C55 C56 H57 H58 H59 C60 H61 H62 H63 H64 S1  C2  C3  C4  
C5  C6  C7  C8  C9  S10 C11 H12 C13 C14 H15 C16 C17 C18 H19 C20 H21 H22 H23 C24 
C25 C26 C27 H28 C29 H30 C31 H32 H33 C34 H35 H36 C37 H38 H39 H40 C41 H42 H43 C44 
H45 H46 C47 H48 H49 C50 H51 H52 H53 H54 C55 C56 H57 H58 H59 C60 H61 H62 H63 H64 
S1  C2  C3  C4  C5  C6  C7  C8  C9  S10 C11 H12 C13 C14 H15 C16 C17 C18 H19 C20 
H21 H22 H23 C24 C25 C26 C27 H28 C29 H30 C31 H32 H33 C34 H35 H36 C37 H38 H39 H40 
C41 H42 H43 C44 H45 H46 C47 H48 H49 C50 H51 H52 H53 H54 C55 C56 H57 H58 H59 C60 
H61 H62 H63 H64 S1  C2  C3  C4  C5  C6  C7  C8  C9  S10 C11 H12 C13 C14 H15 C16 
C17 C18 H19 C20 H21 H22 H23 C24 C25 C26 C27 H28 C29 H30 C31 H32 H33 C34 H35 H36 
C37 H38 H39 H40 C41 H42 H43 C44 H45 H46 C47 H48 H49 C50 H51 H52 H53 H54 C55 C56 
H57 H58 H59 C60 H61 H62 H63 H64 S1  C2  C3  C4  C5  C6  C7  C8  C9  S10 C11 H12 
C13 C14 H15 C16 C17 C18 H19 C20 H21 H22 H23 C24 C25 C26 C27 H28 C29 H30 C31 H32 
H33 C34 H35 H36 C37 H38 H39 H40 C41 H42 H43 C44 H45 H46 C47 H48 H49 C50 H51 H52 
H53 H54 C55 C56 H57 H58 H59 C60 H61 H62 H63 H64 S1  C2  C3  C4  C5  C6  C7  C8  
C9  S10 C11 H12 C13 C14 H15 C16 C17 C18 H19 C20 H21 H22 H23 C24 C25 C26 C27 H28 
C29 H30 C31 H32 H33 C34 H35 H36 C37 H38 H39 H40 C41 H42 H43 C44 H45 H46 C47 H48 
H49 C50 H51 H52 H53 H54 C55 C56 H57 H58 H59 C60 H61 H62 H63 H64 S1  C2  C3  C4  
C5  C6  C7  C8  C9  S10 C11 H12 C13 C14 H15 C16 C17 C18 H19 C20 H21 H22 H23 C24 
C25 C26 C27 H28 C29 H30 C31 H32 H33 C34 H35 H36 C37 H38 H39 H40 C41 H42 H43 C44 
H45 H46 C47 H48 H49 C50 H51 H52 H53 H54 C55 C56 H57 H58 H59 C60 H61 H62 H63 H64 
S1  C2  C3  C4  C5  C6  C7  C8  C9  S10 C11 H12 C13 C14 H15 C16 C17 C18 H19 C20 
H21 H22 H23 C24 C25 C26 C27 H28 C29 H30 C31 H32 H33 C34 H35 H36 C37 H38 H39 H40 
C41 H42 H43 C44 H45 H46 C47 H48 H49 C50 H51 H52 H53 H54 C55 C56 H57 H58 H59 C60 
H61 H62 H63 H64 S1  C2  C3  C4  C5  C6  C7  C8  C9  S10 C11 H12 C13 C14 H15 C16 
C17 C18 H19 C20 H21 H22 H23 C24 C25 C26 C27 H28 C29 H30 C31 H32 H33 C34 H35 H36 
C37 H38 H39 H40 C41 H42 H43 C44 H45 H46 C47 H48 H49 C50 H51 H52 H53 H54 C55 C56 
H57 H58 H59 C60 H61 H62 H63 H64 S1  C2  C3  C4  C5  C6  C7  C8  C9  S10 C11 H12 
C13 C14 H15 C16 C17 C18 H19 C20 H21 H22 H23 C24 C25 C26 C27 H28 C29 H30 C31 H32 
H33 C34 H35 H36 C37 H38 H39 H40 C41 H42 H43 C44 H45 H46 C47 H48 H49 C50 H51 H52 
H53 H54 C55 C56 H57 H58 H59 C60 H61 H62 H63 H64 S1  C2  C3  C4  C5  C6  C7  C8  
C9  S10 C11 H12 C13 C14 H15 C16 C17 C18 H19 C20 H21 H22 H23 C24 C25 C26 C27 H28 
C29 H30 C31 H32 H33 C34 H35 H36 C37 H38 H39 H40 C41 H42 H43 C44 H45 H46 C47 H48 
H49 C50 H51 H52 H53 H54 C55 C56 H57 H58 H59 C60 H61 H62 H63 H64 S1  C2  C3  C4  
C5  C6  C7  C8  C9  S10 C11 H12 C13 C14 H15 C16 C17 C18 H19 C20 H21 H22 H23 C24 
C25 C26 C27 H28 C29 H30 C31 H32 H33 C34 H35 H36 C37 H38 H39 H40 C41 H42 H43 C44 
H45 H46 C47 H48 H49 C50 H51 H52 H53 H54 C55 C56 H57 H58 H59 C60 H61 H62 H63 H64 
S1  C2  C3  C4  C5  C6  C7  C8  C9  S10 C11 H12 C13 C14 H15 C16 C17 C18 H19 C20 
H21 H22 H23 C24 C25 C26 C27 H28 C29 H30 C31 H32 H33 C34 H35 H36 C37 H38 H39 H40 
C41 H42 H43 C44 H45 H46 C47 H48 H49 C50 H51 H52 H53 H54 C55 C56 H57 H58 H59 C60 
H61 H62 H63 H64 S1  C2  C3  C4  C5  C6  C7  C8  C9  S10 C11 H12 C13 C14 H15 C16 
C17 C18 H19 C20 H21 H22 H23 C24 C25 C26 C27 H28 C29 H30 C31 H32 H33 C34 H35 H36 
C37 H38 H39 H40 C41 H42 H43 C44 H45 H46 C47 H48 H49 C50 H51 H52 H53 H54 C55 C56 
H57 H58 H59 C60 H61 H62 H63 H64 S1  C2  C3  C4  C5  C6  C7  C8  C9  S10 C11 H12 
C13 C14 H15 C16 C17 C18 H19 C20 H21 H22 H23 C24 C25 C26 C27 H28 C29 H30 C31 H32 
H33 C34 H35 H36 C37 H38 H39 H40 C41 H42 H43 C44 H45 H46 C47 H48 H49 C50 H51 H52 
H53 H54 C55 C56 H57 H58 H59 C60 H61 H62 H63 H64 S1  C2  C3  C4  C5  C6  C7  C8  
C9  S10 C11 H12 C13 C14 H15 C16 C17 C18 H19 C20 H21 H22 H23 C24 C25 C26 C27 H28 
C29 H30 C31 H32 H33 C34 H35 H36 C37 H38 H39 H40 C41 H42 H43 C44 H45 H46 C47 H48 
H49 C50 H51 H52 H53 H54 C55 C56 H57 H58 H59 C60 H61 H62 H63 H64 S1  C2  C3  C4  
C5  C6  C7  C8  C9  S10 C11 H12 C13 C14 H15 C16 C17 C18 H19 C20 H21 H22 H23 C24 
C25 C26 C27 H28 C29 H30 C31 H32 H33 C34 H35 H36 C37 H38 H39 H40 C41 H42 H43 C44 
H45 H46 C47 H48 H49 C50 H51 H52 H53 H54 C55 C56 H57 H58 H59 C60 H61 H62 H63 H64 
S1  C2  C3  C4  C5  C6  C7  C8  C9  S10 C11 H12 C13 C14 H15 C16 C17 C18 H19 C20 
H21 H22 H23 C24 C25 C26 C27 H28 C29 H30 C31 H32 H33 C34 H35 H36 C37 H38 H39 H40 
C41 H42 H43 C44 H45 H46 C47 H48 H49 C50 H51 H52 H53 H54 C55 C56 H57 H58 H59 C60 
H61 H62 H63 H64 S1  C2  C3  C4  C5  C6  C7  C8  C9  S10 C11 H12 C13 C14 H15 C16 
C17 C18 H19 C20 H21 H22 H23 C24 C25 C26 C27 H28 C29 H30 C31 H32 H33 C34 H35 H36 
C37 H38 H39 H40 C41 H42 H43 C44 H45 H46 C47 H48 H49 C50 H51 H52 H53 H54 C55 C56 
H57 H58 H59 C60 H61 H62 H63 H64 S1  C2  C3  C4  C5  C6  C7  C8  C9  S10 C11 H12 
C13 C14 H15 C16 C17 C18 H19 C20 H21 H22 H23 C24 C25 C26 C27 H28 C29 H30 C31 H32 
H33 C34 H35 H36 C37 H38 H39 H40 C41 H42 H43 C44 H45 H46 C47 H48 H49 C50 H51 H52 
H53 H54 C55 C56 H57 H58 H59 C60 H61 H62 H63 H64 S1  C2  C3  C4  C5  C6  C7  C8  
C9  S10 C11 H12 C13 C14 H15 C16 C17 C18 H19 C20 H21 H22 H23 C24 C25 C26 C27 H28 
C29 H30 C31 H32 H33 C34 H35 H36 C37 H38 H39 H40 C41 H42 H43 C44 H45 H46 C47 H48 
H49 C50 H51 H52 H53 H54 C55 C56 H57 H58 H59 C60 H61 H62 H63 H64 S1  C2  C3  C4  
C5  C6  C7  C8  C9  S10 C11 H12 C13 C14 H15 C16 C17 C18 H19 C20 H21 H22 H23 C24 
C25 C26 C27 H28 C29 H30 C31 H32 H33 C34 H35 H36 C37 H38 H39 H40 C41 H42 H43 C44 
H45 H46 C47 H48 H49 C50 H51 H52 H53 H54 C55 C56 H57 H58 H59 C60 H61 H62 H63 H64 
S1  C2  C3  C4  C5  C6  C7  C8  C9  S10 C11 H12 C13 C14 H15 C16 C17 C18 H19 C20 
H21 H22 H23 C24 C25 C26 C27 H28 C29 H30 C31 H32 H33 C34 H35 H36 C37 H38 H39 H40 
C41 H42 H43 C44 H45 H46 C47 H48 H49 C50 H51 H52 H53 H54 C55 C56 H57 H58 H59 C60 
H61 H62 H63 H64 S1  C2  C3  C4  C5  C6  C7  C8  C9  S10 C11 H12 C13 C14 H15 C16 
C17 C18 H19 C20 H21 H22 H23 C24 C25 C26 C27 H28 C29 H30 C31 H32 H33 C34 H35 H36 
C37 H38 H39 H40 C41 H42 H43 C44 H45 H46 C47 H48 H49 C50 H51 H52 H53 H54 C55 C56 
H57 H58 H59 C60 H61 H62 H63 H64 S1  C2  C3  C4  C5  C6  C7  C8  C9  S10 C11 H12 
C13 C14 H15 C16 C17 C18 H19 C20 H21 H22 H23 C24 C25 C26 C27 H28 C29 H30 C31 H32 
H33 C34 H35 H36 C37 H38 H39 H40 C41 H42 H43 C44 H45 H46 C47 H48 H49 C50 H51 H52 
H53 H54 C55 C56 H57 H58 H59 C60 H61 H62 H63 H64 S1  C2  C3  C4  C5  C6  C7  C8  
C9  S10 C11 H12 C13 C14 H15 C16 C17 C18 H19 C20 H21 H22 H23 C24 C25 C26 C27 H28 
C29 H30 C31 H32 H33 C34 H35 H36 C37 H38 H39 H40 C41 H42 H43 C44 H45 H46 C47 H48 
H49 C50 H51 H52 H53 H54 C55 C56 H57 H58 H59 C60 H61 H62 H63 H64 S1  C2  C3  C4  
C5  C6  C7  C8  C9  S10 C11 H12 C13 C14 H15 C16 C17 C18 H19 C20 H21 H22 H23 C24 
C25 C26 C27 H28 C29 H30 C31 H32 H33 C34 H35 H36 C37 H38 H39 H40 C41 H42 H43 C44 
H45 H46 C47 H48 H49 C50 H51 H52 H53 H54 C55 C56 H57 H58 H59 C60 H61 H62 H63 H64 
S1  C2  C3  C4  C5  C6  C7  C8  C9  S10 C11 H12 C13 C14 H15 C16 C17 C18 H19 C20 
H21 H22 H23 C24 C25 C26 C27 H28 C29 H30 C31 H32 H33 C34 H35 H36 C37 H38 H39 H40 
C41 H42 H43 C44 H45 H46 C47 H48 H49 C50 H51 H52 H53 H54 C55 C56 H57 H58 H59 C60 
H61 H62 H63 H64 S1  C2  C3  C4  C5  C6  C7  C8  C9  S10 C11 H12 C13 C14 H15 C16 
C17 C18 H19 C20 H21 H22 H23 C24 C25 C26 C27 H28 C29 H30 C31 H32 H33 C34 H35 H36 
C37 H38 H39 H40 C41 H42 H43 C44 H45 H46 C47 H48 H49 C50 H51 H52 H53 H54 C55 C56 
H57 H58 H59 C60 H61 H62 H63 H64 S1  C2  C3  C4  C5  C6  C7  C8  C9  S10 C11 H12 
C13 C14 H15 C16 C17 C18 H19 C20 H21 H22 H23 C24 C25 C26 C27 H28 C29 H30 C31 H32 
H33 C34 H35 H36 C37 H38 H39 H40 C41 H42 H43 C44 H45 H46 C47 H48 H49 C50 H51 H52 
H53 H54 C55 C56 H57 H58 H59 C60 H61 H62 H63 H64 S1  C2  C3  C4  C5  C6  C7  C8  
C9  S10 C11 H12 C13 C14 H15 C16 C17 C18 H19 C20 H21 H22 H23 C24 C25 C26 C27 H28 
C29 H30 C31 H32 H33 C34 H35 H36 C37 H38 H39 H40 C41 H42 H43 C44 H45 H46 C47 H48 
H49 C50 H51 H52 H53 H54 C55 C56 H57 H58 H59 C60 H61 H62 H63 H64 S1  C2  C3  C4  
C5  C6  C7  C8  C9  S10 C11 H12 C13 C14 H15 C16 C17 C18 H19 C20 H21 H22 H23 C24 
C25 C26 C27 H28 C29 H30 C31 H32 H33 C34 H35 H36 C37 H38 H39 H40 C41 H42 H43 C44 
H45 H46 C47 H48 H49 C50 H51 H52 H53 H54 C55 C56 H57 H58 H59 C60 H61 H62 H63 H64 
S1  C2  C3  C4  C5  C6  C7  C8  C9  S10 C11 H12 C13 C14 H15 C16 C17 C18 H19 C20 
H21 H22 H23 C24 C25 C26 C27 H28 C29 H30 C31 H32 H33 C34 H35 H36 C37 H38 H39 H40 
C41 H42 H43 C44 H45 H46 C47 H48 H49 C50 H51 H52 H53 H54 C55 C56 H57 H58 H59 C60 
H61 H62 H63 H64 S1  C2  C3  C4  C5  C6  C7  C8  C9  S10 C11 H12 C13 C14 H15 C16 
C17 C18 H19 C20 H21 H22 H23 C24 C25 C26 C27 H28 C29 H30 C31 H32 H33 C34 H35 H36 
C37 H38 H39 H40 C41 H42 H43 C44 H45 H46 C47 H48 H49 C50 H51 H52 H53 H54 C55 C56 
H57 H58 H59 C60 H61 H62 H63 H64 S1  C2  C3  C4  C5  C6  C7  C8  C9  S10 C11 H12 
C13 C14 H15 C16 C17 C18 H19 C20 H21 H22 H23 C24 C25 C26 C27 H28 C29 H30 C31 H32 
H33 C34 H35 H36 C37 H38 H39 H40 C41 H42 H43 C44 H45 H46 C47 H48 H49 C50 H51 H52 
H53 H54 C55 C56 H57 H58 H59 C60 H61 H62 H63 H64 S1  C2  C3  C4  C5  C6  C7  C8  
C9  S10 C11 H12 C13 C14 H15 C16 C17 C18 H19 C20 H21 H22 H23 C24 C25 C26 C27 H28 
C29 H30 C31 H32 H33 C34 H35 H36 C37 H38 H39 H40 C41 H42 H43 C44 H45 H46 C47 H48 
H49 C50 H51 H52 H53 H54 C55 C56 H57 H58 H59 C60 H61 H62 H63 H64 S1  C2  C3  C4  
C5  C6  C7  C8  C9  S10 C11 H12 C13 C14 H15 C16 C17 C18 H19 C20 H21 H22 H23 C24 
C25 C26 C27 H28 C29 H30 C31 H32 H33 C34 H35 H36 C37 H38 H39 H40 C41 H42 H43 C44 
H45 H46 C47 H48 H49 C50 H51 H52 H53 H54 C55 C56 H57 H58 H59 C60 H61 H62 H63 H64 
S1  C2  C3  C4  C5  C6  C7  C8  C9  S10 C11 H12 C13 C14 H15 C16 C17 C18 H19 C20 
H21 H22 H23 C24 C25 C26 C27 H28 C29 H30 C31 H32 H33 C34 H35 H36 C37 H38 H39 H40 
C41 H42 H43 C44 H45 H46 C47 H48 H49 C50 H51 H52 H53 H54 C55 C56 H57 H58 H59 C60 
H61 H62 H63 H64 S1  C2  C3  C4  C5  C6  C7  C8  C9  S10 C11 H12 C13 C14 H15 C16 
C17 C18 H19 C20 H21 H22 H23 C24 C25 C26 C27 H28 C29 H30 C31 H32 H33 C34 H35 H36 
C37 H38 H39 H40 C41 H42 H43 C44 H45 H46 C47 H48 H49 C50 H51 H52 H53 H54 C55 C56 
H57 H58 H59 C60 H61 H62 H63 H64 S1  C2  C3  C4  C5  C6  C7  C8  C9  S10 C11 H12 
C13 C14 H15 C16 C17 C18 H19 C20 H21 H22 H23 C24 C25 C26 C27 H28 C29 H30 C31 H32 
H33 C34 H35 H36 C37 H38 H39 H40 C41 H42 H43 C44 H45 H46 C47 H48 H49 C50 H51 H52 
H53 H54 C55 C56 H57 H58 H59 C60 H61 H62 H63 H64 S1  C2  C3  C4  C5  C6  C7  C8  
C9  S10 C11 H12 C13 C14 H15 C16 C17 C18 H19 C20 H21 H22 H23 C24 C25 C26 C27 H28 
C29 H30 C31 H32 H33 C34 H35 H36 C37 H38 H39 H40 C41 H42 H43 C44 H45 H46 C47 H48 
H49 C50 H51 H52 H53 H54 C55 C56 H57 H58 H59 C60 H61 H62 H63 H64 S1  C2  C3  C4  
C5  C6  C7  C8  C9  S10 C11 H12 C13 C14 H15 C16 C17 C18 H19 C20 H21 H22 H23 C24 
C25 C26 C27 H28 C29 H30 C31 H32 H33 C34 H35 H36 C37 H38 H39 H40 C41 H42 H43 C44 
H45 H46 C47 H48 H49 C50 H51 H52 H53 H54 C55 C56 H57 H58 H59 C60 H61 H62 H63 H64 
S1  C2  C3  C4  C5  C6  C7  C8  C9  S10 C11 H12 C13 C14 H15 C16 C17 C18 H19 C20 
H21 H22 H23 C24 C25 C26 C27 H28 C29 H30 C31 H32 H33 C34 H35 H36 C37 H38 H39 H40 
C41 H42 H43 C44 H45 H46 C47 H48 H49 C50 H51 H52 H53 H54 C55 C56 H57 H58 H59 C60 
H61 H62 H63 H64 S1  C2  C3  C4  C5  C6  C7  C8  C9  S10 C11 H12 C13 C14 H15 C16 
C17 C18 H19 C20 H21 H22 H23 C24 C25 C26 C27 H28 C29 H30 C31 H32 H33 C34 H35 H36 
C37 H38 H39 H40 C41 H42 H43 C44 H45 H46 C47 H48 H49 C50 H51 H52 H53 H54 C55 C56 
H57 H58 H59 C60 H61 H62 H63 H64 S1  C2  C3  C4  C5  C6  C7  C8  C9  S10 C11 H12 
C13 C14 H15 C16 C17 C18 H19 C20 H21 H22 H23 C24 C25 C26 C27 H28 C29 H30 C31 H32 
H33 C34 H35 H36 C37 H38 H39 H40 C41 H42 H43 C44 H45 H46 C47 H48 H49 C50 H51 H52 
H53 H54 C55 C56 H57 H58 H59 C60 H61 H62 H63 H64 S1  C2  C3  C4  C5  C6  C7  C8  
C9  S10 C11 H12 C13 C14 H15 C16 C17 C18 H19 C20 H21 H22 H23 C24 C25 C26 C27 H28 
C29 H30 C31 H32 H33 C34 H35 H36 C37 H38 H39 H40 C41 H42 H43 C44 H45 H46 C47 H48 
H49 C50 H51 H52 H53 H54 C55 C56 H57 H58 H59 C60 H61 H62 H63 H64 S1  C2  C3  C4  
C5  C6  C7  C8  C9  S10 C11 H12 C13 C14 H15 C16 C17 C18 H19 C20 H21 H22 H23 C24 
C25 C26 C27 H28 C29 H30 C31 H32 H33 C34 H35 H36 C37 H38 H39 H40 C41 H42 H43 C44 
H45 H46 C47 H48 H49 C50 H51 H52 H53 H54 C55 C56 H57 H58 H59 C60 H61 H62 H63 H64 
S1  C2  C3  C4  C5  C6  C7  C8  C9  S10 C11 H12 C13 C14 H15 C16 C17 C18 H19 C20 
H21 H22 H23 C24 C25 C26 C27 H28 C29 H30 C31 H32 H33 C34 H35 H36 C37 H38 H39 H40 
C41 H42 H43 C44 H45 H46 C47 H48 H49 C50 H51 H52 H53 H54 C55 C56 H57 H58 H59 C60 
H61 H62 H63 H64 S1  C2  C3  C4  C5  C6  C7  C8  C9  S10 C11 H12 C13 C14 H15 C16 
C17 C18 H19 C20 H21 H22 H23 C24 C25 C26 C27 H28 C29 H30 C31 H32 H33 C34 H35 H36 
C37 H38 H39 H40 C41 H42 H43 C44 H45 H46 C47 H48 H49 C50 H51 H52 H53 H54 C55 C56 
H57 H58 H59 C60 H61 H62 H63 H64 S1  C2  C3  C4  C5  C6  C7  C8  C9  S10 C11 H12 
C13 C14 H15 C16 C17 C18 H19 C20 H21 H22 H23 C24 C25 C26 C27 H28 C29 H30 C31 H32 
H33 C34 H35 H36 C37 H38 H39 H40 C41 H42 H43 C44 H45 H46 C47 H48 H49 C50 H51 H52 
H53 H54 C55 C56 H57 H58 H59 C60 H61 H62 H63 H64 S1  C2  C3  C4  C5  C6  C7  C8  
C9  S10 C11 H12 C13 C14 H15 C16 C17 C18 H19 C20 H21 H22 H23 C24 C25 C26 C27 H28 
C29 H30 C31 H32 H33 C34 H35 H36 C37 H38 H39 H40 C41 H42 H43 C44 H45 H46 C47 H48 
H49 C50 H51 H52 H53 H54 C55 C56 H57 H58 H59 C60 H61 H62 H63 H64 S1  C2  C3  C4  
C5  C6  C7  C8  C9  S10 C11 H12 C13 C14 H15 C16 C17 C18 H19 C20 H21 H22 H23 C24 
C25 C26 C27 H28 C29 H30 C31 H32 H33 C34 H35 H36 C37 H38 H39 H40 C41 H42 H43 C44 
H45 H46 C47 H48 H49 C50 H51 H52 H53 H54 C55 C56 H57 H58 H59 C60 H61 H62 H63 H64 
S1  C2  C3  C4  C5  C6  C7  C8  C9  S10 C11 H12 C13 C14 H15 C16 C17 C18 H19 C20 
H21 H22 H23 C24 C25 C26 C27 H28 C29 H30 C31 H32 H33 C34 H35 H36 C37 H38 H39 H40 
C41 H42 H43 C44 H45 H46 C47 H48 H49 C50 H51 H52 H53 H54 C55 C56 H57 H58 H59 C60 
H61 H62 H63 H64 S1  C2  C3  C4  C5  C6  C7  C8  C9  S10 C11 H12 C13 C14 H15 C16 
C17 C18 H19 C20 H21 H22 H23 C24 C25 C26 C27 H28 C29 H30 C31 H32 H33 C34 H35 H36 
C37 H38 H39 H40 C41 H42 H43 C44 H45 H46 C47 H48 H49 C50 H51 H52 H53 H54 C55 C56 
H57 H58 H59 C60 H61 H62 H63 H64 S1  C2  C3  C4  C5  C6  C7  C8  C9  S10 C11 H12 
C13 C14 H15 C16 C17 C18 H19 C20 H21 H22 H23 C24 C25 C26 C27 H28 C29 H30 C31 H32 
H33 C34 H35 H36 C37 H38 H39 H40 C41 H42 H43 C44 H45 H46 C47 H48 H49 C50 H51 H52 
H53 H54 C55 C56 H57 H58 H59 C60 H61 H62 H63 H64 S1  C2  C3  C4  C5  C6  C7  C8  
C9  S10 C11 H12 C13 C14 H15 C16 C17 C18 H19 C20 H21 H22 H23 C24 C25 C26 C27 H28 
C29 H30 C31 H32 H33 C34 H35 H36 C37 H38 H39 H40 C41 H42 H43 C44 H45 H46 C47 H48 
H49 C50 H51 H52 H53 H54 C55 C56 H57 H58 H59 C60 H61 H62 H63 H64 S1  C2  C3  C4  
C5  C6  C7  C8  C9  S10 C11 H12 C13 C14 H15 C16 C17 C18 H19 C20 H21 H22 H23 C24 
C25 C26 C27 H28 C29 H30 C31 H32 H33 C34 H35 H36 C37 H38 H39 H40 C41 H42 H43 C44 
H45 H46 C47 H48 H49 C50 H51 H52 H53 H54 C55 C56 H57 H58 H59 C60 H61 H62 H63 H64 
S1  C2  C3  C4  C5  C6  C7  C8  C9  S10 C11 H12 C13 C14 H15 C16 C17 C18 H19 C20 
H21 H22 H23 C24 C25 C26 C27 H28 C29 H30 C31 H32 H33 C34 H35 H36 C37 H38 H39 H40 
C41 H42 H43 C44 H45 H46 C47 H48 H49 C50 H51 H52 H53 H54 C55 C56 H57 H58 H59 C60 
H61 H62 H63 H64 S1  C2  C3  C4  C5  C6  C7  C8  C9  S10 C11 H12 C13 C14 H15 C16 
C17 C18 H19 C20 H21 H22 H23 C24 C25 C26 C27 H28 C29 H30 C31 H32 H33 C34 H35 H36 
C37 H38 H39 H40 C41 H42 H43 C44 H45 H46 C47 H48 H49 C50 H51 H52 H53 H54 C55 C56 
H57 H58 H59 C60 H61 H62 H63 H64 S1  C2  C3  C4  C5  C6  C7  C8  C9  S10 C11 H12 
C13 C14 H15 C16 C17 C18 H19 C20 H21 H22 H23 C24 C25 C26 C27 H28 C29 H30 C31 H32 
H33 C34 H35 H36 C37 H38 H39 H40 C41 H42 H43 C44 H45 H46 C47 H48 H49 C50 H51 H52 
H53 H54 C55 C56 H57 H58 H59 C60 H61 H62 H63 H64 S1  C2  C3  C4  C5  C6  C7  C8  
C9  S10 C11 H12 C13 C14 H15 C16 C17 C18 H19 C20 H21 H22 H23 C24 C25 C26 C27 H28 
C29 H30 C31 H32 H33 C34 H35 H36 C37 H38 H39 H40 C41 H42 H43 C44 H45 H46 C47 H48 
H49 C50 H51 H52 H53 H54 C55 C56 H57 H58 H59 C60 H61 H62 H63 H64 S1  C2  C3  C4  
C5  C6  C7  C8  C9  S10 C11 H12 C13 C14 H15 C16 C17 C18 H19 C20 H21 H22 H23 C24 
C25 C26 C27 H28 C29 H30 C31 H32 H33 C34 H35 H36 C37 H38 H39 H40 C41 H42 H43 C44 
H45 H46 C47 H48 H49 C50 H51 H52 H53 H54 C55 C56 H57 H58 H59 C60 H61 H62 H63 H64 
S1  C2  C3  C4  C5  C6  C7  C8  C9  S10 C11 H12 C13 C14 H15 C16 C17 C18 H19 C20 
H21 H22 H23 C24 C25 C26 C27 H28 C29 H30 C31 H32 H33 C34 H35 H36 C37 H38 H39 H40 
C41 H42 H43 C44 H45 H46 C47 H48 H49 C50 H51 H52 H53 H54 C55 C56 H57 H58 H59 C60 
H61 H62 H63 H64 S1  C2  C3  C4  C5  C6  C7  C8  C9  S10 C11 H12 C13 C14 H15 C16 
C17 C18 H19 C20 H21 H22 H23 C24 C25 C26 C27 H28 C29 H30 C31 H32 H33 C34 H35 H36 
C37 H38 H39 H40 C41 H42 H43 C44 H45 H46 C47 H48 H49 C50 H51 H52 H53 H54 C55 C56 
H57 H58 H59 C60 H61 H62 H63 H64 S1  C2  C3  C4  C5  C6  C7  C8  C9  S10 C11 H12 
C13 C14 H15 C16 C17 C18 H19 C20 H21 H22 H23 C24 C25 C26 C27 H28 C29 H30 C31 H32 
H33 C34 H35 H36 C37 H38 H39 H40 C41 H42 H43 C44 H45 H46 C47 H48 H49 C50 H51 H52 
H53 H54 C55 C56 H57 H58 H59 C60 H61 H62 H63 H64 S1  C2  C3  C4  C5  C6  C7  C8  
C9  S10 C11 H12 C13 C14 H15 C16 C17 C18 H19 C20 H21 H22 H23 C24 C25 C26 C27 H28 
C29 H30 C31 H32 H33 C34 H35 H36 C37 H38 H39 H40 C41 H42 H43 C44 H45 H46 C47 H48 
H49 C50 H51 H52 H53 H54 C55 C56 H57 H58 H59 C60 H61 H62 H63 H64 S1  C2  C3  C4  
C5  C6  C7  C8  C9  S10 C11 H12 C13 C14 H15 C16 C17 C18 H19 C20 H21 H22 H23 C24 
C25 C26 C27 H28 C29 H30 C31 H32 H33 C34 H35 H36 C37 H38 H39 H40 C41 H42 H43 C44 
H45 H46 C47 H48 H49 C50 H51 H52 H53 H54 C55 C56 H57 H58 H59 C60 H61 H62 H63 H64 
S1  C2  C3  C4  C5  C6  C7  C8  C9  S10 C11 H12 C13 C14 H15 C16 C17 C18 H19 C20 
H21 H22 H23 C24 C25 C26 C27 H28 C29 H30 C31 H32 H33 C34 H35 H36 C37 H38 H39 H40 
C41 H42 H43 C44 H45 H46 C47 H48 H49 C50 H51 H52 H53 H54 C55 C56 H57 H58 H59 C60 
H61 H62 H63 H64 S1  C2  C3  C4  C5  C6  C7  C8  C9  S10 C11 H12 C13 C14 H15 C16 
C17 C18 H19 C20 H21 H22 H23 C24 C25 C26 C27 H28 C29 H30 C31 H32 H33 C34 H35 H36 
C37 H38 H39 H40 C41 H42 H43 C44 H45 H46 C47 H48 H49 C50 H51 H52 H53 H54 C55 C56 
H57 H58 H59 C60 H61 H62 H63 H64 S1  C2  C3  C4  C5  C6  C7  C8  C9  S10 C11 H12 
C13 C14 H15 C16 C17 C18 H19 C20 H21 H22 H23 C24 C25 C26 C27 H28 C29 H30 C31 H32 
H33 C34 H35 H36 C37 H38 H39 H40 C41 H42 H43 C44 H45 H46 C47 H48 H49 C50 H51 H52 
H53 H54 C55 C56 H57 H58 H59 C60 H61 H62 H63 H64 S1  C2  C3  C4  C5  C6  C7  C8  
C9  S10 C11 H12 C13 C14 H15 C16 C17 C18 H19 C20 H21 H22 H23 C24 C25 C26 C27 H28 
C29 H30 C31 H32 H33 C34 H35 H36 C37 H38 H39 H40 C41 H42 H43 C44 H45 H46 C47 H48 
H49 C50 H51 H52 H53 H54 C55 C56 H57 H58 H59 C60 H61 H62 H63 H64 S1  C2  C3  C4  
C5  C6  C7  C8  C9  S10 C11 H12 C13 C14 H15 C16 C17 C18 H19 C20 H21 H22 H23 C24 
C25 C26 C27 H28 C29 H30 C31 H32 H33 C34 H35 H36 C37 H38 H39 H40 C41 H42 H43 C44 
H45 H46 C47 H48 H49 C50 H51 H52 H53 H54 C55 C56 H57 H58 H59 C60 H61 H62 H63 H64 
S1  C2  C3  C4  C5  C6  C7  C8  C9  S10 C11 H12 C13 C14 H15 C16 C17 C18 H19 C20 
H21 H22 H23 C24 C25 C26 C27 H28 C29 H30 C31 H32 H33 C34 H35 H36 C37 H38 H39 H40 
C41 H42 H43 C44 H45 H46 C47 H48 H49 C50 H51 H52 H53 H54 C55 C56 H57 H58 H59 C60 
H61 H62 H63 H64 S1  C2  C3  C4  C5  C6  C7  C8  C9  S10 C11 H12 C13 C14 H15 C16 
C17 C18 H19 C20 H21 H22 H23 C24 C25 C26 C27 H28 C29 H30 C31 H32 H33 C34 H35 H36 
C37 H38 H39 H40 C41 H42 H43 C44 H45 H46 C47 H48 H49 C50 H51 H52 H53 H54 C55 C56 
H57 H58 H59 C60 H61 H62 H63 H64 S1  C2  C3  C4  C5  C6  C7  C8  C9  S10 C11 H12 
C13 C14 H15 C16 C17 C18 H19 C20 H21 H22 H23 C24 C25 C26 C27 H28 C29 H30 C31 H32 
H33 C34 H35 H36 C37 H38 H39 H40 C41 H42 H43 C44 H45 H46 C47 H48 H49 C50 H51 H52 
H53 H54 C55 C56 H57 H58 H59 C60 H61 H62 H63 H64 S1  C2  C3  C4  C5  C6  C7  C8  
C9  S10 C11 H12 C13 C14 H15 C16 C17 C18 H19 C20 H21 H22 H23 C24 C25 C26 C27 H28 
C29 H30 C31 H32 H33 C34 H35 H36 C37 H38 H39 H40 C41 H42 H43 C44 H45 H46 C47 H48 
H49 C50 H51 H52 H53 H54 C55 C56 H57 H58 H59 C60 H61 H62 H63 H64 S1  C2  C3  C4  
C5  C6  C7  C8  C9  S10 C11 H12 C13 C14 H15 C16 C17 C18 H19 C20 H21 H22 H23 C24 
C25 C26 C27 H28 C29 H30 C31 H32 H33 C34 H35 H36 C37 H38 H39 H40 C41 H42 H43 C44 
H45 H46 C47 H48 H49 C50 H51 H52 H53 H54 C55 C56 H57 H58 H59 C60 H61 H62 H63 H64 
S1  C2  C3  C4  C5  C6  C7  C8  C9  S10 C11 H12 C13 C14 H15 C16 C17 C18 H19 C20 
H21 H22 H23 C24 C25 C26 C27 H28 C29 H30 C31 H32 H33 C34 H35 H36 C37 H38 H39 H40 
C41 H42 H43 C44 H45 H46 C47 H48 H49 C50 H51 H52 H53 H54 C55 C56 H57 H58 H59 C60 
H61 H62 H63 H64 S1  C2  C3  C4  C5  C6  C7  C8  C9  S10 C11 H12 C13 C14 H15 C16 
C17 C18 H19 C20 H21 H22 H23 C24 C25 C26 C27 H28 C29 H30 C31 H32 H33 C34 H35 H36 
C37 H38 H39 H40 C41 H42 H43 C44 H45 H46 C47 H48 H49 C50 H51 H52 H53 H54 C55 C56 
H57 H58 H59 C60 H61 H62 H63 H64 S1  C2  C3  C4  C5  C6  C7  C8  C9  S10 C11 H12 
C13 C14 H15 C16 C17 C18 H19 C20 H21 H22 H23 C24 C25 C26 C27 H28 C29 H30 C31 H32 
H33 C34 H35 H36 C37 H38 H39 H40 C41 H42 H43 C44 H45 H46 C47 H48 H49 C50 H51 H52 
H53 H54 C55 C56 H57 H58 H59 C60 H61 H62 H63 H64 S1  C2  C3  C4  C5  C6  C7  C8  
C9  S10 C11 H12 C13 C14 H15 C16 C17 C18 H19 C20 H21 H22 H23 C24 C25 C26 C27 H28 
C29 H30 C31 H32 H33 C34 H35 H36 C37 H38 H39 H40 C41 H42 H43 C44 H45 H46 C47 H48 
H49 C50 H51 H52 H53 H54 C55 C56 H57 H58 H59 C60 H61 H62 H63 H64 S1  C2  C3  C4  
C5  C6  C7  C8  C9  S10 C11 H12 C13 C14 H15 C16 C17 C18 H19 C20 H21 H22 H23 C24 
C25 C26 C27 H28 C29 H30 C31 H32 H33 C34 H35 H36 C37 H38 H39 H40 C41 H42 H43 C44 
H45 H46 C47 H48 H49 C50 H51 H52 H53 H54 C55 C56 H57 H58 H59 C60 H61 H62 H63 H64 
S1  C2  C3  C4  C5  C6  C7  C8  C9  S10 C11 H12 C13 C14 H15 C16 C17 C18 H19 C20 
H21 H22 H23 C24 C25 C26 C27 H28 C29 H30 C31 H32 H33 C34 H35 H36 C37 H38 H39 H40 
C41 H42 H43 C44 H45 H46 C47 H48 H49 C50 H51 H52 H53 H54 C55 C56 H57 H58 H59 C60 
H61 H62 H63 H64 S1  C2  C3  C4  C5  C6  C7  C8  C9  S10 C11 H12 C13 C14 H15 C16 
C17 C18 H19 C20 H21 H22 H23 C24 C25 C26 C27 H28 C29 H30 C31 H32 H33 C34 H35 H36 
C37 H38 H39 H40 C41 H42 H43 C44 H45 H46 C47 H48 H49 C50 H51 H52 H53 H54 C55 C56 
H57 H58 H59 C60 H61 H62 H63 H64 S1  C2  C3  C4  C5  C6  C7  C8  C9  S10 C11 H12 
C13 C14 H15 C16 C17 C18 H19 C20 H21 H22 H23 C24 C25 C26 C27 H28 C29 H30 C31 H32 
H33 C34 H35 H36 C37 H38 H39 H40 C41 H42 H43 C44 H45 H46 C47 H48 H49 C50 H51 H52 
H53 H54 C55 C56 H57 H58 H59 C60 H61 H62 H63 H64 S1  C2  C3  C4  C5  C6  C7  C8  
C9  S10 C11 H12 C13 C14 H15 C16 C17 C18 H19 C20 H21 H22 H23 C24 C25 C26 C27 H28 
C29 H30 C31 H32 H33 C34 H35 H36 C37 H38 H39 H40 C41 H42 H43 C44 H45 H46 C47 H48 
H49 C50 H51 H52 H53 H54 C55 C56 H57 H58 H59 C60 H61 H62 H63 H64 S1  C2  C3  C4  
C5  C6  C7  C8  C9  S10 C11 H12 C13 C14 H15 C16 C17 C18 H19 C20 H21 H22 H23 C24 
C25 C26 C27 H28 C29 H30 C31 H32 H33 C34 H35 H36 C37 H38 H39 H40 C41 H42 H43 C44 
H45 H46 C47 H48 H49 C50 H51 H52 H53 H54 C55 C56 H57 H58 H59 C60 H61 H62 H63 H64 
S1  C2  C3  C4  C5  C6  C7  C8  C9  S10 C11 H12 C13 C14 H15 C16 C17 C18 H19 C20 
H21 H22 H23 C24 C25 C26 C27 H28 C29 H30 C31 H32 H33 C34 H35 H36 C37 H38 H39 H40 
C41 H42 H43 C44 H45 H46 C47 H48 H49 C50 H51 H52 H53 H54 C55 C56 H57 H58 H59 C60 
H61 H62 H63 H64 S1  C2  C3  C4  C5  C6  C7  C8  C9  S10 C11 H12 C13 C14 H15 C16 
C17 C18 H19 C20 H21 H22 H23 C24 C25 C26 C27 H28 C29 H30 C31 H32 H33 C34 H35 H36 
C37 H38 H39 H40 C41 H42 H43 C44 H45 H46 C47 H48 H49 C50 H51 H52 H53 H54 C55 C56 
H57 H58 H59 C60 H61 H62 H63 H64 S1  C2  C3  C4  C5  C6  C7  C8  C9  S10 C11 H12 
C13 C14 H15 C16 C17 C18 H19 C20 H21 H22 H23 C24 C25 C26 C27 H28 C29 H30 C31 H32 
H33 C34 H35 H36 C37 H38 H39 H40 C41 H42 H43 C44 H45 H46 C47 H48 H49 C50 H51 H52 
H53 H54 C55 C56 H57 H58 H59 C60 H61 H62 H63 H64 S1  C2  C3  C4  C5  C6  C7  C8  
C9  S10 C11 H12 C13 C14 H15 C16 C17 C18 H19 C20 H21 H22 H23 C24 C25 C26 C27 H28 
C29 H30 C31 H32 H33 C34 H35 H36 C37 H38 H39 H40 C41 H42 H43 C44 H45 H46 C47 H48 
H49 C50 H51 H52 H53 H54 C55 C56 H57 H58 H59 C60 H61 H62 H63 H64 S1  C2  C3  C4  
C5  C6  C7  C8  C9  S10 C11 H12 C13 C14 H15 C16 C17 C18 H19 C20 H21 H22 H23 C24 
C25 C26 C27 H28 C29 H30 C31 H32 H33 C34 H35 H36 C37 H38 H39 H40 C41 H42 H43 C44 
H45 H46 C47 H48 H49 C50 H51 H52 H53 H54 C55 C56 H57 H58 H59 C60 H61 H62 H63 H64 
S1  C2  C3  C4  C5  C6  C7  C8  C9  S10 C11 H12 C13 C14 H15 C16 C17 C18 H19 C20 
H21 H22 H23 C24 C25 C26 C27 H28 C29 H30 C31 H32 H33 C34 H35 H36 C37 H38 H39 H40 
C41 H42 H43 C44 H45 H46 C47 H48 H49 C50 H51 H52 H53 H54 C55 C56 H57 H58 H59 C60 
H61 H62 H63 H64 S1  C2  C3  C4  C5  C6  C7  C8  C9  S10 C11 H12 C13 C14 H15 C16 
C17 C18 H19 C20 H21 H22 H23 C24 C25 C26 C27 H28 C29 H30 C31 H32 H33 C34 H35 H36 
C37 H38 H39 H40 C41 H42 H43 C44 H45 H46 C47 H48 H49 C50 H51 H52 H53 H54 C55 C56 
H57 H58 H59 C60 H61 H62 H63 H64 S1  C2  C3  C4  C5  C6  C7  C8  C9  S10 C11 H12 
C13 C14 H15 C16 C17 C18 H19 C20 H21 H22 H23 C24 C25 C26 C27 H28 C29 H30 C31 H32 
H33 C34 H35 H36 C37 H38 H39 H40 C41 H42 H43 C44 H45 H46 C47 H48 H49 C50 H51 H52 
H53 H54 C55 C56 H57 H58 H59 C60 H61 H62 H63 H64 S1  C2  C3  C4  C5  C6  C7  C8  
C9  S10 C11 H12 C13 C14 H15 C16 C17 C18 H19 C20 H21 H22 H23 C24 C25 C26 C27 H28 
C29 H30 C31 H32 H33 C34 H35 H36 C37 H38 H39 H40 C41 H42 H43 C44 H45 H46 C47 H48 
H49 C50 H51 H52 H53 H54 C55 C56 H57 H58 H59 C60 H61 H62 H63 H64 S1  C2  C3  C4  
C5  C6  C7  C8  C9  S10 C11 H12 C13 C14 H15 C16 C17 C18 H19 C20 H21 H22 H23 C24 
C25 C26 C27 H28 C29 H30 C31 H32 H33 C34 H35 H36 C37 H38 H39 H40 C41 H42 H43 C44 
H45 H46 C47 H48 H49 C50 H51 H52 H53 H54 C55 C56 H57 H58 H59 C60 H61 H62 H63 H64 
S1  C2  C3  C4  C5  C6  C7  C8  C9  S10 C11 H12 C13 C14 H15 C16 C17 C18 H19 C20 
H21 H22 H23 C24 C25 C26 C27 H28 C29 H30 C31 H32 H33 C34 H35 H36 C37 H38 H39 H40 
C41 H42 H43 C44 H45 H46 C47 H48 H49 C50 H51 H52 H53 H54 C55 C56 H57 H58 H59 C60 
H61 H62 H63 H64 S1  C2  C3  C4  C5  C6  C7  C8  C9  S10 C11 H12 C13 C14 H15 C16 
C17 C18 H19 C20 H21 H22 H23 C24 C25 C26 C27 H28 C29 H30 C31 H32 H33 C34 H35 H36 
C37 H38 H39 H40 C41 H42 H43 C44 H45 H46 C47 H48 H49 C50 H51 H52 H53 H54 C55 C56 
H57 H58 H59 C60 H61 H62 H63 H64 S1  C2  C3  C4  C5  C6  C7  C8  C9  S10 C11 H12 
C13 C14 H15 C16 C17 C18 H19 C20 H21 H22 H23 C24 C25 C26 C27 H28 C29 H30 C31 H32 
H33 C34 H35 H36 C37 H38 H39 H40 C41 H42 H43 C44 H45 H46 C47 H48 H49 C50 H51 H52 
H53 H54 C55 C56 H57 H58 H59 C60 H61 H62 H63 H64 S1  C2  C3  C4  C5  C6  C7  C8  
C9  S10 C11 H12 C13 C14 H15 C16 C17 C18 H19 C20 H21 H22 H23 C24 C25 C26 C27 H28 
C29 H30 C31 H32 H33 C34 H35 H36 C37 H38 H39 H40 C41 H42 H43 C44 H45 H46 C47 H48 
H49 C50 H51 H52 H53 H54 C55 C56 H57 H58 H59 C60 H61 H62 H63 H64 S1  C2  C3  C4  
C5  C6  C7  C8  C9  S10 C11 H12 C13 C14 H15 C16 C17 C18 H19 C20 H21 H22 H23 C24 
C25 C26 C27 H28 C29 H30 C31 H32 H33 C34 H35 H36 C37 H38 H39 H40 C41 H42 H43 C44 
H45 H46 C47 H48 H49 C50 H51 H52 H53 H54 C55 C56 H57 H58 H59 C60 H61 H62 H63 H64 
S1  C2  C3  C4  C5  C6  C7  C8  C9  S10 C11 H12 C13 C14 H15 C16 C17 C18 H19 C20 
H21 H22 H23 C24 C25 C26 C27 H28 C29 H30 C31 H32 H33 C34 H35 H36 C37 H38 H39 H40 
C41 H42 H43 C44 H45 H46 C47 H48 H49 C50 H51 H52 H53 H54 C55 C56 H57 H58 H59 C60 
H61 H62 H63 H64 S1  C2  C3  C4  C5  C6  C7  C8  C9  S10 C11 H12 C13 C14 H15 C16 
C17 C18 H19 C20 H21 H22 H23 C24 C25 C26 C27 H28 C29 H30 C31 H32 H33 C34 H35 H36 
C37 H38 H39 H40 C41 H42 H43 C44 H45 H46 C47 H48 H49 C50 H51 H52 H53 H54 C55 C56 
H57 H58 H59 C60 H61 H62 H63 H64 S1  C2  C3  C4  C5  C6  C7  C8  C9  S10 C11 H12 
C13 C14 H15 C16 C17 C18 H19 C20 H21 H22 H23 C24 C25 C26 C27 H28 C29 H30 C31 H32 
H33 C34 H35 H36 C37 H38 H39 H40 C41 H42 H43 C44 H45 H46 C47 H48 H49 C50 H51 H52 
H53 H54 C55 C56 H57 H58 H59 C60 H61 H62 H63 H64 S1  C2  C3  C4  C5  C6  C7  C8  
C9  S10 C11 H12 C13 C14 H15 C16 C17 C18 H19 C20 H21 H22 H23 C24 C25 C26 C27 H28 
C29 H30 C31 H32 H33 C34 H35 H36 C37 H38 H39 H40 C41 H42 H43 C44 H45 H46 C47 H48 
H49 C50 H51 H52 H53 H54 C55 C56 H57 H58 H59 C60 H61 H62 H63 H64 S1  C2  C3  C4  
C5  C6  C7  C8  C9  S10 C11 H12 C13 C14 H15 C16 C17 C18 H19 C20 H21 H22 H23 C24 
C25 C26 C27 H28 C29 H30 C31 H32 H33 C34 H35 H36 C37 H38 H39 H40 C41 H42 H43 C44 
H45 H46 C47 H48 H49 C50 H51 H52 H53 H54 C55 C56 H57 H58 H59 C60 H61 H62 H63 H64 
S1  C2  C3  C4  C5  C6  C7  C8  C9  S10 C11 H12 C13 C14 H15 C16 C17 C18 H19 C20 
H21 H22 H23 C24 C25 C26 C27 H28 C29 H30 C31 H32 H33 C34 H35 H36 C37 H38 H39 H40 
C41 H42 H43 C44 H45 H46 C47 H48 H49 C50 H51 H52 H53 H54 C55 C56 H57 H58 H59 C60 
H61 H62 H63 H64 S1  C2  C3  C4  C5  C6  C7  C8  C9  S10 C11 H12 C13 C14 H15 C16 
C17 C18 H19 C20 H21 H22 H23 C24 C25 C26 C27 H28 C29 H30 C31 H32 H33 C34 H35 H36 
C37 H38 H39 H40 C41 H42 H43 C44 H45 H46 C47 H48 H49 C50 H51 H52 H53 H54 C55 C56 
H57 H58 H59 C60 H61 H62 H63 H64 S1  C2  C3  C4  C5  C6  C7  C8  C9  S10 C11 H12 
C13 C14 H15 C16 C17 C18 H19 C20 H21 H22 H23 C24 C25 C26 C27 H28 C29 H30 C31 H32 
H33 C34 H35 H36 C37 H38 H39 H40 C41 H42 H43 C44 H45 H46 C47 H48 H49 C50 H51 H52 
H53 H54 C55 C56 H57 H58 H59 C60 H61 H62 H63 H64 S1  C2  C3  C4  C5  C6  C7  C8  
C9  S10 C11 H12 C13 C14 H15 C16 C17 C18 H19 C20 H21 H22 H23 C24 C25 C26 C27 H28 
C29 H30 C31 H32 H33 C34 H35 H36 C37 H38 H39 H40 C41 H42 H43 C44 H45 H46 C47 H48 
H49 C50 H51 H52 H53 H54 C55 C56 H57 H58 H59 C60 H61 H62 H63 H64 S1  C2  C3  C4  
C5  C6  C7  C8  C9  S10 C11 H12 C13 C14 H15 C16 C17 C18 H19 C20 H21 H22 H23 C24 
C25 C26 C27 H28 C29 H30 C31 H32 H33 C34 H35 H36 C37 H38 H39 H40 C41 H42 H43 C44 
H45 H46 C47 H48 H49 C50 H51 H52 H53 H54 C55 C56 H57 H58 H59 C60 H61 H62 H63 H64 
S1  C2  C3  C4  C5  C6  C7  C8  C9  S10 C11 H12 C13 C14 H15 C16 C17 C18 H19 C20 
H21 H22 H23 C24 C25 C26 C27 H28 C29 H30 C31 H32 H33 C34 H35 H36 C37 H38 H39 H40 
C41 H42 H43 C44 H45 H46 C47 H48 H49 C50 H51 H52 H53 H54 C55 C56 H57 H58 H59 C60 
H61 H62 H63 H64 S1  C2  C3  C4  C5  C6  C7  C8  C9  S10 C11 H12 C13 C14 H15 C16 
C17 C18 H19 C20 H21 H22 H23 C24 C25 C26 C27 H28 C29 H30 C31 H32 H33 C34 H35 H36 
C37 H38 H39 H40 C41 H42 H43 C44 H45 H46 C47 H48 H49 C50 H51 H52 H53 H54 C55 C56 
H57 H58 H59 C60 H61 H62 H63 H64 S1  C2  C3  C4  C5  C6  C7  C8  C9  S10 C11 H12 
C13 C14 H15 C16 C17 C18 H19 C20 H21 H22 H23 C24 C25 C26 C27 H28 C29 H30 C31 H32 
H33 C34 H35 H36 C37 H38 H39 H40 C41 H42 H43 C44 H45 H46 C47 H48 H49 C50 H51 H52 
H53 H54 C55 C56 H57 H58 H59 C60 H61 H62 H63 H64 S1  C2  C3  C4  C5  C6  C7  C8  
C9  S10 C11 H12 C13 C14 H15 C16 C17 C18 H19 C20 H21 H22 H23 C24 C25 C26 C27 H28 
C29 H30 C31 H32 H33 C34 H35 H36 C37 H38 H39 H40 C41 H42 H43 C44 H45 H46 C47 H48 
H49 C50 H51 H52 H53 H54 C55 C56 H57 H58 H59 C60 H61 H62 H63 H64 S1  C2  C3  C4  
C5  C6  C7  C8  C9  S10 C11 H12 C13 C14 H15 C16 C17 C18 H19 C20 H21 H22 H23 C24 
C25 C26 C27 H28 C29 H30 C31 H32 H33 C34 H35 H36 C37 H38 H39 H40 C41 H42 H43 C44 
H45 H46 C47 H48 H49 C50 H51 H52 H53 H54 C55 C56 H57 H58 H59 C60 H61 H62 H63 H64 
S1  C2  C3  C4  C5  C6  C7  C8  C9  S10 C11 H12 C13 C14 H15 C16 C17 C18 H19 C20 
H21 H22 H23 C24 C25 C26 C27 H28 C29 H30 C31 H32 H33 C34 H35 H36 C37 H38 H39 H40 
C41 H42 H43 C44 H45 H46 C47 H48 H49 C50 H51 H52 H53 H54 C55 C56 H57 H58 H59 C60 
H61 H62 H63 H64 S1  C2  C3  C4  C5  C6  C7  C8  C9  S10 C11 H12 C13 C14 H15 C16 
C17 C18 H19 C20 H21 H22 H23 C24 C25 C26 C27 H28 C29 H30 C31 H32 H33 C34 H35 H36 
C37 H38 H39 H40 C41 H42 H43 C44 H45 H46 C47 H48 H49 C50 H51 H52 H53 H54 C55 C56 
H57 H58 H59 C60 H61 H62 H63 H64 S1  C2  C3  C4  C5  C6  C7  C8  C9  S10 C11 H12 
C13 C14 H15 C16 C17 C18 H19 C20 H21 H22 H23 C24 C25 C26 C27 H28 C29 H30 C31 H32 
H33 C34 H35 H36 C37 H38 H39 H40 C41 H42 H43 C44 H45 H46 C47 H48 H49 C50 H51 H52 
H53 H54 C55 C56 H57 H58 H59 C60 H61 H62 H63 H64 S1  C2  C3  C4  C5  C6  C7  C8  
C9  S10 C11 H12 C13 C14 H15 C16 C17 C18 H19 C20 H21 H22 H23 C24 C25 C26 C27 H28 
C29 H30 C31 H32 H33 C34 H35 H36 C37 H38 H39 H40 C41 H42 H43 C44 H45 H46 C47 H48 
H49 C50 H51 H52 H53 H54 C55 C56 H57 H58 H59 C60 H61 H62 H63 H64 S1  C2  C3  C4  
C5  C6  C7  C8  C9  S10 C11 H12 C13 C14 H15 C16 C17 C18 H19 C20 H21 H22 H23 C24 
C25 C26 C27 H28 C29 H30 C31 H32 H33 C34 H35 H36 C37 H38 H39 H40 C41 H42 H43 C44 
H45 H46 C47 H48 H49 C50 H51 H52 H53 H54 C55 C56 H57 H58 H59 C60 H61 H62 H63 H64 
S1  C2  C3  C4  C5  C6  C7  C8  C9  S10 C11 H12 C13 C14 H15 C16 C17 C18 H19 C20 
H21 H22 H23 C24 C25 C26 C27 H28 C29 H30 C31 H32 H33 C34 H35 H36 C37 H38 H39 H40 
C41 H42 H43 C44 H45 H46 C47 H48 H49 C50 H51 H52 H53 H54 C55 C56 H57 H58 H59 C60 
H61 H62 H63 H64 S1  C2  C3  C4  C5  C6  C7  C8  C9  S10 C11 H12 C13 C14 H15 C16 
C17 C18 H19 C20 H21 H22 H23 C24 C25 C26 C27 H28 C29 H30 C31 H32 H33 C34 H35 H36 
C37 H38 H39 H40 C41 H42 H43 C44 H45 H46 C47 H48 H49 C50 H51 H52 H53 H54 C55 C56 
H57 H58 H59 C60 H61 H62 H63 H64 S1  C2  C3  C4  C5  C6  C7  C8  C9  S10 C11 H12 
C13 C14 H15 C16 C17 C18 H19 C20 H21 H22 H23 C24 C25 C26 C27 H28 C29 H30 C31 H32 
H33 C34 H35 H36 C37 H38 H39 H40 C41 H42 H43 C44 H45 H46 C47 H48 H49 C50 H51 H52 
H53 H54 C55 C56 H57 H58 H59 C60 H61 H62 H63 H64 S1  C2  C3  C4  C5  C6  C7  C8  
C9  S10 C11 H12 C13 C14 H15 C16 C17 C18 H19 C20 H21 H22 H23 C24 C25 C26 C27 H28 
C29 H30 C31 H32 H33 C34 H35 H36 C37 H38 H39 H40 C41 H42 H43 C44 H45 H46 C47 H48 
H49 C50 H51 H52 H53 H54 C55 C56 H57 H58 H59 C60 H61 H62 H63 H64 S1  C2  C3  C4  
C5  C6  C7  C8  C9  S10 C11 H12 C13 C14 H15 C16 C17 C18 H19 C20 H21 H22 H23 C24 
C25 C26 C27 H28 C29 H30 C31 H32 H33 C34 H35 H36 C37 H38 H39 H40 C41 H42 H43 C44 
H45 H46 C47 H48 H49 C50 H51 H52 H53 H54 C55 C56 H57 H58 H59 C60 H61 H62 H63 H64 
S1  C2  C3  C4  C5  C6  C7  C8  C9  S10 C11 H12 C13 C14 H15 C16 C17 C18 H19 C20 
H21 H22 H23 C24 C25 C26 C27 H28 C29 H30 C31 H32 H33 C34 H35 H36 C37 H38 H39 H40 
C41 H42 H43 C44 H45 H46 C47 H48 H49 C50 H51 H52 H53 H54 C55 C56 H57 H58 H59 C60 
H61 H62 H63 H64 S1  C2  C3  C4  C5  C6  C7  C8  C9  S10 C11 H12 C13 C14 H15 C16 
C17 C18 H19 C20 H21 H22 H23 C24 C25 C26 C27 H28 C29 H30 C31 H32 H33 C34 H35 H36 
C37 H38 H39 H40 C41 H42 H43 C44 H45 H46 C47 H48 H49 C50 H51 H52 H53 H54 C55 C56 
H57 H58 H59 C60 H61 H62 H63 H64 S1  C2  C3  C4  C5  C6  C7  C8  C9  S10 C11 H12 
C13 C14 H15 C16 C17 C18 H19 C20 H21 H22 H23 C24 C25 C26 C27 H28 C29 H30 C31 H32 
H33 C34 H35 H36 C37 H38 H39 H40 C41 H42 H43 C44 H45 H46 C47 H48 H49 C50 H51 H52 
H53 H54 C55 C56 H57 H58 H59 C60 H61 H62 H63 H64 S1  C2  C3  C4  C5  C6  C7  C8  
C9  S10 C11 H12 C13 C14 H15 C16 C17 C18 H19 C20 H21 H22 H23 C24 C25 C26 C27 H28 
C29 H30 C31 H32 H33 C34 H35 H36 C37 H38 H39 H40 C41 H42 H43 C44 H45 H46 C47 H48 
H49 C50 H51 H52 H53 H54 C55 C56 H57 H58 H59 C60 H61 H62 H63 H64 S1  C2  C3  C4  
C5  C6  C7  C8  C9  S10 C11 H12 C13 C14 H15 C16 C17 C18 H19 C20 H21 H22 H23 C24 
C25 C26 C27 H28 C29 H30 C31 H32 H33 C34 H35 H36 C37 H38 H39 H40 C41 H42 H43 C44 
H45 H46 C47 H48 H49 C50 H51 H52 H53 H54 C55 C56 H57 H58 H59 C60 H61 H62 H63 H64 
S1  C2  C3  C4  C5  C6  C7  C8  C9  S10 C11 H12 C13 C14 H15 C16 C17 C18 H19 C20 
H21 H22 H23 C24 C25 C26 C27 H28 C29 H30 C31 H32 H33 C34 H35 H36 C37 H38 H39 H40 
C41 H42 H43 C44 H45 H46 C47 H48 H49 C50 H51 H52 H53 H54 C55 C56 H57 H58 H59 C60 
H61 H62 H63 H64 S1  C2  C3  C4  C5  C6  C7  C8  C9  S10 C11 H12 C13 C14 H15 C16 
C17 C18 H19 C20 H21 H22 H23 C24 C25 C26 C27 H28 C29 H30 C31 H32 H33 C34 H35 H36 
C37 H38 H39 H40 C41 H42 H43 C44 H45 H46 C47 H48 H49 C50 H51 H52 H53 H54 C55 C56 
H57 H58 H59 C60 H61 H62 H63 H64 S1  C2  C3  C4  C5  C6  C7  C8  C9  S10 C11 H12 
C13 C14 H15 C16 C17 C18 H19 C20 H21 H22 H23 C24 C25 C26 C27 H28 C29 H30 C31 H32 
H33 C34 H35 H36 C37 H38 H39 H40 C41 H42 H43 C44 H45 H46 C47 H48 H49 C50 H51 H52 
H53 H54 C55 C56 H57 H58 H59 C60 H61 H62 H63 H64 S1  C2  C3  C4  C5  C6  C7  C8  
C9  S10 C11 H12 C13 C14 H15 C16 C17 C18 H19 C20 H21 H22 H23 C24 C25 C26 C27 H28 
C29 H30 C31 H32 H33 C34 H35 H36 C37 H38 H39 H40 C41 H42 H43 C44 H45 H46 C47 H48 
H49 C50 H51 H52 H53 H54 C55 C56 H57 H58 H59 C60 H61 H62 H63 H64 S1  C2  C3  C4  
C5  C6  C7  C8  C9  S10 C11 H12 C13 C14 H15 C16 C17 C18 H19 C20 H21 H22 H23 C24 
C25 C26 C27 H28 C29 H30 C31 H32 H33 C34 H35 H36 C37 H38 H39 H40 C41 H42 H43 C44 
H45 H46 C47 H48 H49 C50 H51 H52 H53 H54 C55 C56 H57 H58 H59 C60 H61 H62 H63 H64 
S1  C2  C3  C4  C5  C6  C7  C8  C9  S10 C11 H12 C13 C14 H15 C16 C17 C18 H19 C20 
H21 H22 H23 C24 C25 C26 C27 H28 C29 H30 C31 H32 H33 C34 H35 H36 C37 H38 H39 H40 
C41 H42 H43 C44 H45 H46 C47 H48 H49 C50 H51 H52 H53 H54 C55 C56 H57 H58 H59 C60 
H61 H62 H63 H64 S1  C2  C3  C4  C5  C6  C7  C8  C9  S10 C11 H12 C13 C14 H15 C16 
C17 C18 H19 C20 H21 H22 H23 C24 C25 C26 C27 H28 C29 H30 C31 H32 H33 C34 H35 H36 
C37 H38 H39 H40 C41 H42 H43 C44 H45 H46 C47 H48 H49 C50 H51 H52 H53 H54 C55 C56 
H57 H58 H59 C60 H61 H62 H63 H64 S1  C2  C3  C4  C5  C6  C7  C8  C9  S10 C11 H12 
C13 C14 H15 C16 C17 C18 H19 C20 H21 H22 H23 C24 C25 C26 C27 H28 C29 H30 C31 H32 
H33 C34 H35 H36 C37 H38 H39 H40 C41 H42 H43 C44 H45 H46 C47 H48 H49 C50 H51 H52 
H53 H54 C55 C56 H57 H58 H59 C60 H61 H62 H63 H64 S1  C2  C3  C4  C5  C6  C7  C8  
C9  S10 C11 H12 C13 C14 H15 C16 C17 C18 H19 C20 H21 H22 H23 C24 C25 C26 C27 H28 
C29 H30 C31 H32 H33 C34 H35 H36 C37 H38 H39 H40 C41 H42 H43 C44 H45 H46 C47 H48 
H49 C50 H51 H52 H53 H54 C55 C56 H57 H58 H59 C60 H61 H62 H63 H64 S1  C2  C3  C4  
C5  C6  C7  C8  C9  S10 C11 H12 C13 C14 H15 C16 C17 C18 H19 C20 H21 H22 H23 C24 
C25 C26 C27 H28 C29 H30 C31 H32 H33 C34 H35 H36 C37 H38 H39 H40 C41 H42 H43 C44 
H45 H46 C47 H48 H49 C50 H51 H52 H53 H54 C55 C56 H57 H58 H59 C60 H61 H62 H63 H64 
S1  C2  C3  C4  C5  C6  C7  C8  C9  S10 C11 H12 C13 C14 H15 C16 C17 C18 H19 C20 
H21 H22 H23 C24 C25 C26 C27 H28 C29 H30 C31 H32 H33 C34 H35 H36 C37 H38 H39 H40 
C41 H42 H43 C44 H45 H46 C47 H48 H49 C50 H51 H52 H53 H54 C55 C56 H57 H58 H59 C60 
H61 H62 H63 H64 S1  C2  C3  C4  C5  C6  C7  C8  C9  S10 C11 H12 C13 C14 H15 C16 
C17 C18 H19 C20 H21 H22 H23 C24 C25 C26 C27 H28 C29 H30 C31 H32 H33 C34 H35 H36 
C37 H38 H39 H40 C41 H42 H43 C44 H45 H46 C47 H48 H49 C50 H51 H52 H53 H54 C55 C56 
H57 H58 H59 C60 H61 H62 H63 H64 S1  C2  C3  C4  C5  C6  C7  C8  C9  S10 C11 H12 
C13 C14 H15 C16 C17 C18 H19 C20 H21 H22 H23 C24 C25 C26 C27 H28 C29 H30 C31 H32 
H33 C34 H35 H36 C37 H38 H39 H40 C41 H42 H43 C44 H45 H46 C47 H48 H49 C50 H51 H52 
H53 H54 C55 C56 H57 H58 H59 C60 H61 H62 H63 H64 S1  C2  C3  C4  C5  C6  C7  C8  
C9  S10 C11 H12 C13 C14 H15 C16 C17 C18 H19 C20 H21 H22 H23 C24 C25 C26 C27 H28 
C29 H30 C31 H32 H33 C34 H35 H36 C37 H38 H39 H40 C41 H42 H43 C44 H45 H46 C47 H48 
H49 C50 H51 H52 H53 H54 C55 C56 H57 H58 H59 C60 H61 H62 H63 H64 S1  C2  C3  C4  
C5  C6  C7  C8  C9  S10 C11 H12 C13 C14 H15 C16 C17 C18 H19 C20 H21 H22 H23 C24 
C25 C26 C27 H28 C29 H30 C31 H32 H33 C34 H35 H36 C37 H38 H39 H40 C41 H42 H43 C44 
H45 H46 C47 H48 H49 C50 H51 H52 H53 H54 C55 C56 H57 H58 H59 C60 H61 H62 H63 H64 
S1  C2  C3  C4  C5  C6  C7  C8  C9  S10 C11 H12 C13 C14 H15 C16 C17 C18 H19 C20 
H21 H22 H23 C24 C25 C26 C27 H28 C29 H30 C31 H32 H33 C34 H35 H36 C37 H38 H39 H40 
C41 H42 H43 C44 H45 H46 C47 H48 H49 C50 H51 H52 H53 H54 C55 C56 H57 H58 H59 C60 
H61 H62 H63 H64 S1  C2  C3  C4  C5  C6  C7  C8  C9  S10 C11 H12 C13 C14 H15 C16 
C17 C18 H19 C20 H21 H22 H23 C24 C25 C26 C27 H28 C29 H30 C31 H32 H33 C34 H35 H36 
C37 H38 H39 H40 C41 H42 H43 C44 H45 H46 C47 H48 H49 C50 H51 H52 H53 H54 C55 C56 
H57 H58 H59 C60 H61 H62 H63 H64 S1  C2  C3  C4  C5  C6  C7  C8  C9  S10 C11 H12 
C13 C14 H15 C16 C17 C18 H19 C20 H21 H22 H23 C24 C25 C26 C27 H28 C29 H30 C31 H32 
H33 C34 H35 H36 C37 H38 H39 H40 C41 H42 H43 C44 H45 H46 C47 H48 H49 C50 H51 H52 
H53 H54 C55 C56 H57 H58 H59 C60 H61 H62 H63 H64 S1  C2  C3  C4  C5  C6  C7  C8  
C9  S10 C11 H12 C13 C14 H15 C16 C17 C18 H19 C20 H21 H22 H23 C24 C25 C26 C27 H28 
C29 H30 C31 H32 H33 C34 H35 H36 C37 H38 H39 H40 C41 H42 H43 C44 H45 H46 C47 H48 
H49 C50 H51 H52 H53 H54 C55 C56 H57 H58 H59 C60 H61 H62 H63 H64 S1  C2  C3  C4  
C5  C6  C7  C8  C9  S10 C11 H12 C13 C14 H15 C16 C17 C18 H19 C20 H21 H22 H23 C24 
C25 C26 C27 H28 C29 H30 C31 H32 H33 C34 H35 H36 C37 H38 H39 H40 C41 H42 H43 C44 
H45 H46 C47 H48 H49 C50 H51 H52 H53 H54 C55 C56 H57 H58 H59 C60 H61 H62 H63 H64 
S1  C2  C3  C4  C5  C6  C7  C8  C9  S10 C11 H12 C13 C14 H15 C16 C17 C18 H19 C20 
H21 H22 H23 C24 C25 C26 C27 H28 C29 H30 C31 H32 H33 C34 H35 H36 C37 H38 H39 H40 
C41 H42 H43 C44 H45 H46 C47 H48 H49 C50 H51 H52 H53 H54 C55 C56 H57 H58 H59 C60 
H61 H62 H63 H64 S1  C2  C3  C4  C5  C6  C7  C8  C9  S10 C11 H12 C13 C14 H15 C16 
C17 C18 H19 C20 H21 H22 H23 C24 C25 C26 C27 H28 C29 H30 C31 H32 H33 C34 H35 H36 
C37 H38 H39 H40 C41 H42 H43 C44 H45 H46 C47 H48 H49 C50 H51 H52 H53 H54 C55 C56 
H57 H58 H59 C60 H61 H62 H63 H64 S1  C2  C3  C4  C5  C6  C7  C8  C9  S10 C11 H12 
C13 C14 H15 C16 C17 C18 H19 C20 H21 H22 H23 C24 C25 C26 C27 H28 C29 H30 C31 H32 
H33 C34 H35 H36 C37 H38 H39 H40 C41 H42 H43 C44 H45 H46 C47 H48 H49 C50 H51 H52 
H53 H54 C55 C56 H57 H58 H59 C60 H61 H62 H63 H64 S1  C2  C3  C4  C5  C6  C7  C8  
C9  S10 C11 H12 C13 C14 H15 C16 C17 C18 H19 C20 H21 H22 H23 C24 C25 C26 C27 H28 
C29 H30 C31 H32 H33 C34 H35 H36 C37 H38 H39 H40 C41 H42 H43 C44 H45 H46 C47 H48 
H49 C50 H51 H52 H53 H54 C55 C56 H57 H58 H59 C60 H61 H62 H63 H64 S1  C2  C3  C4  
C5  C6  C7  C8  C9  S10 C11 H12 C13 C14 H15 C16 C17 C18 H19 C20 H21 H22 H23 C24 
C25 C26 C27 H28 C29 H30 C31 H32 H33 C34 H35 H36 C37 H38 H39 H40 C41 H42 H43 C44 
H45 H46 C47 H48 H49 C50 H51 H52 H53 H54 C55 C56 H57 H58 H59 C60 H61 H62 H63 H64 
S1  C2  C3  C4  C5  C6  C7  C8  C9  S10 C11 H12 C13 C14 H15 C16 C17 C18 H19 C20 
H21 H22 H23 C24 C25 C26 C27 H28 C29 H30 C31 H32 H33 C34 H35 H36 C37 H38 H39 H40 
C41 H42 H43 C44 H45 H46 C47 H48 H49 C50 H51 H52 H53 H54 C55 C56 H57 H58 H59 C60 
H61 H62 H63 H64 S1  C2  C3  C4  C5  C6  C7  C8  C9  S10 C11 H12 C13 C14 H15 C16 
C17 C18 H19 C20 H21 H22 H23 C24 C25 C26 C27 H28 C29 H30 C31 H32 H33 C34 H35 H36 
C37 H38 H39 H40 C41 H42 H43 C44 H45 H46 C47 H48 H49 C50 H51 H52 H53 H54 C55 C56 
H57 H58 H59 C60 H61 H62 H63 H64 S1  C2  C3  C4  C5  C6  C7  C8  C9  S10 C11 H12 
C13 C14 H15 C16 C17 C18 H19 C20 H21 H22 H23 C24 C25 C26 C27 H28 C29 H30 C31 H32 
H33 C34 H35 H36 C37 H38 H39 H40 C41 H42 H43 C44 H45 H46 C47 H48 H49 C50 H51 H52 
H53 H54 C55 C56 H57 H58 H59 C60 H61 H62 H63 H64 S1  C2  C3  C4  C5  C6  C7  C8  
C9  S10 C11 H12 C13 C14 H15 C16 C17 C18 H19 C20 H21 H22 H23 C24 C25 C26 C27 H28 
C29 H30 C31 H32 H33 C34 H35 H36 C37 H38 H39 H40 C41 H42 H43 C44 H45 H46 C47 H48 
H49 C50 H51 H52 H53 H54 C55 C56 H57 H58 H59 C60 H61 H62 H63 H64 S1  C2  C3  C4  
C5  C6  C7  C8  C9  S10 C11 H12 C13 C14 H15 C16 C17 C18 H19 C20 H21 H22 H23 C24 
C25 C26 C27 H28 C29 H30 C31 H32 H33 C34 H35 H36 C37 H38 H39 H40 C41 H42 H43 C44 
H45 H46 C47 H48 H49 C50 H51 H52 H53 H54 C55 C56 H57 H58 H59 C60 H61 H62 H63 H64 
S1  C2  C3  C4  C5  C6  C7  C8  C9  S10 C11 H12 C13 C14 H15 C16 C17 C18 H19 C20 
H21 H22 H23 C24 C25 C26 C27 H28 C29 H30 C31 H32 H33 C34 H35 H36 C37 H38 H39 H40 
C41 H42 H43 C44 H45 H46 C47 H48 H49 C50 H51 H52 H53 H54 C55 C56 H57 H58 H59 C60 
H61 H62 H63 H64 S1  C2  C3  C4  C5  C6  C7  C8  C9  S10 C11 H12 C13 C14 H15 C16 
C17 C18 H19 C20 H21 H22 H23 C24 C25 C26 C27 H28 C29 H30 C31 H32 H33 C34 H35 H36 
C37 H38 H39 H40 C41 H42 H43 C44 H45 H46 C47 H48 H49 C50 H51 H52 H53 H54 C55 C56 
H57 H58 H59 C60 H61 H62 H63 H64 S1  C2  C3  C4  C5  C6  C7  C8  C9  S10 C11 H12 
C13 C14 H15 C16 C17 C18 H19 C20 H21 H22 H23 C24 C25 C26 C27 H28 C29 H30 C31 H32 
H33 C34 H35 H36 C37 H38 H39 H40 C41 H42 H43 C44 H45 H46 C47 H48 H49 C50 H51 H52 
H53 H54 C55 C56 H57 H58 H59 C60 H61 H62 H63 H64 S1  C2  C3  C4  C5  C6  C7  C8  
C9  S10 C11 H12 C13 C14 H15 C16 C17 C18 H19 C20 H21 H22 H23 C24 C25 C26 C27 H28 
C29 H30 C31 H32 H33 C34 H35 H36 C37 H38 H39 H40 C41 H42 H43 C44 H45 H46 C47 H48 
H49 C50 H51 H52 H53 H54 C55 C56 H57 H58 H59 C60 H61 H62 H63 H64 S1  C2  C3  C4  
C5  C6  C7  C8  C9  S10 C11 H12 C13 C14 H15 C16 C17 C18 H19 C20 H21 H22 H23 C24 
C25 C26 C27 H28 C29 H30 C31 H32 H33 C34 H35 H36 C37 H38 H39 H40 C41 H42 H43 C44 
H45 H46 C47 H48 H49 C50 H51 H52 H53 H54 C55 C56 H57 H58 H59 C60 H61 H62 H63 H64 
S1  C2  C3  C4  C5  C6  C7  C8  C9  S10 C11 H12 C13 C14 H15 C16 C17 C18 H19 C20 
H21 H22 H23 C24 C25 C26 C27 H28 C29 H30 C31 H32 H33 C34 H35 H36 C37 H38 H39 H40 
C41 H42 H43 C44 H45 H46 C47 H48 H49 C50 H51 H52 H53 H54 C55 C56 H57 H58 H59 C60 
H61 H62 H63 H64 S1  C2  C3  C4  C5  C6  C7  C8  C9  S10 C11 H12 C13 C14 H15 C16 
C17 C18 H19 C20 H21 H22 H23 C24 C25 C26 C27 H28 C29 H30 C31 H32 H33 C34 H35 H36 
C37 H38 H39 H40 C41 H42 H43 C44 H45 H46 C47 H48 H49 C50 H51 H52 H53 H54 C55 C56 
H57 H58 H59 C60 H61 H62 H63 H64 S1  C2  C3  C4  C5  C6  C7  C8  C9  S10 C11 H12 
C13 C14 H15 C16 C17 C18 H19 C20 H21 H22 H23 C24 C25 C26 C27 H28 C29 H30 C31 H32 
H33 C34 H35 H36 C37 H38 H39 H40 C41 H42 H43 C44 H45 H46 C47 H48 H49 C50 H51 H52 
H53 H54 C55 C56 H57 H58 H59 C60 H61 H62 H63 H64 S1  C2  C3  C4  C5  C6  C7  C8  
C9  S10 C11 H12 C13 C14 H15 C16 C17 C18 H19 C20 H21 H22 H23 C24 C25 C26 C27 H28 
C29 H30 C31 H32 H33 C34 H35 H36 C37 H38 H39 H40 C41 H42 H43 C44 H45 H46 C47 H48 
H49 C50 H51 H52 H53 H54 C55 C56 H57 H58 H59 C60 H61 H62 H63 H64 S1  C2  C3  C4  
C5  C6  C7  C8  C9  S10 C11 H12 C13 C14 H15 C16 C17 C18 H19 C20 H21 H22 H23 C24 
C25 C26 C27 H28 C29 H30 C31 H32 H33 C34 H35 H36 C37 H38 H39 H40 C41 H42 H43 C44 
H45 H46 C47 H48 H49 C50 H51 H52 H53 H54 C55 C56 H57 H58 H59 C60 H61 H62 H63 H64 
S1  C2  C3  C4  C5  C6  C7  C8  C9  S10 C11 H12 C13 C14 H15 C16 C17 C18 H19 C20 
H21 H22 H23 C24 C25 C26 C27 H28 C29 H30 C31 H32 H33 C34 H35 H36 C37 H38 H39 H40 
C41 H42 H43 C44 H45 H46 C47 H48 H49 C50 H51 H52 H53 H54 C55 C56 H57 H58 H59 C60 
H61 H62 H63 H64 S1  C2  C3  C4  C5  C6  C7  C8  C9  S10 C11 H12 C13 C14 H15 C16 
C17 C18 H19 C20 H21 H22 H23 C24 C25 C26 C27 H28 C29 H30 C31 H32 H33 C34 H35 H36 
C37 H38 H39 H40 C41 H42 H43 C44 H45 H46 C47 H48 H49 C50 H51 H52 H53 H54 C55 C56 
H57 H58 H59 C60 H61 H62 H63 H64 S1  C2  C3  C4  C5  C6  C7  C8  C9  S10 C11 H12 
C13 C14 H15 C16 C17 C18 H19 C20 H21 H22 H23 C24 C25 C26 C27 H28 C29 H30 C31 H32 
H33 C34 H35 H36 C37 H38 H39 H40 C41 H42 H43 C44 H45 H46 C47 H48 H49 C50 H51 H52 
H53 H54 C55 C56 H57 H58 H59 C60 H61 H62 H63 H64 S1  C2  C3  C4  C5  C6  C7  C8  
C9  S10 C11 H12 C13 C14 H15 C16 C17 C18 H19 C20 H21 H22 H23 C24 C25 C26 C27 H28 
C29 H30 C31 H32 H33 C34 H35 H36 C37 H38 H39 H40 C41 H42 H43 C44 H45 H46 C47 H48 
H49 C50 H51 H52 H53 H54 C55 C56 H57 H58 H59 C60 H61 H62 H63 H64 S1  C2  C3  C4  
C5  C6  C7  C8  C9  S10 C11 H12 C13 C14 H15 C16 C17 C18 H19 C20 H21 H22 H23 C24 
C25 C26 C27 H28 C29 H30 C31 H32 H33 C34 H35 H36 C37 H38 H39 H40 C41 H42 H43 C44 
H45 H46 C47 H48 H49 C50 H51 H52 H53 H54 C55 C56 H57 H58 H59 C60 H61 H62 H63 H64 
S1  C2  C3  C4  C5  C6  C7  C8  C9  S10 C11 H12 C13 C14 H15 C16 C17 C18 H19 C20 
H21 H22 H23 C24 C25 C26 C27 H28 C29 H30 C31 H32 H33 C34 H35 H36 C37 H38 H39 H40 
C41 H42 H43 C44 H45 H46 C47 H48 H49 C50 H51 H52 H53 H54 C55 C56 H57 H58 H59 C60 
H61 H62 H63 H64 S1  C2  C3  C4  C5  C6  C7  C8  C9  S10 C11 H12 C13 C14 H15 C16 
C17 C18 H19 C20 H21 H22 H23 C24 C25 C26 C27 H28 C29 H30 C31 H32 H33 C34 H35 H36 
C37 H38 H39 H40 C41 H42 H43 C44 H45 H46 C47 H48 H49 C50 H51 H52 H53 H54 C55 C56 
H57 H58 H59 C60 H61 H62 H63 H64 S1  C2  C3  C4  C5  C6  C7  C8  C9  S10 C11 H12 
C13 C14 H15 C16 C17 C18 H19 C20 H21 H22 H23 C24 C25 C26 C27 H28 C29 H30 C31 H32 
H33 C34 H35 H36 C37 H38 H39 H40 C41 H42 H43 C44 H45 H46 C47 H48 H49 C50 H51 H52 
H53 H54 C55 C56 H57 H58 H59 C60 H61 H62 H63 H64 S1  C2  C3  C4  C5  C6  C7  C8  
C9  S10 C11 H12 C13 C14 H15 C16 C17 C18 H19 C20 H21 H22 H23 C24 C25 C26 C27 H28 
C29 H30 C31 H32 H33 C34 H35 H36 C37 H38 H39 H40 C41 H42 H43 C44 H45 H46 C47 H48 
H49 C50 H51 H52 H53 H54 C55 C56 H57 H58 H59 C60 H61 H62 H63 H64 S1  C2  C3  C4  
C5  C6  C7  C8  C9  S10 C11 H12 C13 C14 H15 C16 C17 C18 H19 C20 H21 H22 H23 C24 
C25 C26 C27 H28 C29 H30 C31 H32 H33 C34 H35 H36 C37 H38 H39 H40 C41 H42 H43 C44 
H45 H46 C47 H48 H49 C50 H51 H52 H53 H54 C55 C56 H57 H58 H59 C60 H61 H62 H63 H64 
S1  C2  C3  C4  C5  C6  C7  C8  C9  S10 C11 H12 C13 C14 H15 C16 C17 C18 H19 C20 
H21 H22 H23 C24 C25 C26 C27 H28 C29 H30 C31 H32 H33 C34 H35 H36 C37 H38 H39 H40 
C41 H42 H43 C44 H45 H46 C47 H48 H49 C50 H51 H52 H53 H54 C55 C56 H57 H58 H59 C60 
H61 H62 H63 H64 S1  C2  C3  C4  C5  C6  C7  C8  C9  S10 C11 H12 C13 C14 H15 C16 
C17 C18 H19 C20 H21 H22 H23 C24 C25 C26 C27 H28 C29 H30 C31 H32 H33 C34 H35 H36 
C37 H38 H39 H40 C41 H42 H43 C44 H45 H46 C47 H48 H49 C50 H51 H52 H53 H54 C55 C56 
H57 H58 H59 C60 H61 H62 H63 H64 S1  C2  C3  C4  C5  C6  C7  C8  C9  S10 C11 H12 
C13 C14 H15 C16 C17 C18 H19 C20 H21 H22 H23 C24 C25 C26 C27 H28 C29 H30 C31 H32 
H33 C34 H35 H36 C37 H38 H39 H40 C41 H42 H43 C44 H45 H46 C47 H48 H49 C50 H51 H52 
H53 H54 C55 C56 H57 H58 H59 C60 H61 H62 H63 H64 S1  C2  C3  C4  C5  C6  C7  C8  
C9  S10 C11 H12 C13 C14 H15 C16 C17 C18 H19 C20 H21 H22 H23 C24 C25 C26 C27 H28 
C29 H30 C31 H32 H33 C34 H35 H36 C37 H38 H39 H40 C41 H42 H43 C44 H45 H46 C47 H48 
H49 C50 H51 H52 H53 H54 C55 C56 H57 H58 H59 C60 H61 H62 H63 H64 S1  C2  C3  C4  
C5  C6  C7  C8  C9  S10 C11 H12 C13 C14 H15 C16 C17 C18 H19 C20 H21 H22 H23 C24 
C25 C26 C27 H28 C29 H30 C31 H32 H33 C34 H35 H36 C37 H38 H39 H40 C41 H42 H43 C44 
H45 H46 C47 H48 H49 C50 H51 H52 H53 H54 C55 C56 H57 H58 H59 C60 H61 H62 H63 H64 
S1  C2  C3  C4  C5  C6  C7  C8  C9  S10 C11 H12 C13 C14 H15 C16 C17 C18 H19 C20 
H21 H22 H23 C24 C25 C26 C27 H28 C29 H30 C31 H32 H33 C34 H35 H36 C37 H38 H39 H40 
C41 H42 H43 C44 H45 H46 C47 H48 H49 C50 H51 H52 H53 H54 C55 C56 H57 H58 H59 C60 
H61 H62 H63 H64 S1  C2  C3  C4  C5  C6  C7  C8  C9  S10 C11 H12 C13 C14 H15 C16 
C17 C18 H19 C20 H21 H22 H23 C24 C25 C26 C27 H28 C29 H30 C31 H32 H33 C34 H35 H36 
C37 H38 H39 H40 C41 H42 H43 C44 H45 H46 C47 H48 H49 C50 H51 H52 H53 H54 C55 C56 
H57 H58 H59 C60 H61 H62 H63 H64 S1  C2  C3  C4  C5  C6  C7  C8  C9  S10 C11 H12 
C13 C14 H15 C16 C17 C18 H19 C20 H21 H22 H23 C24 C25 C26 C27 H28 C29 H30 C31 H32 
H33 C34 H35 H36 C37 H38 H39 H40 C41 H42 H43 C44 H45 H46 C47 H48 H49 C50 H51 H52 
H53 H54 C55 C56 H57 H58 H59 C60 H61 H62 H63 H64 
%FLAG CHARGE                                                                    
%FORMAT(5E16.8)                                                                 
  1.48511745E+00 -1.48693968E+00 -1.29560553E+00 -5.61246840E-01 -1.54160658E+00
 -1.56711780E+00 -4.70135340E-01 -1.71289620E+00 -1.18627173E+00  1.43045055E+00
 -5.28446700E-01  2.58756660E+00 -1.76756310E+00 -2.29600980E+00  2.51467740E+00
 -1.76756310E+00 -2.16845370E+00 -7.28892000E-01  2.53289970E+00 -1.22636079E+00
  2.44178820E+00  2.51467740E+00  2.51467740E+00 -2.15023140E+00 -2.15023140E+00
 -6.94269630E-01 -2.36889900E+00  2.46001050E+00 -2.36889900E+00  2.46001050E+00
 -1.39218372E+00  8.96537160E-01  8.96537160E-01 -2.29600980E+00  2.41445475E+00
  2.41445475E+00 -1.44685062E+00  8.23647960E-01  8.23647960E-01  2.40534360E+00
 -1.44685062E+00  7.23425310E-01  7.23425310E-01 -1.44685062E+00  7.41647610E-01
  7.41647610E-01 -1.44685062E+00  7.23425310E-01  7.23425310E-01 -1.44685062E+00
  7.23425310E-01  7.23425310E-01  7.23425310E-01  7.23425310E-01 -1.44685062E+00
 -1.46507292E+00  7.23425310E-01  7.23425310E-01  7.05203010E-01 -1.67827383E+00
  7.05203010E-01  5.95869210E-01  5.95869210E-01  5.95869210E-01  1.48511745E+00
 -1.48693968E+00 -1.29560553E+00 -5.61246840E-01 -1.54160658E+00 -1.56711780E+00
 -4.70135340E-01 -1.71289620E+00 -1.18627173E+00  1.43045055E+00 -5.28446700E-01
  2.58756660E+00 -1.76756310E+00 -2.29600980E+00  2.51467740E+00 -1.76756310E+00
 -2.16845370E+00 -7.28892000E-01  2.53289970E+00 -1.22636079E+00  2.44178820E+00
  2.51467740E+00  2.51467740E+00 -2.15023140E+00 -2.15023140E+00 -6.94269630E-01
 -2.36889900E+00  2.46001050E+00 -2.36889900E+00  2.46001050E+00 -1.39218372E+00
  8.96537160E-01  8.96537160E-01 -2.29600980E+00  2.41445475E+00  2.41445475E+00
 -1.44685062E+00  8.23647960E-01  8.23647960E-01  2.40534360E+00 -1.44685062E+00
  7.23425310E-01  7.23425310E-01 -1.44685062E+00  7.41647610E-01  7.41647610E-01
 -1.44685062E+00  7.23425310E-01  7.23425310E-01 -1.44685062E+00  7.23425310E-01
  7.23425310E-01  7.23425310E-01  7.23425310E-01 -1.44685062E+00 -1.46507292E+00
  7.23425310E-01  7.23425310E-01  7.05203010E-01 -1.67827383E+00  7.05203010E-01
  5.95869210E-01  5.95869210E-01  5.95869210E-01  1.48511745E+00 -1.48693968E+00
 -1.29560553E+00 -5.61246840E-01 -1.54160658E+00 -1.56711780E+00 -4.70135340E-01
 -1.71289620E+00 -1.18627173E+00  1.43045055E+00 -5.28446700E-01  2.58756660E+00
 -1.76756310E+00 -2.29600980E+00  2.51467740E+00 -1.76756310E+00 -2.16845370E+00
 -7.28892000E-01  2.53289970E+00 -1.22636079E+00  2.44178820E+00  2.51467740E+00
  2.51467740E+00 -2.15023140E+00 -2.15023140E+00 -6.94269630E-01 -2.36889900E+00
  2.46001050E+00 -2.36889900E+00  2.46001050E+00 -1.39218372E+00  8.96537160E-01
  8.96537160E-01 -2.29600980E+00  2.41445475E+00  2.41445475E+00 -1.44685062E+00
  8.23647960E-01  8.23647960E-01  2.40534360E+00 -1.44685062E+00  7.23425310E-01
  7.23425310E-01 -1.44685062E+00  7.41647610E-01  7.41647610E-01 -1.44685062E+00
  7.23425310E-01  7.23425310E-01 -1.44685062E+00  7.23425310E-01  7.23425310E-01
  7.23425310E-01  7.23425310E-01 -1.44685062E+00 -1.46507292E+00  7.23425310E-01
  7.23425310E-01  7.05203010E-01 -1.67827383E+00  7.05203010E-01  5.95869210E-01
  5.95869210E-01  5.95869210E-01  1.48511745E+00 -1.48693968E+00 -1.29560553E+00
 -5.61246840E-01 -1.54160658E+00 -1.56711780E+00 -4.70135340E-01 -1.71289620E+00
 -1.18627173E+00  1.43045055E+00 -5.28446700E-01  2.58756660E+00 -1.76756310E+00
 -2.29600980E+00  2.51467740E+00 -1.76756310E+00 -2.16845370E+00 -7.28892000E-01
  2.53289970E+00 -1.22636079E+00  2.44178820E+00  2.51467740E+00  2.51467740E+00
 -2.15023140E+00 -2.15023140E+00 -6.94269630E-01 -2.36889900E+00  2.46001050E+00
 -2.36889900E+00  2.46001050E+00 -1.39218372E+00  8.96537160E-01  8.96537160E-01
 -2.29600980E+00  2.41445475E+00  2.41445475E+00 -1.44685062E+00  8.23647960E-01
  8.23647960E-01  2.40534360E+00 -1.44685062E+00  7.23425310E-01  7.23425310E-01
 -1.44685062E+00  7.41647610E-01  7.41647610E-01 -1.44685062E+00  7.23425310E-01
  7.23425310E-01 -1.44685062E+00  7.23425310E-01  7.23425310E-01  7.23425310E-01
  7.23425310E-01 -1.44685062E+00 -1.46507292E+00  7.23425310E-01  7.23425310E-01
  7.05203010E-01 -1.67827383E+00  7.05203010E-01  5.95869210E-01  5.95869210E-01
  5.95869210E-01  1.48511745E+00 -1.48693968E+00 -1.29560553E+00 -5.61246840E-01
 -1.54160658E+00 -1.56711780E+00 -4.70135340E-01 -1.71289620E+00 -1.18627173E+00
  1.43045055E+00 -5.28446700E-01  2.58756660E+00 -1.76756310E+00 -2.29600980E+00
  2.51467740E+00 -1.76756310E+00 -2.16845370E+00 -7.28892000E-01  2.53289970E+00
 -1.22636079E+00  2.44178820E+00  2.51467740E+00  2.51467740E+00 -2.15023140E+00
 -2.15023140E+00 -6.94269630E-01 -2.36889900E+00  2.46001050E+00 -2.36889900E+00
  2.46001050E+00 -1.39218372E+00  8.96537160E-01  8.96537160E-01 -2.29600980E+00
  2.41445475E+00  2.41445475E+00 -1.44685062E+00  8.23647960E-01  8.23647960E-01
  2.40534360E+00 -1.44685062E+00  7.23425310E-01  7.23425310E-01 -1.44685062E+00
  7.41647610E-01  7.41647610E-01 -1.44685062E+00  7.23425310E-01  7.23425310E-01
 -1.44685062E+00  7.23425310E-01  7.23425310E-01  7.23425310E-01  7.23425310E-01
 -1.44685062E+00 -1.46507292E+00  7.23425310E-01  7.23425310E-01  7.05203010E-01
 -1.67827383E+00  7.05203010E-01  5.95869210E-01  5.95869210E-01  5.95869210E-01
  1.48511745E+00 -1.48693968E+00 -1.29560553E+00 -5.61246840E-01 -1.54160658E+00
 -1.56711780E+00 -4.70135340E-01 -1.71289620E+00 -1.18627173E+00  1.43045055E+00
 -5.28446700E-01  2.58756660E+00 -1.76756310E+00 -2.29600980E+00  2.51467740E+00
 -1.76756310E+00 -2.16845370E+00 -7.28892000E-01  2.53289970E+00 -1.22636079E+00
  2.44178820E+00  2.51467740E+00  2.51467740E+00 -2.15023140E+00 -2.15023140E+00
 -6.94269630E-01 -2.36889900E+00  2.46001050E+00 -2.36889900E+00  2.46001050E+00
 -1.39218372E+00  8.96537160E-01  8.96537160E-01 -2.29600980E+00  2.41445475E+00
  2.41445475E+00 -1.44685062E+00  8.23647960E-01  8.23647960E-01  2.40534360E+00
 -1.44685062E+00  7.23425310E-01  7.23425310E-01 -1.44685062E+00  7.41647610E-01
  7.41647610E-01 -1.44685062E+00  7.23425310E-01  7.23425310E-01 -1.44685062E+00
  7.23425310E-01  7.23425310E-01  7.23425310E-01  7.23425310E-01 -1.44685062E+00
 -1.46507292E+00  7.23425310E-01  7.23425310E-01  7.05203010E-01 -1.67827383E+00
  7.05203010E-01  5.95869210E-01  5.95869210E-01  5.95869210E-01  1.48511745E+00
 -1.48693968E+00 -1.29560553E+00 -5.61246840E-01 -1.54160658E+00 -1.56711780E+00
 -4.70135340E-01 -1.71289620E+00 -1.18627173E+00  1.43045055E+00 -5.28446700E-01
  2.58756660E+00 -1.76756310E+00 -2.29600980E+00  2.51467740E+00 -1.76756310E+00
 -2.16845370E+00 -7.28892000E-01  2.53289970E+00 -1.22636079E+00  2.44178820E+00
  2.51467740E+00  2.51467740E+00 -2.15023140E+00 -2.15023140E+00 -6.94269630E-01
 -2.36889900E+00  2.46001050E+00 -2.36889900E+00  2.46001050E+00 -1.39218372E+00
  8.96537160E-01  8.96537160E-01 -2.29600980E+00  2.41445475E+00  2.41445475E+00
 -1.44685062E+00  8.23647960E-01  8.23647960E-01  2.40534360E+00 -1.44685062E+00
  7.23425310E-01  7.23425310E-01 -1.44685062E+00  7.41647610E-01  7.41647610E-01
 -1.44685062E+00  7.23425310E-01  7.23425310E-01 -1.44685062E+00  7.23425310E-01
  7.23425310E-01  7.23425310E-01  7.23425310E-01 -1.44685062E+00 -1.46507292E+00
  7.23425310E-01  7.23425310E-01  7.05203010E-01 -1.67827383E+00  7.05203010E-01
  5.95869210E-01  5.95869210E-01  5.95869210E-01  1.48511745E+00 -1.48693968E+00
 -1.29560553E+00 -5.61246840E-01 -1.54160658E+00 -1.56711780E+00 -4.70135340E-01
 -1.71289620E+00 -1.18627173E+00  1.43045055E+00 -5.28446700E-01  2.58756660E+00
 -1.76756310E+00 -2.29600980E+00  2.51467740E+00 -1.76756310E+00 -2.16845370E+00
 -7.28892000E-01  2.53289970E+00 -1.22636079E+00  2.44178820E+00  2.51467740E+00
  2.51467740E+00 -2.15023140E+00 -2.15023140E+00 -6.94269630E-01 -2.36889900E+00
  2.46001050E+00 -2.36889900E+00  2.46001050E+00 -1.39218372E+00  8.96537160E-01
  8.96537160E-01 -2.29600980E+00  2.41445475E+00  2.41445475E+00 -1.44685062E+00
  8.23647960E-01  8.23647960E-01  2.40534360E+00 -1.44685062E+00  7.23425310E-01
  7.23425310E-01 -1.44685062E+00  7.41647610E-01  7.41647610E-01 -1.44685062E+00
  7.23425310E-01  7.23425310E-01 -1.44685062E+00  7.23425310E-01  7.23425310E-01
  7.23425310E-01  7.23425310E-01 -1.44685062E+00 -1.46507292E+00  7.23425310E-01
  7.23425310E-01  7.05203010E-01 -1.67827383E+00  7.05203010E-01  5.95869210E-01
  5.95869210E-01  5.95869210E-01  1.48511745E+00 -1.48693968E+00 -1.29560553E+00
 -5.61246840E-01 -1.54160658E+00 -1.56711780E+00 -4.70135340E-01 -1.71289620E+00
 -1.18627173E+00  1.43045055E+00 -5.28446700E-01  2.58756660E+00 -1.76756310E+00
 -2.29600980E+00  2.51467740E+00 -1.76756310E+00 -2.16845370E+00 -7.28892000E-01
  2.53289970E+00 -1.22636079E+00  2.44178820E+00  2.51467740E+00  2.51467740E+00
 -2.15023140E+00 -2.15023140E+00 -6.94269630E-01 -2.36889900E+00  2.46001050E+00
 -2.36889900E+00  2.46001050E+00 -1.39218372E+00  8.96537160E-01  8.96537160E-01
 -2.29600980E+00  2.41445475E+00  2.41445475E+00 -1.44685062E+00  8.23647960E-01
  8.23647960E-01  2.40534360E+00 -1.44685062E+00  7.23425310E-01  7.23425310E-01
 -1.44685062E+00  7.41647610E-01  7.41647610E-01 -1.44685062E+00  7.23425310E-01
  7.23425310E-01 -1.44685062E+00  7.23425310E-01  7.23425310E-01  7.23425310E-01
  7.23425310E-01 -1.44685062E+00 -1.46507292E+00  7.23425310E-01  7.23425310E-01
  7.05203010E-01 -1.67827383E+00  7.05203010E-01  5.95869210E-01  5.95869210E-01
  5.95869210E-01  1.48511745E+00 -1.48693968E+00 -1.29560553E+00 -5.61246840E-01
 -1.54160658E+00 -1.56711780E+00 -4.70135340E-01 -1.71289620E+00 -1.18627173E+00
  1.43045055E+00 -5.28446700E-01  2.58756660E+00 -1.76756310E+00 -2.29600980E+00
  2.51467740E+00 -1.76756310E+00 -2.16845370E+00 -7.28892000E-01  2.53289970E+00
 -1.22636079E+00  2.44178820E+00  2.51467740E+00  2.51467740E+00 -2.15023140E+00
 -2.15023140E+00 -6.94269630E-01 -2.36889900E+00  2.46001050E+00 -2.36889900E+00
  2.46001050E+00 -1.39218372E+00  8.96537160E-01  8.96537160E-01 -2.29600980E+00
  2.41445475E+00  2.41445475E+00 -1.44685062E+00  8.23647960E-01  8.23647960E-01
  2.40534360E+00 -1.44685062E+00  7.23425310E-01  7.23425310E-01 -1.44685062E+00
  7.41647610E-01  7.41647610E-01 -1.44685062E+00  7.23425310E-01  7.23425310E-01
 -1.44685062E+00  7.23425310E-01  7.23425310E-01  7.23425310E-01  7.23425310E-01
 -1.44685062E+00 -1.46507292E+00  7.23425310E-01  7.23425310E-01  7.05203010E-01
 -1.67827383E+00  7.05203010E-01  5.95869210E-01  5.95869210E-01  5.95869210E-01
  1.48511745E+00 -1.48693968E+00 -1.29560553E+00 -5.61246840E-01 -1.54160658E+00
 -1.56711780E+00 -4.70135340E-01 -1.71289620E+00 -1.18627173E+00  1.43045055E+00
 -5.28446700E-01  2.58756660E+00 -1.76756310E+00 -2.29600980E+00  2.51467740E+00
 -1.76756310E+00 -2.16845370E+00 -7.28892000E-01  2.53289970E+00 -1.22636079E+00
  2.44178820E+00  2.51467740E+00  2.51467740E+00 -2.15023140E+00 -2.15023140E+00
 -6.94269630E-01 -2.36889900E+00  2.46001050E+00 -2.36889900E+00  2.46001050E+00
 -1.39218372E+00  8.96537160E-01  8.96537160E-01 -2.29600980E+00  2.41445475E+00
  2.41445475E+00 -1.44685062E+00  8.23647960E-01  8.23647960E-01  2.40534360E+00
 -1.44685062E+00  7.23425310E-01  7.23425310E-01 -1.44685062E+00  7.41647610E-01
  7.41647610E-01 -1.44685062E+00  7.23425310E-01  7.23425310E-01 -1.44685062E+00
  7.23425310E-01  7.23425310E-01  7.23425310E-01  7.23425310E-01 -1.44685062E+00
 -1.46507292E+00  7.23425310E-01  7.23425310E-01  7.05203010E-01 -1.67827383E+00
  7.05203010E-01  5.95869210E-01  5.95869210E-01  5.95869210E-01  1.48511745E+00
 -1.48693968E+00 -1.29560553E+00 -5.61246840E-01 -1.54160658E+00 -1.56711780E+00
 -4.70135340E-01 -1.71289620E+00 -1.18627173E+00  1.43045055E+00 -5.28446700E-01
  2.58756660E+00 -1.76756310E+00 -2.29600980E+00  2.51467740E+00 -1.76756310E+00
 -2.16845370E+00 -7.28892000E-01  2.53289970E+00 -1.22636079E+00  2.44178820E+00
  2.51467740E+00  2.51467740E+00 -2.15023140E+00 -2.15023140E+00 -6.94269630E-01
 -2.36889900E+00  2.46001050E+00 -2.36889900E+00  2.46001050E+00 -1.39218372E+00
  8.96537160E-01  8.96537160E-01 -2.29600980E+00  2.41445475E+00  2.41445475E+00
 -1.44685062E+00  8.23647960E-01  8.23647960E-01  2.40534360E+00 -1.44685062E+00
  7.23425310E-01  7.23425310E-01 -1.44685062E+00  7.41647610E-01  7.41647610E-01
 -1.44685062E+00  7.23425310E-01  7.23425310E-01 -1.44685062E+00  7.23425310E-01
  7.23425310E-01  7.23425310E-01  7.23425310E-01 -1.44685062E+00 -1.46507292E+00
  7.23425310E-01  7.23425310E-01  7.05203010E-01 -1.67827383E+00  7.05203010E-01
  5.95869210E-01  5.95869210E-01  5.95869210E-01  1.48511745E+00 -1.48693968E+00
 -1.29560553E+00 -5.61246840E-01 -1.54160658E+00 -1.56711780E+00 -4.70135340E-01
 -1.71289620E+00 -1.18627173E+00  1.43045055E+00 -5.28446700E-01  2.58756660E+00
 -1.76756310E+00 -2.29600980E+00  2.51467740E+00 -1.76756310E+00 -2.16845370E+00
 -7.28892000E-01  2.53289970E+00 -1.22636079E+00  2.44178820E+00  2.51467740E+00
  2.51467740E+00 -2.15023140E+00 -2.15023140E+00 -6.94269630E-01 -2.36889900E+00
  2.46001050E+00 -2.36889900E+00  2.46001050E+00 -1.39218372E+00  8.96537160E-01
  8.96537160E-01 -2.29600980E+00  2.41445475E+00  2.41445475E+00 -1.44685062E+00
  8.23647960E-01  8.23647960E-01  2.40534360E+00 -1.44685062E+00  7.23425310E-01
  7.23425310E-01 -1.44685062E+00  7.41647610E-01  7.41647610E-01 -1.44685062E+00
  7.23425310E-01  7.23425310E-01 -1.44685062E+00  7.23425310E-01  7.23425310E-01
  7.23425310E-01  7.23425310E-01 -1.44685062E+00 -1.46507292E+00  7.23425310E-01
  7.23425310E-01  7.05203010E-01 -1.67827383E+00  7.05203010E-01  5.95869210E-01
  5.95869210E-01  5.95869210E-01  1.48511745E+00 -1.48693968E+00 -1.29560553E+00
 -5.61246840E-01 -1.54160658E+00 -1.56711780E+00 -4.70135340E-01 -1.71289620E+00
 -1.18627173E+00  1.43045055E+00 -5.28446700E-01  2.58756660E+00 -1.76756310E+00
 -2.29600980E+00  2.51467740E+00 -1.76756310E+00 -2.16845370E+00 -7.28892000E-01
  2.53289970E+00 -1.22636079E+00  2.44178820E+00  2.51467740E+00  2.51467740E+00
 -2.15023140E+00 -2.15023140E+00 -6.94269630E-01 -2.36889900E+00  2.46001050E+00
 -2.36889900E+00  2.46001050E+00 -1.39218372E+00  8.96537160E-01  8.96537160E-01
 -2.29600980E+00  2.41445475E+00  2.41445475E+00 -1.44685062E+00  8.23647960E-01
  8.23647960E-01  2.40534360E+00 -1.44685062E+00  7.23425310E-01  7.23425310E-01
 -1.44685062E+00  7.41647610E-01  7.41647610E-01 -1.44685062E+00  7.23425310E-01
  7.23425310E-01 -1.44685062E+00  7.23425310E-01  7.23425310E-01  7.23425310E-01
  7.23425310E-01 -1.44685062E+00 -1.46507292E+00  7.23425310E-01  7.23425310E-01
  7.05203010E-01 -1.67827383E+00  7.05203010E-01  5.95869210E-01  5.95869210E-01
  5.95869210E-01  1.48511745E+00 -1.48693968E+00 -1.29560553E+00 -5.61246840E-01
 -1.54160658E+00 -1.56711780E+00 -4.70135340E-01 -1.71289620E+00 -1.18627173E+00
  1.43045055E+00 -5.28446700E-01  2.58756660E+00 -1.76756310E+00 -2.29600980E+00
  2.51467740E+00 -1.76756310E+00 -2.16845370E+00 -7.28892000E-01  2.53289970E+00
 -1.22636079E+00  2.44178820E+00  2.51467740E+00  2.51467740E+00 -2.15023140E+00
 -2.15023140E+00 -6.94269630E-01 -2.36889900E+00  2.46001050E+00 -2.36889900E+00
  2.46001050E+00 -1.39218372E+00  8.96537160E-01  8.96537160E-01 -2.29600980E+00
  2.41445475E+00  2.41445475E+00 -1.44685062E+00  8.23647960E-01  8.23647960E-01
  2.40534360E+00 -1.44685062E+00  7.23425310E-01  7.23425310E-01 -1.44685062E+00
  7.41647610E-01  7.41647610E-01 -1.44685062E+00  7.23425310E-01  7.23425310E-01
 -1.44685062E+00  7.23425310E-01  7.23425310E-01  7.23425310E-01  7.23425310E-01
 -1.44685062E+00 -1.46507292E+00  7.23425310E-01  7.23425310E-01  7.05203010E-01
 -1.67827383E+00  7.05203010E-01  5.95869210E-01  5.95869210E-01  5.95869210E-01
  1.48511745E+00 -1.48693968E+00 -1.29560553E+00 -5.61246840E-01 -1.54160658E+00
 -1.56711780E+00 -4.70135340E-01 -1.71289620E+00 -1.18627173E+00  1.43045055E+00
 -5.28446700E-01  2.58756660E+00 -1.76756310E+00 -2.29600980E+00  2.51467740E+00
 -1.76756310E+00 -2.16845370E+00 -7.28892000E-01  2.53289970E+00 -1.22636079E+00
  2.44178820E+00  2.51467740E+00  2.51467740E+00 -2.15023140E+00 -2.15023140E+00
 -6.94269630E-01 -2.36889900E+00  2.46001050E+00 -2.36889900E+00  2.46001050E+00
 -1.39218372E+00  8.96537160E-01  8.96537160E-01 -2.29600980E+00  2.41445475E+00
  2.41445475E+00 -1.44685062E+00  8.23647960E-01  8.23647960E-01  2.40534360E+00
 -1.44685062E+00  7.23425310E-01  7.23425310E-01 -1.44685062E+00  7.41647610E-01
  7.41647610E-01 -1.44685062E+00  7.23425310E-01  7.23425310E-01 -1.44685062E+00
  7.23425310E-01  7.23425310E-01  7.23425310E-01  7.23425310E-01 -1.44685062E+00
 -1.46507292E+00  7.23425310E-01  7.23425310E-01  7.05203010E-01 -1.67827383E+00
  7.05203010E-01  5.95869210E-01  5.95869210E-01  5.95869210E-01  1.48511745E+00
 -1.48693968E+00 -1.29560553E+00 -5.61246840E-01 -1.54160658E+00 -1.56711780E+00
 -4.70135340E-01 -1.71289620E+00 -1.18627173E+00  1.43045055E+00 -5.28446700E-01
  2.58756660E+00 -1.76756310E+00 -2.29600980E+00  2.51467740E+00 -1.76756310E+00
 -2.16845370E+00 -7.28892000E-01  2.53289970E+00 -1.22636079E+00  2.44178820E+00
  2.51467740E+00  2.51467740E+00 -2.15023140E+00 -2.15023140E+00 -6.94269630E-01
 -2.36889900E+00  2.46001050E+00 -2.36889900E+00  2.46001050E+00 -1.39218372E+00
  8.96537160E-01  8.96537160E-01 -2.29600980E+00  2.41445475E+00  2.41445475E+00
 -1.44685062E+00  8.23647960E-01  8.23647960E-01  2.40534360E+00 -1.44685062E+00
  7.23425310E-01  7.23425310E-01 -1.44685062E+00  7.41647610E-01  7.41647610E-01
 -1.44685062E+00  7.23425310E-01  7.23425310E-01 -1.44685062E+00  7.23425310E-01
  7.23425310E-01  7.23425310E-01  7.23425310E-01 -1.44685062E+00 -1.46507292E+00
  7.23425310E-01  7.23425310E-01  7.05203010E-01 -1.67827383E+00  7.05203010E-01
  5.95869210E-01  5.95869210E-01  5.95869210E-01  1.48511745E+00 -1.48693968E+00
 -1.29560553E+00 -5.61246840E-01 -1.54160658E+00 -1.56711780E+00 -4.70135340E-01
 -1.71289620E+00 -1.18627173E+00  1.43045055E+00 -5.28446700E-01  2.58756660E+00
 -1.76756310E+00 -2.29600980E+00  2.51467740E+00 -1.76756310E+00 -2.16845370E+00
 -7.28892000E-01  2.53289970E+00 -1.22636079E+00  2.44178820E+00  2.51467740E+00
  2.51467740E+00 -2.15023140E+00 -2.15023140E+00 -6.94269630E-01 -2.36889900E+00
  2.46001050E+00 -2.36889900E+00  2.46001050E+00 -1.39218372E+00  8.96537160E-01
  8.96537160E-01 -2.29600980E+00  2.41445475E+00  2.41445475E+00 -1.44685062E+00
  8.23647960E-01  8.23647960E-01  2.40534360E+00 -1.44685062E+00  7.23425310E-01
  7.23425310E-01 -1.44685062E+00  7.41647610E-01  7.41647610E-01 -1.44685062E+00
  7.23425310E-01  7.23425310E-01 -1.44685062E+00  7.23425310E-01  7.23425310E-01
  7.23425310E-01  7.23425310E-01 -1.44685062E+00 -1.46507292E+00  7.23425310E-01
  7.23425310E-01  7.05203010E-01 -1.67827383E+00  7.05203010E-01  5.95869210E-01
  5.95869210E-01  5.95869210E-01  1.48511745E+00 -1.48693968E+00 -1.29560553E+00
 -5.61246840E-01 -1.54160658E+00 -1.56711780E+00 -4.70135340E-01 -1.71289620E+00
 -1.18627173E+00  1.43045055E+00 -5.28446700E-01  2.58756660E+00 -1.76756310E+00
 -2.29600980E+00  2.51467740E+00 -1.76756310E+00 -2.16845370E+00 -7.28892000E-01
  2.53289970E+00 -1.22636079E+00  2.44178820E+00  2.51467740E+00  2.51467740E+00
 -2.15023140E+00 -2.15023140E+00 -6.94269630E-01 -2.36889900E+00  2.46001050E+00
 -2.36889900E+00  2.46001050E+00 -1.39218372E+00  8.96537160E-01  8.96537160E-01
 -2.29600980E+00  2.41445475E+00  2.41445475E+00 -1.44685062E+00  8.23647960E-01
  8.23647960E-01  2.40534360E+00 -1.44685062E+00  7.23425310E-01  7.23425310E-01
 -1.44685062E+00  7.41647610E-01  7.41647610E-01 -1.44685062E+00  7.23425310E-01
  7.23425310E-01 -1.44685062E+00  7.23425310E-01  7.23425310E-01  7.23425310E-01
  7.23425310E-01 -1.44685062E+00 -1.46507292E+00  7.23425310E-01  7.23425310E-01
  7.05203010E-01 -1.67827383E+00  7.05203010E-01  5.95869210E-01  5.95869210E-01
  5.95869210E-01  1.48511745E+00 -1.48693968E+00 -1.29560553E+00 -5.61246840E-01
 -1.54160658E+00 -1.56711780E+00 -4.70135340E-01 -1.71289620E+00 -1.18627173E+00
  1.43045055E+00 -5.28446700E-01  2.58756660E+00 -1.76756310E+00 -2.29600980E+00
  2.51467740E+00 -1.76756310E+00 -2.16845370E+00 -7.28892000E-01  2.53289970E+00
 -1.22636079E+00  2.44178820E+00  2.51467740E+00  2.51467740E+00 -2.15023140E+00
 -2.15023140E+00 -6.94269630E-01 -2.36889900E+00  2.46001050E+00 -2.36889900E+00
  2.46001050E+00 -1.39218372E+00  8.96537160E-01  8.96537160E-01 -2.29600980E+00
  2.41445475E+00  2.41445475E+00 -1.44685062E+00  8.23647960E-01  8.23647960E-01
  2.40534360E+00 -1.44685062E+00  7.23425310E-01  7.23425310E-01 -1.44685062E+00
  7.41647610E-01  7.41647610E-01 -1.44685062E+00  7.23425310E-01  7.23425310E-01
 -1.44685062E+00  7.23425310E-01  7.23425310E-01  7.23425310E-01  7.23425310E-01
 -1.44685062E+00 -1.46507292E+00  7.23425310E-01  7.23425310E-01  7.05203010E-01
 -1.67827383E+00  7.05203010E-01  5.95869210E-01  5.95869210E-01  5.95869210E-01
  1.48511745E+00 -1.48693968E+00 -1.29560553E+00 -5.61246840E-01 -1.54160658E+00
 -1.56711780E+00 -4.70135340E-01 -1.71289620E+00 -1.18627173E+00  1.43045055E+00
 -5.28446700E-01  2.58756660E+00 -1.76756310E+00 -2.29600980E+00  2.51467740E+00
 -1.76756310E+00 -2.16845370E+00 -7.28892000E-01  2.53289970E+00 -1.22636079E+00
  2.44178820E+00  2.51467740E+00  2.51467740E+00 -2.15023140E+00 -2.15023140E+00
 -6.94269630E-01 -2.36889900E+00  2.46001050E+00 -2.36889900E+00  2.46001050E+00
 -1.39218372E+00  8.96537160E-01  8.96537160E-01 -2.29600980E+00  2.41445475E+00
  2.41445475E+00 -1.44685062E+00  8.23647960E-01  8.23647960E-01  2.40534360E+00
 -1.44685062E+00  7.23425310E-01  7.23425310E-01 -1.44685062E+00  7.41647610E-01
  7.41647610E-01 -1.44685062E+00  7.23425310E-01  7.23425310E-01 -1.44685062E+00
  7.23425310E-01  7.23425310E-01  7.23425310E-01  7.23425310E-01 -1.44685062E+00
 -1.46507292E+00  7.23425310E-01  7.23425310E-01  7.05203010E-01 -1.67827383E+00
  7.05203010E-01  5.95869210E-01  5.95869210E-01  5.95869210E-01  1.48511745E+00
 -1.48693968E+00 -1.29560553E+00 -5.61246840E-01 -1.54160658E+00 -1.56711780E+00
 -4.70135340E-01 -1.71289620E+00 -1.18627173E+00  1.43045055E+00 -5.28446700E-01
  2.58756660E+00 -1.76756310E+00 -2.29600980E+00  2.51467740E+00 -1.76756310E+00
 -2.16845370E+00 -7.28892000E-01  2.53289970E+00 -1.22636079E+00  2.44178820E+00
  2.51467740E+00  2.51467740E+00 -2.15023140E+00 -2.15023140E+00 -6.94269630E-01
 -2.36889900E+00  2.46001050E+00 -2.36889900E+00  2.46001050E+00 -1.39218372E+00
  8.96537160E-01  8.96537160E-01 -2.29600980E+00  2.41445475E+00  2.41445475E+00
 -1.44685062E+00  8.23647960E-01  8.23647960E-01  2.40534360E+00 -1.44685062E+00
  7.23425310E-01  7.23425310E-01 -1.44685062E+00  7.41647610E-01  7.41647610E-01
 -1.44685062E+00  7.23425310E-01  7.23425310E-01 -1.44685062E+00  7.23425310E-01
  7.23425310E-01  7.23425310E-01  7.23425310E-01 -1.44685062E+00 -1.46507292E+00
  7.23425310E-01  7.23425310E-01  7.05203010E-01 -1.67827383E+00  7.05203010E-01
  5.95869210E-01  5.95869210E-01  5.95869210E-01  1.48511745E+00 -1.48693968E+00
 -1.29560553E+00 -5.61246840E-01 -1.54160658E+00 -1.56711780E+00 -4.70135340E-01
 -1.71289620E+00 -1.18627173E+00  1.43045055E+00 -5.28446700E-01  2.58756660E+00
 -1.76756310E+00 -2.29600980E+00  2.51467740E+00 -1.76756310E+00 -2.16845370E+00
 -7.28892000E-01  2.53289970E+00 -1.22636079E+00  2.44178820E+00  2.51467740E+00
  2.51467740E+00 -2.15023140E+00 -2.15023140E+00 -6.94269630E-01 -2.36889900E+00
  2.46001050E+00 -2.36889900E+00  2.46001050E+00 -1.39218372E+00  8.96537160E-01
  8.96537160E-01 -2.29600980E+00  2.41445475E+00  2.41445475E+00 -1.44685062E+00
  8.23647960E-01  8.23647960E-01  2.40534360E+00 -1.44685062E+00  7.23425310E-01
  7.23425310E-01 -1.44685062E+00  7.41647610E-01  7.41647610E-01 -1.44685062E+00
  7.23425310E-01  7.23425310E-01 -1.44685062E+00  7.23425310E-01  7.23425310E-01
  7.23425310E-01  7.23425310E-01 -1.44685062E+00 -1.46507292E+00  7.23425310E-01
  7.23425310E-01  7.05203010E-01 -1.67827383E+00  7.05203010E-01  5.95869210E-01
  5.95869210E-01  5.95869210E-01  1.48511745E+00 -1.48693968E+00 -1.29560553E+00
 -5.61246840E-01 -1.54160658E+00 -1.56711780E+00 -4.70135340E-01 -1.71289620E+00
 -1.18627173E+00  1.43045055E+00 -5.28446700E-01  2.58756660E+00 -1.76756310E+00
 -2.29600980E+00  2.51467740E+00 -1.76756310E+00 -2.16845370E+00 -7.28892000E-01
  2.53289970E+00 -1.22636079E+00  2.44178820E+00  2.51467740E+00  2.51467740E+00
 -2.15023140E+00 -2.15023140E+00 -6.94269630E-01 -2.36889900E+00  2.46001050E+00
 -2.36889900E+00  2.46001050E+00 -1.39218372E+00  8.96537160E-01  8.96537160E-01
 -2.29600980E+00  2.41445475E+00  2.41445475E+00 -1.44685062E+00  8.23647960E-01
  8.23647960E-01  2.40534360E+00 -1.44685062E+00  7.23425310E-01  7.23425310E-01
 -1.44685062E+00  7.41647610E-01  7.41647610E-01 -1.44685062E+00  7.23425310E-01
  7.23425310E-01 -1.44685062E+00  7.23425310E-01  7.23425310E-01  7.23425310E-01
  7.23425310E-01 -1.44685062E+00 -1.46507292E+00  7.23425310E-01  7.23425310E-01
  7.05203010E-01 -1.67827383E+00  7.05203010E-01  5.95869210E-01  5.95869210E-01
  5.95869210E-01  1.48511745E+00 -1.48693968E+00 -1.29560553E+00 -5.61246840E-01
 -1.54160658E+00 -1.56711780E+00 -4.70135340E-01 -1.71289620E+00 -1.18627173E+00
  1.43045055E+00 -5.28446700E-01  2.58756660E+00 -1.76756310E+00 -2.29600980E+00
  2.51467740E+00 -1.76756310E+00 -2.16845370E+00 -7.28892000E-01  2.53289970E+00
 -1.22636079E+00  2.44178820E+00  2.51467740E+00  2.51467740E+00 -2.15023140E+00
 -2.15023140E+00 -6.94269630E-01 -2.36889900E+00  2.46001050E+00 -2.36889900E+00
  2.46001050E+00 -1.39218372E+00  8.96537160E-01  8.96537160E-01 -2.29600980E+00
  2.41445475E+00  2.41445475E+00 -1.44685062E+00  8.23647960E-01  8.23647960E-01
  2.40534360E+00 -1.44685062E+00  7.23425310E-01  7.23425310E-01 -1.44685062E+00
  7.41647610E-01  7.41647610E-01 -1.44685062E+00  7.23425310E-01  7.23425310E-01
 -1.44685062E+00  7.23425310E-01  7.23425310E-01  7.23425310E-01  7.23425310E-01
 -1.44685062E+00 -1.46507292E+00  7.23425310E-01  7.23425310E-01  7.05203010E-01
 -1.67827383E+00  7.05203010E-01  5.95869210E-01  5.95869210E-01  5.95869210E-01
  1.48511745E+00 -1.48693968E+00 -1.29560553E+00 -5.61246840E-01 -1.54160658E+00
 -1.56711780E+00 -4.70135340E-01 -1.71289620E+00 -1.18627173E+00  1.43045055E+00
 -5.28446700E-01  2.58756660E+00 -1.76756310E+00 -2.29600980E+00  2.51467740E+00
 -1.76756310E+00 -2.16845370E+00 -7.28892000E-01  2.53289970E+00 -1.22636079E+00
  2.44178820E+00  2.51467740E+00  2.51467740E+00 -2.15023140E+00 -2.15023140E+00
 -6.94269630E-01 -2.36889900E+00  2.46001050E+00 -2.36889900E+00  2.46001050E+00
 -1.39218372E+00  8.96537160E-01  8.96537160E-01 -2.29600980E+00  2.41445475E+00
  2.41445475E+00 -1.44685062E+00  8.23647960E-01  8.23647960E-01  2.40534360E+00
 -1.44685062E+00  7.23425310E-01  7.23425310E-01 -1.44685062E+00  7.41647610E-01
  7.41647610E-01 -1.44685062E+00  7.23425310E-01  7.23425310E-01 -1.44685062E+00
  7.23425310E-01  7.23425310E-01  7.23425310E-01  7.23425310E-01 -1.44685062E+00
 -1.46507292E+00  7.23425310E-01  7.23425310E-01  7.05203010E-01 -1.67827383E+00
  7.05203010E-01  5.95869210E-01  5.95869210E-01  5.95869210E-01  1.48511745E+00
 -1.48693968E+00 -1.29560553E+00 -5.61246840E-01 -1.54160658E+00 -1.56711780E+00
 -4.70135340E-01 -1.71289620E+00 -1.18627173E+00  1.43045055E+00 -5.28446700E-01
  2.58756660E+00 -1.76756310E+00 -2.29600980E+00  2.51467740E+00 -1.76756310E+00
 -2.16845370E+00 -7.28892000E-01  2.53289970E+00 -1.22636079E+00  2.44178820E+00
  2.51467740E+00  2.51467740E+00 -2.15023140E+00 -2.15023140E+00 -6.94269630E-01
 -2.36889900E+00  2.46001050E+00 -2.36889900E+00  2.46001050E+00 -1.39218372E+00
  8.96537160E-01  8.96537160E-01 -2.29600980E+00  2.41445475E+00  2.41445475E+00
 -1.44685062E+00  8.23647960E-01  8.23647960E-01  2.40534360E+00 -1.44685062E+00
  7.23425310E-01  7.23425310E-01 -1.44685062E+00  7.41647610E-01  7.41647610E-01
 -1.44685062E+00  7.23425310E-01  7.23425310E-01 -1.44685062E+00  7.23425310E-01
  7.23425310E-01  7.23425310E-01  7.23425310E-01 -1.44685062E+00 -1.46507292E+00
  7.23425310E-01  7.23425310E-01  7.05203010E-01 -1.67827383E+00  7.05203010E-01
  5.95869210E-01  5.95869210E-01  5.95869210E-01  1.48511745E+00 -1.48693968E+00
 -1.29560553E+00 -5.61246840E-01 -1.54160658E+00 -1.56711780E+00 -4.70135340E-01
 -1.71289620E+00 -1.18627173E+00  1.43045055E+00 -5.28446700E-01  2.58756660E+00
 -1.76756310E+00 -2.29600980E+00  2.51467740E+00 -1.76756310E+00 -2.16845370E+00
 -7.28892000E-01  2.53289970E+00 -1.22636079E+00  2.44178820E+00  2.51467740E+00
  2.51467740E+00 -2.15023140E+00 -2.15023140E+00 -6.94269630E-01 -2.36889900E+00
  2.46001050E+00 -2.36889900E+00  2.46001050E+00 -1.39218372E+00  8.96537160E-01
  8.96537160E-01 -2.29600980E+00  2.41445475E+00  2.41445475E+00 -1.44685062E+00
  8.23647960E-01  8.23647960E-01  2.40534360E+00 -1.44685062E+00  7.23425310E-01
  7.23425310E-01 -1.44685062E+00  7.41647610E-01  7.41647610E-01 -1.44685062E+00
  7.23425310E-01  7.23425310E-01 -1.44685062E+00  7.23425310E-01  7.23425310E-01
  7.23425310E-01  7.23425310E-01 -1.44685062E+00 -1.46507292E+00  7.23425310E-01
  7.23425310E-01  7.05203010E-01 -1.67827383E+00  7.05203010E-01  5.95869210E-01
  5.95869210E-01  5.95869210E-01  1.48511745E+00 -1.48693968E+00 -1.29560553E+00
 -5.61246840E-01 -1.54160658E+00 -1.56711780E+00 -4.70135340E-01 -1.71289620E+00
 -1.18627173E+00  1.43045055E+00 -5.28446700E-01  2.58756660E+00 -1.76756310E+00
 -2.29600980E+00  2.51467740E+00 -1.76756310E+00 -2.16845370E+00 -7.28892000E-01
  2.53289970E+00 -1.22636079E+00  2.44178820E+00  2.51467740E+00  2.51467740E+00
 -2.15023140E+00 -2.15023140E+00 -6.94269630E-01 -2.36889900E+00  2.46001050E+00
 -2.36889900E+00  2.46001050E+00 -1.39218372E+00  8.96537160E-01  8.96537160E-01
 -2.29600980E+00  2.41445475E+00  2.41445475E+00 -1.44685062E+00  8.23647960E-01
  8.23647960E-01  2.40534360E+00 -1.44685062E+00  7.23425310E-01  7.23425310E-01
 -1.44685062E+00  7.41647610E-01  7.41647610E-01 -1.44685062E+00  7.23425310E-01
  7.23425310E-01 -1.44685062E+00  7.23425310E-01  7.23425310E-01  7.23425310E-01
  7.23425310E-01 -1.44685062E+00 -1.46507292E+00  7.23425310E-01  7.23425310E-01
  7.05203010E-01 -1.67827383E+00  7.05203010E-01  5.95869210E-01  5.95869210E-01
  5.95869210E-01  1.48511745E+00 -1.48693968E+00 -1.29560553E+00 -5.61246840E-01
 -1.54160658E+00 -1.56711780E+00 -4.70135340E-01 -1.71289620E+00 -1.18627173E+00
  1.43045055E+00 -5.28446700E-01  2.58756660E+00 -1.76756310E+00 -2.29600980E+00
  2.51467740E+00 -1.76756310E+00 -2.16845370E+00 -7.28892000E-01  2.53289970E+00
 -1.22636079E+00  2.44178820E+00  2.51467740E+00  2.51467740E+00 -2.15023140E+00
 -2.15023140E+00 -6.94269630E-01 -2.36889900E+00  2.46001050E+00 -2.36889900E+00
  2.46001050E+00 -1.39218372E+00  8.96537160E-01  8.96537160E-01 -2.29600980E+00
  2.41445475E+00  2.41445475E+00 -1.44685062E+00  8.23647960E-01  8.23647960E-01
  2.40534360E+00 -1.44685062E+00  7.23425310E-01  7.23425310E-01 -1.44685062E+00
  7.41647610E-01  7.41647610E-01 -1.44685062E+00  7.23425310E-01  7.23425310E-01
 -1.44685062E+00  7.23425310E-01  7.23425310E-01  7.23425310E-01  7.23425310E-01
 -1.44685062E+00 -1.46507292E+00  7.23425310E-01  7.23425310E-01  7.05203010E-01
 -1.67827383E+00  7.05203010E-01  5.95869210E-01  5.95869210E-01  5.95869210E-01
  1.48511745E+00 -1.48693968E+00 -1.29560553E+00 -5.61246840E-01 -1.54160658E+00
 -1.56711780E+00 -4.70135340E-01 -1.71289620E+00 -1.18627173E+00  1.43045055E+00
 -5.28446700E-01  2.58756660E+00 -1.76756310E+00 -2.29600980E+00  2.51467740E+00
 -1.76756310E+00 -2.16845370E+00 -7.28892000E-01  2.53289970E+00 -1.22636079E+00
  2.44178820E+00  2.51467740E+00  2.51467740E+00 -2.15023140E+00 -2.15023140E+00
 -6.94269630E-01 -2.36889900E+00  2.46001050E+00 -2.36889900E+00  2.46001050E+00
 -1.39218372E+00  8.96537160E-01  8.96537160E-01 -2.29600980E+00  2.41445475E+00
  2.41445475E+00 -1.44685062E+00  8.23647960E-01  8.23647960E-01  2.40534360E+00
 -1.44685062E+00  7.23425310E-01  7.23425310E-01 -1.44685062E+00  7.41647610E-01
  7.41647610E-01 -1.44685062E+00  7.23425310E-01  7.23425310E-01 -1.44685062E+00
  7.23425310E-01  7.23425310E-01  7.23425310E-01  7.23425310E-01 -1.44685062E+00
 -1.46507292E+00  7.23425310E-01  7.23425310E-01  7.05203010E-01 -1.67827383E+00
  7.05203010E-01  5.95869210E-01  5.95869210E-01  5.95869210E-01  1.48511745E+00
 -1.48693968E+00 -1.29560553E+00 -5.61246840E-01 -1.54160658E+00 -1.56711780E+00
 -4.70135340E-01 -1.71289620E+00 -1.18627173E+00  1.43045055E+00 -5.28446700E-01
  2.58756660E+00 -1.76756310E+00 -2.29600980E+00  2.51467740E+00 -1.76756310E+00
 -2.16845370E+00 -7.28892000E-01  2.53289970E+00 -1.22636079E+00  2.44178820E+00
  2.51467740E+00  2.51467740E+00 -2.15023140E+00 -2.15023140E+00 -6.94269630E-01
 -2.36889900E+00  2.46001050E+00 -2.36889900E+00  2.46001050E+00 -1.39218372E+00
  8.96537160E-01  8.96537160E-01 -2.29600980E+00  2.41445475E+00  2.41445475E+00
 -1.44685062E+00  8.23647960E-01  8.23647960E-01  2.40534360E+00 -1.44685062E+00
  7.23425310E-01  7.23425310E-01 -1.44685062E+00  7.41647610E-01  7.41647610E-01
 -1.44685062E+00  7.23425310E-01  7.23425310E-01 -1.44685062E+00  7.23425310E-01
  7.23425310E-01  7.23425310E-01  7.23425310E-01 -1.44685062E+00 -1.46507292E+00
  7.23425310E-01  7.23425310E-01  7.05203010E-01 -1.67827383E+00  7.05203010E-01
  5.95869210E-01  5.95869210E-01  5.95869210E-01  1.48511745E+00 -1.48693968E+00
 -1.29560553E+00 -5.61246840E-01 -1.54160658E+00 -1.56711780E+00 -4.70135340E-01
 -1.71289620E+00 -1.18627173E+00  1.43045055E+00 -5.28446700E-01  2.58756660E+00
 -1.76756310E+00 -2.29600980E+00  2.51467740E+00 -1.76756310E+00 -2.16845370E+00
 -7.28892000E-01  2.53289970E+00 -1.22636079E+00  2.44178820E+00  2.51467740E+00
  2.51467740E+00 -2.15023140E+00 -2.15023140E+00 -6.94269630E-01 -2.36889900E+00
  2.46001050E+00 -2.36889900E+00  2.46001050E+00 -1.39218372E+00  8.96537160E-01
  8.96537160E-01 -2.29600980E+00  2.41445475E+00  2.41445475E+00 -1.44685062E+00
  8.23647960E-01  8.23647960E-01  2.40534360E+00 -1.44685062E+00  7.23425310E-01
  7.23425310E-01 -1.44685062E+00  7.41647610E-01  7.41647610E-01 -1.44685062E+00
  7.23425310E-01  7.23425310E-01 -1.44685062E+00  7.23425310E-01  7.23425310E-01
  7.23425310E-01  7.23425310E-01 -1.44685062E+00 -1.46507292E+00  7.23425310E-01
  7.23425310E-01  7.05203010E-01 -1.67827383E+00  7.05203010E-01  5.95869210E-01
  5.95869210E-01  5.95869210E-01  1.48511745E+00 -1.48693968E+00 -1.29560553E+00
 -5.61246840E-01 -1.54160658E+00 -1.56711780E+00 -4.70135340E-01 -1.71289620E+00
 -1.18627173E+00  1.43045055E+00 -5.28446700E-01  2.58756660E+00 -1.76756310E+00
 -2.29600980E+00  2.51467740E+00 -1.76756310E+00 -2.16845370E+00 -7.28892000E-01
  2.53289970E+00 -1.22636079E+00  2.44178820E+00  2.51467740E+00  2.51467740E+00
 -2.15023140E+00 -2.15023140E+00 -6.94269630E-01 -2.36889900E+00  2.46001050E+00
 -2.36889900E+00  2.46001050E+00 -1.39218372E+00  8.96537160E-01  8.96537160E-01
 -2.29600980E+00  2.41445475E+00  2.41445475E+00 -1.44685062E+00  8.23647960E-01
  8.23647960E-01  2.40534360E+00 -1.44685062E+00  7.23425310E-01  7.23425310E-01
 -1.44685062E+00  7.41647610E-01  7.41647610E-01 -1.44685062E+00  7.23425310E-01
  7.23425310E-01 -1.44685062E+00  7.23425310E-01  7.23425310E-01  7.23425310E-01
  7.23425310E-01 -1.44685062E+00 -1.46507292E+00  7.23425310E-01  7.23425310E-01
  7.05203010E-01 -1.67827383E+00  7.05203010E-01  5.95869210E-01  5.95869210E-01
  5.95869210E-01  1.48511745E+00 -1.48693968E+00 -1.29560553E+00 -5.61246840E-01
 -1.54160658E+00 -1.56711780E+00 -4.70135340E-01 -1.71289620E+00 -1.18627173E+00
  1.43045055E+00 -5.28446700E-01  2.58756660E+00 -1.76756310E+00 -2.29600980E+00
  2.51467740E+00 -1.76756310E+00 -2.16845370E+00 -7.28892000E-01  2.53289970E+00
 -1.22636079E+00  2.44178820E+00  2.51467740E+00  2.51467740E+00 -2.15023140E+00
 -2.15023140E+00 -6.94269630E-01 -2.36889900E+00  2.46001050E+00 -2.36889900E+00
  2.46001050E+00 -1.39218372E+00  8.96537160E-01  8.96537160E-01 -2.29600980E+00
  2.41445475E+00  2.41445475E+00 -1.44685062E+00  8.23647960E-01  8.23647960E-01
  2.40534360E+00 -1.44685062E+00  7.23425310E-01  7.23425310E-01 -1.44685062E+00
  7.41647610E-01  7.41647610E-01 -1.44685062E+00  7.23425310E-01  7.23425310E-01
 -1.44685062E+00  7.23425310E-01  7.23425310E-01  7.23425310E-01  7.23425310E-01
 -1.44685062E+00 -1.46507292E+00  7.23425310E-01  7.23425310E-01  7.05203010E-01
 -1.67827383E+00  7.05203010E-01  5.95869210E-01  5.95869210E-01  5.95869210E-01
  1.48511745E+00 -1.48693968E+00 -1.29560553E+00 -5.61246840E-01 -1.54160658E+00
 -1.56711780E+00 -4.70135340E-01 -1.71289620E+00 -1.18627173E+00  1.43045055E+00
 -5.28446700E-01  2.58756660E+00 -1.76756310E+00 -2.29600980E+00  2.51467740E+00
 -1.76756310E+00 -2.16845370E+00 -7.28892000E-01  2.53289970E+00 -1.22636079E+00
  2.44178820E+00  2.51467740E+00  2.51467740E+00 -2.15023140E+00 -2.15023140E+00
 -6.94269630E-01 -2.36889900E+00  2.46001050E+00 -2.36889900E+00  2.46001050E+00
 -1.39218372E+00  8.96537160E-01  8.96537160E-01 -2.29600980E+00  2.41445475E+00
  2.41445475E+00 -1.44685062E+00  8.23647960E-01  8.23647960E-01  2.40534360E+00
 -1.44685062E+00  7.23425310E-01  7.23425310E-01 -1.44685062E+00  7.41647610E-01
  7.41647610E-01 -1.44685062E+00  7.23425310E-01  7.23425310E-01 -1.44685062E+00
  7.23425310E-01  7.23425310E-01  7.23425310E-01  7.23425310E-01 -1.44685062E+00
 -1.46507292E+00  7.23425310E-01  7.23425310E-01  7.05203010E-01 -1.67827383E+00
  7.05203010E-01  5.95869210E-01  5.95869210E-01  5.95869210E-01  1.48511745E+00
 -1.48693968E+00 -1.29560553E+00 -5.61246840E-01 -1.54160658E+00 -1.56711780E+00
 -4.70135340E-01 -1.71289620E+00 -1.18627173E+00  1.43045055E+00 -5.28446700E-01
  2.58756660E+00 -1.76756310E+00 -2.29600980E+00  2.51467740E+00 -1.76756310E+00
 -2.16845370E+00 -7.28892000E-01  2.53289970E+00 -1.22636079E+00  2.44178820E+00
  2.51467740E+00  2.51467740E+00 -2.15023140E+00 -2.15023140E+00 -6.94269630E-01
 -2.36889900E+00  2.46001050E+00 -2.36889900E+00  2.46001050E+00 -1.39218372E+00
  8.96537160E-01  8.96537160E-01 -2.29600980E+00  2.41445475E+00  2.41445475E+00
 -1.44685062E+00  8.23647960E-01  8.23647960E-01  2.40534360E+00 -1.44685062E+00
  7.23425310E-01  7.23425310E-01 -1.44685062E+00  7.41647610E-01  7.41647610E-01
 -1.44685062E+00  7.23425310E-01  7.23425310E-01 -1.44685062E+00  7.23425310E-01
  7.23425310E-01  7.23425310E-01  7.23425310E-01 -1.44685062E+00 -1.46507292E+00
  7.23425310E-01  7.23425310E-01  7.05203010E-01 -1.67827383E+00  7.05203010E-01
  5.95869210E-01  5.95869210E-01  5.95869210E-01  1.48511745E+00 -1.48693968E+00
 -1.29560553E+00 -5.61246840E-01 -1.54160658E+00 -1.56711780E+00 -4.70135340E-01
 -1.71289620E+00 -1.18627173E+00  1.43045055E+00 -5.28446700E-01  2.58756660E+00
 -1.76756310E+00 -2.29600980E+00  2.51467740E+00 -1.76756310E+00 -2.16845370E+00
 -7.28892000E-01  2.53289970E+00 -1.22636079E+00  2.44178820E+00  2.51467740E+00
  2.51467740E+00 -2.15023140E+00 -2.15023140E+00 -6.94269630E-01 -2.36889900E+00
  2.46001050E+00 -2.36889900E+00  2.46001050E+00 -1.39218372E+00  8.96537160E-01
  8.96537160E-01 -2.29600980E+00  2.41445475E+00  2.41445475E+00 -1.44685062E+00
  8.23647960E-01  8.23647960E-01  2.40534360E+00 -1.44685062E+00  7.23425310E-01
  7.23425310E-01 -1.44685062E+00  7.41647610E-01  7.41647610E-01 -1.44685062E+00
  7.23425310E-01  7.23425310E-01 -1.44685062E+00  7.23425310E-01  7.23425310E-01
  7.23425310E-01  7.23425310E-01 -1.44685062E+00 -1.46507292E+00  7.23425310E-01
  7.23425310E-01  7.05203010E-01 -1.67827383E+00  7.05203010E-01  5.95869210E-01
  5.95869210E-01  5.95869210E-01  1.48511745E+00 -1.48693968E+00 -1.29560553E+00
 -5.61246840E-01 -1.54160658E+00 -1.56711780E+00 -4.70135340E-01 -1.71289620E+00
 -1.18627173E+00  1.43045055E+00 -5.28446700E-01  2.58756660E+00 -1.76756310E+00
 -2.29600980E+00  2.51467740E+00 -1.76756310E+00 -2.16845370E+00 -7.28892000E-01
  2.53289970E+00 -1.22636079E+00  2.44178820E+00  2.51467740E+00  2.51467740E+00
 -2.15023140E+00 -2.15023140E+00 -6.94269630E-01 -2.36889900E+00  2.46001050E+00
 -2.36889900E+00  2.46001050E+00 -1.39218372E+00  8.96537160E-01  8.96537160E-01
 -2.29600980E+00  2.41445475E+00  2.41445475E+00 -1.44685062E+00  8.23647960E-01
  8.23647960E-01  2.40534360E+00 -1.44685062E+00  7.23425310E-01  7.23425310E-01
 -1.44685062E+00  7.41647610E-01  7.41647610E-01 -1.44685062E+00  7.23425310E-01
  7.23425310E-01 -1.44685062E+00  7.23425310E-01  7.23425310E-01  7.23425310E-01
  7.23425310E-01 -1.44685062E+00 -1.46507292E+00  7.23425310E-01  7.23425310E-01
  7.05203010E-01 -1.67827383E+00  7.05203010E-01  5.95869210E-01  5.95869210E-01
  5.95869210E-01  1.48511745E+00 -1.48693968E+00 -1.29560553E+00 -5.61246840E-01
 -1.54160658E+00 -1.56711780E+00 -4.70135340E-01 -1.71289620E+00 -1.18627173E+00
  1.43045055E+00 -5.28446700E-01  2.58756660E+00 -1.76756310E+00 -2.29600980E+00
  2.51467740E+00 -1.76756310E+00 -2.16845370E+00 -7.28892000E-01  2.53289970E+00
 -1.22636079E+00  2.44178820E+00  2.51467740E+00  2.51467740E+00 -2.15023140E+00
 -2.15023140E+00 -6.94269630E-01 -2.36889900E+00  2.46001050E+00 -2.36889900E+00
  2.46001050E+00 -1.39218372E+00  8.96537160E-01  8.96537160E-01 -2.29600980E+00
  2.41445475E+00  2.41445475E+00 -1.44685062E+00  8.23647960E-01  8.23647960E-01
  2.40534360E+00 -1.44685062E+00  7.23425310E-01  7.23425310E-01 -1.44685062E+00
  7.41647610E-01  7.41647610E-01 -1.44685062E+00  7.23425310E-01  7.23425310E-01
 -1.44685062E+00  7.23425310E-01  7.23425310E-01  7.23425310E-01  7.23425310E-01
 -1.44685062E+00 -1.46507292E+00  7.23425310E-01  7.23425310E-01  7.05203010E-01
 -1.67827383E+00  7.05203010E-01  5.95869210E-01  5.95869210E-01  5.95869210E-01
  1.48511745E+00 -1.48693968E+00 -1.29560553E+00 -5.61246840E-01 -1.54160658E+00
 -1.56711780E+00 -4.70135340E-01 -1.71289620E+00 -1.18627173E+00  1.43045055E+00
 -5.28446700E-01  2.58756660E+00 -1.76756310E+00 -2.29600980E+00  2.51467740E+00
 -1.76756310E+00 -2.16845370E+00 -7.28892000E-01  2.53289970E+00 -1.22636079E+00
  2.44178820E+00  2.51467740E+00  2.51467740E+00 -2.15023140E+00 -2.15023140E+00
 -6.94269630E-01 -2.36889900E+00  2.46001050E+00 -2.36889900E+00  2.46001050E+00
 -1.39218372E+00  8.96537160E-01  8.96537160E-01 -2.29600980E+00  2.41445475E+00
  2.41445475E+00 -1.44685062E+00  8.23647960E-01  8.23647960E-01  2.40534360E+00
 -1.44685062E+00  7.23425310E-01  7.23425310E-01 -1.44685062E+00  7.41647610E-01
  7.41647610E-01 -1.44685062E+00  7.23425310E-01  7.23425310E-01 -1.44685062E+00
  7.23425310E-01  7.23425310E-01  7.23425310E-01  7.23425310E-01 -1.44685062E+00
 -1.46507292E+00  7.23425310E-01  7.23425310E-01  7.05203010E-01 -1.67827383E+00
  7.05203010E-01  5.95869210E-01  5.95869210E-01  5.95869210E-01  1.48511745E+00
 -1.48693968E+00 -1.29560553E+00 -5.61246840E-01 -1.54160658E+00 -1.56711780E+00
 -4.70135340E-01 -1.71289620E+00 -1.18627173E+00  1.43045055E+00 -5.28446700E-01
  2.58756660E+00 -1.76756310E+00 -2.29600980E+00  2.51467740E+00 -1.76756310E+00
 -2.16845370E+00 -7.28892000E-01  2.53289970E+00 -1.22636079E+00  2.44178820E+00
  2.51467740E+00  2.51467740E+00 -2.15023140E+00 -2.15023140E+00 -6.94269630E-01
 -2.36889900E+00  2.46001050E+00 -2.36889900E+00  2.46001050E+00 -1.39218372E+00
  8.96537160E-01  8.96537160E-01 -2.29600980E+00  2.41445475E+00  2.41445475E+00
 -1.44685062E+00  8.23647960E-01  8.23647960E-01  2.40534360E+00 -1.44685062E+00
  7.23425310E-01  7.23425310E-01 -1.44685062E+00  7.41647610E-01  7.41647610E-01
 -1.44685062E+00  7.23425310E-01  7.23425310E-01 -1.44685062E+00  7.23425310E-01
  7.23425310E-01  7.23425310E-01  7.23425310E-01 -1.44685062E+00 -1.46507292E+00
  7.23425310E-01  7.23425310E-01  7.05203010E-01 -1.67827383E+00  7.05203010E-01
  5.95869210E-01  5.95869210E-01  5.95869210E-01  1.48511745E+00 -1.48693968E+00
 -1.29560553E+00 -5.61246840E-01 -1.54160658E+00 -1.56711780E+00 -4.70135340E-01
 -1.71289620E+00 -1.18627173E+00  1.43045055E+00 -5.28446700E-01  2.58756660E+00
 -1.76756310E+00 -2.29600980E+00  2.51467740E+00 -1.76756310E+00 -2.16845370E+00
 -7.28892000E-01  2.53289970E+00 -1.22636079E+00  2.44178820E+00  2.51467740E+00
  2.51467740E+00 -2.15023140E+00 -2.15023140E+00 -6.94269630E-01 -2.36889900E+00
  2.46001050E+00 -2.36889900E+00  2.46001050E+00 -1.39218372E+00  8.96537160E-01
  8.96537160E-01 -2.29600980E+00  2.41445475E+00  2.41445475E+00 -1.44685062E+00
  8.23647960E-01  8.23647960E-01  2.40534360E+00 -1.44685062E+00  7.23425310E-01
  7.23425310E-01 -1.44685062E+00  7.41647610E-01  7.41647610E-01 -1.44685062E+00
  7.23425310E-01  7.23425310E-01 -1.44685062E+00  7.23425310E-01  7.23425310E-01
  7.23425310E-01  7.23425310E-01 -1.44685062E+00 -1.46507292E+00  7.23425310E-01
  7.23425310E-01  7.05203010E-01 -1.67827383E+00  7.05203010E-01  5.95869210E-01
  5.95869210E-01  5.95869210E-01  1.48511745E+00 -1.48693968E+00 -1.29560553E+00
 -5.61246840E-01 -1.54160658E+00 -1.56711780E+00 -4.70135340E-01 -1.71289620E+00
 -1.18627173E+00  1.43045055E+00 -5.28446700E-01  2.58756660E+00 -1.76756310E+00
 -2.29600980E+00  2.51467740E+00 -1.76756310E+00 -2.16845370E+00 -7.28892000E-01
  2.53289970E+00 -1.22636079E+00  2.44178820E+00  2.51467740E+00  2.51467740E+00
 -2.15023140E+00 -2.15023140E+00 -6.94269630E-01 -2.36889900E+00  2.46001050E+00
 -2.36889900E+00  2.46001050E+00 -1.39218372E+00  8.96537160E-01  8.96537160E-01
 -2.29600980E+00  2.41445475E+00  2.41445475E+00 -1.44685062E+00  8.23647960E-01
  8.23647960E-01  2.40534360E+00 -1.44685062E+00  7.23425310E-01  7.23425310E-01
 -1.44685062E+00  7.41647610E-01  7.41647610E-01 -1.44685062E+00  7.23425310E-01
  7.23425310E-01 -1.44685062E+00  7.23425310E-01  7.23425310E-01  7.23425310E-01
  7.23425310E-01 -1.44685062E+00 -1.46507292E+00  7.23425310E-01  7.23425310E-01
  7.05203010E-01 -1.67827383E+00  7.05203010E-01  5.95869210E-01  5.95869210E-01
  5.95869210E-01  1.48511745E+00 -1.48693968E+00 -1.29560553E+00 -5.61246840E-01
 -1.54160658E+00 -1.56711780E+00 -4.70135340E-01 -1.71289620E+00 -1.18627173E+00
  1.43045055E+00 -5.28446700E-01  2.58756660E+00 -1.76756310E+00 -2.29600980E+00
  2.51467740E+00 -1.76756310E+00 -2.16845370E+00 -7.28892000E-01  2.53289970E+00
 -1.22636079E+00  2.44178820E+00  2.51467740E+00  2.51467740E+00 -2.15023140E+00
 -2.15023140E+00 -6.94269630E-01 -2.36889900E+00  2.46001050E+00 -2.36889900E+00
  2.46001050E+00 -1.39218372E+00  8.96537160E-01  8.96537160E-01 -2.29600980E+00
  2.41445475E+00  2.41445475E+00 -1.44685062E+00  8.23647960E-01  8.23647960E-01
  2.40534360E+00 -1.44685062E+00  7.23425310E-01  7.23425310E-01 -1.44685062E+00
  7.41647610E-01  7.41647610E-01 -1.44685062E+00  7.23425310E-01  7.23425310E-01
 -1.44685062E+00  7.23425310E-01  7.23425310E-01  7.23425310E-01  7.23425310E-01
 -1.44685062E+00 -1.46507292E+00  7.23425310E-01  7.23425310E-01  7.05203010E-01
 -1.67827383E+00  7.05203010E-01  5.95869210E-01  5.95869210E-01  5.95869210E-01
  1.48511745E+00 -1.48693968E+00 -1.29560553E+00 -5.61246840E-01 -1.54160658E+00
 -1.56711780E+00 -4.70135340E-01 -1.71289620E+00 -1.18627173E+00  1.43045055E+00
 -5.28446700E-01  2.58756660E+00 -1.76756310E+00 -2.29600980E+00  2.51467740E+00
 -1.76756310E+00 -2.16845370E+00 -7.28892000E-01  2.53289970E+00 -1.22636079E+00
  2.44178820E+00  2.51467740E+00  2.51467740E+00 -2.15023140E+00 -2.15023140E+00
 -6.94269630E-01 -2.36889900E+00  2.46001050E+00 -2.36889900E+00  2.46001050E+00
 -1.39218372E+00  8.96537160E-01  8.96537160E-01 -2.29600980E+00  2.41445475E+00
  2.41445475E+00 -1.44685062E+00  8.23647960E-01  8.23647960E-01  2.40534360E+00
 -1.44685062E+00  7.23425310E-01  7.23425310E-01 -1.44685062E+00  7.41647610E-01
  7.41647610E-01 -1.44685062E+00  7.23425310E-01  7.23425310E-01 -1.44685062E+00
  7.23425310E-01  7.23425310E-01  7.23425310E-01  7.23425310E-01 -1.44685062E+00
 -1.46507292E+00  7.23425310E-01  7.23425310E-01  7.05203010E-01 -1.67827383E+00
  7.05203010E-01  5.95869210E-01  5.95869210E-01  5.95869210E-01  1.48511745E+00
 -1.48693968E+00 -1.29560553E+00 -5.61246840E-01 -1.54160658E+00 -1.56711780E+00
 -4.70135340E-01 -1.71289620E+00 -1.18627173E+00  1.43045055E+00 -5.28446700E-01
  2.58756660E+00 -1.76756310E+00 -2.29600980E+00  2.51467740E+00 -1.76756310E+00
 -2.16845370E+00 -7.28892000E-01  2.53289970E+00 -1.22636079E+00  2.44178820E+00
  2.51467740E+00  2.51467740E+00 -2.15023140E+00 -2.15023140E+00 -6.94269630E-01
 -2.36889900E+00  2.46001050E+00 -2.36889900E+00  2.46001050E+00 -1.39218372E+00
  8.96537160E-01  8.96537160E-01 -2.29600980E+00  2.41445475E+00  2.41445475E+00
 -1.44685062E+00  8.23647960E-01  8.23647960E-01  2.40534360E+00 -1.44685062E+00
  7.23425310E-01  7.23425310E-01 -1.44685062E+00  7.41647610E-01  7.41647610E-01
 -1.44685062E+00  7.23425310E-01  7.23425310E-01 -1.44685062E+00  7.23425310E-01
  7.23425310E-01  7.23425310E-01  7.23425310E-01 -1.44685062E+00 -1.46507292E+00
  7.23425310E-01  7.23425310E-01  7.05203010E-01 -1.67827383E+00  7.05203010E-01
  5.95869210E-01  5.95869210E-01  5.95869210E-01  1.48511745E+00 -1.48693968E+00
 -1.29560553E+00 -5.61246840E-01 -1.54160658E+00 -1.56711780E+00 -4.70135340E-01
 -1.71289620E+00 -1.18627173E+00  1.43045055E+00 -5.28446700E-01  2.58756660E+00
 -1.76756310E+00 -2.29600980E+00  2.51467740E+00 -1.76756310E+00 -2.16845370E+00
 -7.28892000E-01  2.53289970E+00 -1.22636079E+00  2.44178820E+00  2.51467740E+00
  2.51467740E+00 -2.15023140E+00 -2.15023140E+00 -6.94269630E-01 -2.36889900E+00
  2.46001050E+00 -2.36889900E+00  2.46001050E+00 -1.39218372E+00  8.96537160E-01
  8.96537160E-01 -2.29600980E+00  2.41445475E+00  2.41445475E+00 -1.44685062E+00
  8.23647960E-01  8.23647960E-01  2.40534360E+00 -1.44685062E+00  7.23425310E-01
  7.23425310E-01 -1.44685062E+00  7.41647610E-01  7.41647610E-01 -1.44685062E+00
  7.23425310E-01  7.23425310E-01 -1.44685062E+00  7.23425310E-01  7.23425310E-01
  7.23425310E-01  7.23425310E-01 -1.44685062E+00 -1.46507292E+00  7.23425310E-01
  7.23425310E-01  7.05203010E-01 -1.67827383E+00  7.05203010E-01  5.95869210E-01
  5.95869210E-01  5.95869210E-01  1.48511745E+00 -1.48693968E+00 -1.29560553E+00
 -5.61246840E-01 -1.54160658E+00 -1.56711780E+00 -4.70135340E-01 -1.71289620E+00
 -1.18627173E+00  1.43045055E+00 -5.28446700E-01  2.58756660E+00 -1.76756310E+00
 -2.29600980E+00  2.51467740E+00 -1.76756310E+00 -2.16845370E+00 -7.28892000E-01
  2.53289970E+00 -1.22636079E+00  2.44178820E+00  2.51467740E+00  2.51467740E+00
 -2.15023140E+00 -2.15023140E+00 -6.94269630E-01 -2.36889900E+00  2.46001050E+00
 -2.36889900E+00  2.46001050E+00 -1.39218372E+00  8.96537160E-01  8.96537160E-01
 -2.29600980E+00  2.41445475E+00  2.41445475E+00 -1.44685062E+00  8.23647960E-01
  8.23647960E-01  2.40534360E+00 -1.44685062E+00  7.23425310E-01  7.23425310E-01
 -1.44685062E+00  7.41647610E-01  7.41647610E-01 -1.44685062E+00  7.23425310E-01
  7.23425310E-01 -1.44685062E+00  7.23425310E-01  7.23425310E-01  7.23425310E-01
  7.23425310E-01 -1.44685062E+00 -1.46507292E+00  7.23425310E-01  7.23425310E-01
  7.05203010E-01 -1.67827383E+00  7.05203010E-01  5.95869210E-01  5.95869210E-01
  5.95869210E-01  1.48511745E+00 -1.48693968E+00 -1.29560553E+00 -5.61246840E-01
 -1.54160658E+00 -1.56711780E+00 -4.70135340E-01 -1.71289620E+00 -1.18627173E+00
  1.43045055E+00 -5.28446700E-01  2.58756660E+00 -1.76756310E+00 -2.29600980E+00
  2.51467740E+00 -1.76756310E+00 -2.16845370E+00 -7.28892000E-01  2.53289970E+00
 -1.22636079E+00  2.44178820E+00  2.51467740E+00  2.51467740E+00 -2.15023140E+00
 -2.15023140E+00 -6.94269630E-01 -2.36889900E+00  2.46001050E+00 -2.36889900E+00
  2.46001050E+00 -1.39218372E+00  8.96537160E-01  8.96537160E-01 -2.29600980E+00
  2.41445475E+00  2.41445475E+00 -1.44685062E+00  8.23647960E-01  8.23647960E-01
  2.40534360E+00 -1.44685062E+00  7.23425310E-01  7.23425310E-01 -1.44685062E+00
  7.41647610E-01  7.41647610E-01 -1.44685062E+00  7.23425310E-01  7.23425310E-01
 -1.44685062E+00  7.23425310E-01  7.23425310E-01  7.23425310E-01  7.23425310E-01
 -1.44685062E+00 -1.46507292E+00  7.23425310E-01  7.23425310E-01  7.05203010E-01
 -1.67827383E+00  7.05203010E-01  5.95869210E-01  5.95869210E-01  5.95869210E-01
  1.48511745E+00 -1.48693968E+00 -1.29560553E+00 -5.61246840E-01 -1.54160658E+00
 -1.56711780E+00 -4.70135340E-01 -1.71289620E+00 -1.18627173E+00  1.43045055E+00
 -5.28446700E-01  2.58756660E+00 -1.76756310E+00 -2.29600980E+00  2.51467740E+00
 -1.76756310E+00 -2.16845370E+00 -7.28892000E-01  2.53289970E+00 -1.22636079E+00
  2.44178820E+00  2.51467740E+00  2.51467740E+00 -2.15023140E+00 -2.15023140E+00
 -6.94269630E-01 -2.36889900E+00  2.46001050E+00 -2.36889900E+00  2.46001050E+00
 -1.39218372E+00  8.96537160E-01  8.96537160E-01 -2.29600980E+00  2.41445475E+00
  2.41445475E+00 -1.44685062E+00  8.23647960E-01  8.23647960E-01  2.40534360E+00
 -1.44685062E+00  7.23425310E-01  7.23425310E-01 -1.44685062E+00  7.41647610E-01
  7.41647610E-01 -1.44685062E+00  7.23425310E-01  7.23425310E-01 -1.44685062E+00
  7.23425310E-01  7.23425310E-01  7.23425310E-01  7.23425310E-01 -1.44685062E+00
 -1.46507292E+00  7.23425310E-01  7.23425310E-01  7.05203010E-01 -1.67827383E+00
  7.05203010E-01  5.95869210E-01  5.95869210E-01  5.95869210E-01  1.48511745E+00
 -1.48693968E+00 -1.29560553E+00 -5.61246840E-01 -1.54160658E+00 -1.56711780E+00
 -4.70135340E-01 -1.71289620E+00 -1.18627173E+00  1.43045055E+00 -5.28446700E-01
  2.58756660E+00 -1.76756310E+00 -2.29600980E+00  2.51467740E+00 -1.76756310E+00
 -2.16845370E+00 -7.28892000E-01  2.53289970E+00 -1.22636079E+00  2.44178820E+00
  2.51467740E+00  2.51467740E+00 -2.15023140E+00 -2.15023140E+00 -6.94269630E-01
 -2.36889900E+00  2.46001050E+00 -2.36889900E+00  2.46001050E+00 -1.39218372E+00
  8.96537160E-01  8.96537160E-01 -2.29600980E+00  2.41445475E+00  2.41445475E+00
 -1.44685062E+00  8.23647960E-01  8.23647960E-01  2.40534360E+00 -1.44685062E+00
  7.23425310E-01  7.23425310E-01 -1.44685062E+00  7.41647610E-01  7.41647610E-01
 -1.44685062E+00  7.23425310E-01  7.23425310E-01 -1.44685062E+00  7.23425310E-01
  7.23425310E-01  7.23425310E-01  7.23425310E-01 -1.44685062E+00 -1.46507292E+00
  7.23425310E-01  7.23425310E-01  7.05203010E-01 -1.67827383E+00  7.05203010E-01
  5.95869210E-01  5.95869210E-01  5.95869210E-01  1.48511745E+00 -1.48693968E+00
 -1.29560553E+00 -5.61246840E-01 -1.54160658E+00 -1.56711780E+00 -4.70135340E-01
 -1.71289620E+00 -1.18627173E+00  1.43045055E+00 -5.28446700E-01  2.58756660E+00
 -1.76756310E+00 -2.29600980E+00  2.51467740E+00 -1.76756310E+00 -2.16845370E+00
 -7.28892000E-01  2.53289970E+00 -1.22636079E+00  2.44178820E+00  2.51467740E+00
  2.51467740E+00 -2.15023140E+00 -2.15023140E+00 -6.94269630E-01 -2.36889900E+00
  2.46001050E+00 -2.36889900E+00  2.46001050E+00 -1.39218372E+00  8.96537160E-01
  8.96537160E-01 -2.29600980E+00  2.41445475E+00  2.41445475E+00 -1.44685062E+00
  8.23647960E-01  8.23647960E-01  2.40534360E+00 -1.44685062E+00  7.23425310E-01
  7.23425310E-01 -1.44685062E+00  7.41647610E-01  7.41647610E-01 -1.44685062E+00
  7.23425310E-01  7.23425310E-01 -1.44685062E+00  7.23425310E-01  7.23425310E-01
  7.23425310E-01  7.23425310E-01 -1.44685062E+00 -1.46507292E+00  7.23425310E-01
  7.23425310E-01  7.05203010E-01 -1.67827383E+00  7.05203010E-01  5.95869210E-01
  5.95869210E-01  5.95869210E-01  1.48511745E+00 -1.48693968E+00 -1.29560553E+00
 -5.61246840E-01 -1.54160658E+00 -1.56711780E+00 -4.70135340E-01 -1.71289620E+00
 -1.18627173E+00  1.43045055E+00 -5.28446700E-01  2.58756660E+00 -1.76756310E+00
 -2.29600980E+00  2.51467740E+00 -1.76756310E+00 -2.16845370E+00 -7.28892000E-01
  2.53289970E+00 -1.22636079E+00  2.44178820E+00  2.51467740E+00  2.51467740E+00
 -2.15023140E+00 -2.15023140E+00 -6.94269630E-01 -2.36889900E+00  2.46001050E+00
 -2.36889900E+00  2.46001050E+00 -1.39218372E+00  8.96537160E-01  8.96537160E-01
 -2.29600980E+00  2.41445475E+00  2.41445475E+00 -1.44685062E+00  8.23647960E-01
  8.23647960E-01  2.40534360E+00 -1.44685062E+00  7.23425310E-01  7.23425310E-01
 -1.44685062E+00  7.41647610E-01  7.41647610E-01 -1.44685062E+00  7.23425310E-01
  7.23425310E-01 -1.44685062E+00  7.23425310E-01  7.23425310E-01  7.23425310E-01
  7.23425310E-01 -1.44685062E+00 -1.46507292E+00  7.23425310E-01  7.23425310E-01
  7.05203010E-01 -1.67827383E+00  7.05203010E-01  5.95869210E-01  5.95869210E-01
  5.95869210E-01  1.48511745E+00 -1.48693968E+00 -1.29560553E+00 -5.61246840E-01
 -1.54160658E+00 -1.56711780E+00 -4.70135340E-01 -1.71289620E+00 -1.18627173E+00
  1.43045055E+00 -5.28446700E-01  2.58756660E+00 -1.76756310E+00 -2.29600980E+00
  2.51467740E+00 -1.76756310E+00 -2.16845370E+00 -7.28892000E-01  2.53289970E+00
 -1.22636079E+00  2.44178820E+00  2.51467740E+00  2.51467740E+00 -2.15023140E+00
 -2.15023140E+00 -6.94269630E-01 -2.36889900E+00  2.46001050E+00 -2.36889900E+00
  2.46001050E+00 -1.39218372E+00  8.96537160E-01  8.96537160E-01 -2.29600980E+00
  2.41445475E+00  2.41445475E+00 -1.44685062E+00  8.23647960E-01  8.23647960E-01
  2.40534360E+00 -1.44685062E+00  7.23425310E-01  7.23425310E-01 -1.44685062E+00
  7.41647610E-01  7.41647610E-01 -1.44685062E+00  7.23425310E-01  7.23425310E-01
 -1.44685062E+00  7.23425310E-01  7.23425310E-01  7.23425310E-01  7.23425310E-01
 -1.44685062E+00 -1.46507292E+00  7.23425310E-01  7.23425310E-01  7.05203010E-01
 -1.67827383E+00  7.05203010E-01  5.95869210E-01  5.95869210E-01  5.95869210E-01
  1.48511745E+00 -1.48693968E+00 -1.29560553E+00 -5.61246840E-01 -1.54160658E+00
 -1.56711780E+00 -4.70135340E-01 -1.71289620E+00 -1.18627173E+00  1.43045055E+00
 -5.28446700E-01  2.58756660E+00 -1.76756310E+00 -2.29600980E+00  2.51467740E+00
 -1.76756310E+00 -2.16845370E+00 -7.28892000E-01  2.53289970E+00 -1.22636079E+00
  2.44178820E+00  2.51467740E+00  2.51467740E+00 -2.15023140E+00 -2.15023140E+00
 -6.94269630E-01 -2.36889900E+00  2.46001050E+00 -2.36889900E+00  2.46001050E+00
 -1.39218372E+00  8.96537160E-01  8.96537160E-01 -2.29600980E+00  2.41445475E+00
  2.41445475E+00 -1.44685062E+00  8.23647960E-01  8.23647960E-01  2.40534360E+00
 -1.44685062E+00  7.23425310E-01  7.23425310E-01 -1.44685062E+00  7.41647610E-01
  7.41647610E-01 -1.44685062E+00  7.23425310E-01  7.23425310E-01 -1.44685062E+00
  7.23425310E-01  7.23425310E-01  7.23425310E-01  7.23425310E-01 -1.44685062E+00
 -1.46507292E+00  7.23425310E-01  7.23425310E-01  7.05203010E-01 -1.67827383E+00
  7.05203010E-01  5.95869210E-01  5.95869210E-01  5.95869210E-01  1.48511745E+00
 -1.48693968E+00 -1.29560553E+00 -5.61246840E-01 -1.54160658E+00 -1.56711780E+00
 -4.70135340E-01 -1.71289620E+00 -1.18627173E+00  1.43045055E+00 -5.28446700E-01
  2.58756660E+00 -1.76756310E+00 -2.29600980E+00  2.51467740E+00 -1.76756310E+00
 -2.16845370E+00 -7.28892000E-01  2.53289970E+00 -1.22636079E+00  2.44178820E+00
  2.51467740E+00  2.51467740E+00 -2.15023140E+00 -2.15023140E+00 -6.94269630E-01
 -2.36889900E+00  2.46001050E+00 -2.36889900E+00  2.46001050E+00 -1.39218372E+00
  8.96537160E-01  8.96537160E-01 -2.29600980E+00  2.41445475E+00  2.41445475E+00
 -1.44685062E+00  8.23647960E-01  8.23647960E-01  2.40534360E+00 -1.44685062E+00
  7.23425310E-01  7.23425310E-01 -1.44685062E+00  7.41647610E-01  7.41647610E-01
 -1.44685062E+00  7.23425310E-01  7.23425310E-01 -1.44685062E+00  7.23425310E-01
  7.23425310E-01  7.23425310E-01  7.23425310E-01 -1.44685062E+00 -1.46507292E+00
  7.23425310E-01  7.23425310E-01  7.05203010E-01 -1.67827383E+00  7.05203010E-01
  5.95869210E-01  5.95869210E-01  5.95869210E-01  1.48511745E+00 -1.48693968E+00
 -1.29560553E+00 -5.61246840E-01 -1.54160658E+00 -1.56711780E+00 -4.70135340E-01
 -1.71289620E+00 -1.18627173E+00  1.43045055E+00 -5.28446700E-01  2.58756660E+00
 -1.76756310E+00 -2.29600980E+00  2.51467740E+00 -1.76756310E+00 -2.16845370E+00
 -7.28892000E-01  2.53289970E+00 -1.22636079E+00  2.44178820E+00  2.51467740E+00
  2.51467740E+00 -2.15023140E+00 -2.15023140E+00 -6.94269630E-01 -2.36889900E+00
  2.46001050E+00 -2.36889900E+00  2.46001050E+00 -1.39218372E+00  8.96537160E-01
  8.96537160E-01 -2.29600980E+00  2.41445475E+00  2.41445475E+00 -1.44685062E+00
  8.23647960E-01  8.23647960E-01  2.40534360E+00 -1.44685062E+00  7.23425310E-01
  7.23425310E-01 -1.44685062E+00  7.41647610E-01  7.41647610E-01 -1.44685062E+00
  7.23425310E-01  7.23425310E-01 -1.44685062E+00  7.23425310E-01  7.23425310E-01
  7.23425310E-01  7.23425310E-01 -1.44685062E+00 -1.46507292E+00  7.23425310E-01
  7.23425310E-01  7.05203010E-01 -1.67827383E+00  7.05203010E-01  5.95869210E-01
  5.95869210E-01  5.95869210E-01  1.48511745E+00 -1.48693968E+00 -1.29560553E+00
 -5.61246840E-01 -1.54160658E+00 -1.56711780E+00 -4.70135340E-01 -1.71289620E+00
 -1.18627173E+00  1.43045055E+00 -5.28446700E-01  2.58756660E+00 -1.76756310E+00
 -2.29600980E+00  2.51467740E+00 -1.76756310E+00 -2.16845370E+00 -7.28892000E-01
  2.53289970E+00 -1.22636079E+00  2.44178820E+00  2.51467740E+00  2.51467740E+00
 -2.15023140E+00 -2.15023140E+00 -6.94269630E-01 -2.36889900E+00  2.46001050E+00
 -2.36889900E+00  2.46001050E+00 -1.39218372E+00  8.96537160E-01  8.96537160E-01
 -2.29600980E+00  2.41445475E+00  2.41445475E+00 -1.44685062E+00  8.23647960E-01
  8.23647960E-01  2.40534360E+00 -1.44685062E+00  7.23425310E-01  7.23425310E-01
 -1.44685062E+00  7.41647610E-01  7.41647610E-01 -1.44685062E+00  7.23425310E-01
  7.23425310E-01 -1.44685062E+00  7.23425310E-01  7.23425310E-01  7.23425310E-01
  7.23425310E-01 -1.44685062E+00 -1.46507292E+00  7.23425310E-01  7.23425310E-01
  7.05203010E-01 -1.67827383E+00  7.05203010E-01  5.95869210E-01  5.95869210E-01
  5.95869210E-01  1.48511745E+00 -1.48693968E+00 -1.29560553E+00 -5.61246840E-01
 -1.54160658E+00 -1.56711780E+00 -4.70135340E-01 -1.71289620E+00 -1.18627173E+00
  1.43045055E+00 -5.28446700E-01  2.58756660E+00 -1.76756310E+00 -2.29600980E+00
  2.51467740E+00 -1.76756310E+00 -2.16845370E+00 -7.28892000E-01  2.53289970E+00
 -1.22636079E+00  2.44178820E+00  2.51467740E+00  2.51467740E+00 -2.15023140E+00
 -2.15023140E+00 -6.94269630E-01 -2.36889900E+00  2.46001050E+00 -2.36889900E+00
  2.46001050E+00 -1.39218372E+00  8.96537160E-01  8.96537160E-01 -2.29600980E+00
  2.41445475E+00  2.41445475E+00 -1.44685062E+00  8.23647960E-01  8.23647960E-01
  2.40534360E+00 -1.44685062E+00  7.23425310E-01  7.23425310E-01 -1.44685062E+00
  7.41647610E-01  7.41647610E-01 -1.44685062E+00  7.23425310E-01  7.23425310E-01
 -1.44685062E+00  7.23425310E-01  7.23425310E-01  7.23425310E-01  7.23425310E-01
 -1.44685062E+00 -1.46507292E+00  7.23425310E-01  7.23425310E-01  7.05203010E-01
 -1.67827383E+00  7.05203010E-01  5.95869210E-01  5.95869210E-01  5.95869210E-01
  1.48511745E+00 -1.48693968E+00 -1.29560553E+00 -5.61246840E-01 -1.54160658E+00
 -1.56711780E+00 -4.70135340E-01 -1.71289620E+00 -1.18627173E+00  1.43045055E+00
 -5.28446700E-01  2.58756660E+00 -1.76756310E+00 -2.29600980E+00  2.51467740E+00
 -1.76756310E+00 -2.16845370E+00 -7.28892000E-01  2.53289970E+00 -1.22636079E+00
  2.44178820E+00  2.51467740E+00  2.51467740E+00 -2.15023140E+00 -2.15023140E+00
 -6.94269630E-01 -2.36889900E+00  2.46001050E+00 -2.36889900E+00  2.46001050E+00
 -1.39218372E+00  8.96537160E-01  8.96537160E-01 -2.29600980E+00  2.41445475E+00
  2.41445475E+00 -1.44685062E+00  8.23647960E-01  8.23647960E-01  2.40534360E+00
 -1.44685062E+00  7.23425310E-01  7.23425310E-01 -1.44685062E+00  7.41647610E-01
  7.41647610E-01 -1.44685062E+00  7.23425310E-01  7.23425310E-01 -1.44685062E+00
  7.23425310E-01  7.23425310E-01  7.23425310E-01  7.23425310E-01 -1.44685062E+00
 -1.46507292E+00  7.23425310E-01  7.23425310E-01  7.05203010E-01 -1.67827383E+00
  7.05203010E-01  5.95869210E-01  5.95869210E-01  5.95869210E-01  1.48511745E+00
 -1.48693968E+00 -1.29560553E+00 -5.61246840E-01 -1.54160658E+00 -1.56711780E+00
 -4.70135340E-01 -1.71289620E+00 -1.18627173E+00  1.43045055E+00 -5.28446700E-01
  2.58756660E+00 -1.76756310E+00 -2.29600980E+00  2.51467740E+00 -1.76756310E+00
 -2.16845370E+00 -7.28892000E-01  2.53289970E+00 -1.22636079E+00  2.44178820E+00
  2.51467740E+00  2.51467740E+00 -2.15023140E+00 -2.15023140E+00 -6.94269630E-01
 -2.36889900E+00  2.46001050E+00 -2.36889900E+00  2.46001050E+00 -1.39218372E+00
  8.96537160E-01  8.96537160E-01 -2.29600980E+00  2.41445475E+00  2.41445475E+00
 -1.44685062E+00  8.23647960E-01  8.23647960E-01  2.40534360E+00 -1.44685062E+00
  7.23425310E-01  7.23425310E-01 -1.44685062E+00  7.41647610E-01  7.41647610E-01
 -1.44685062E+00  7.23425310E-01  7.23425310E-01 -1.44685062E+00  7.23425310E-01
  7.23425310E-01  7.23425310E-01  7.23425310E-01 -1.44685062E+00 -1.46507292E+00
  7.23425310E-01  7.23425310E-01  7.05203010E-01 -1.67827383E+00  7.05203010E-01
  5.95869210E-01  5.95869210E-01  5.95869210E-01  1.48511745E+00 -1.48693968E+00
 -1.29560553E+00 -5.61246840E-01 -1.54160658E+00 -1.56711780E+00 -4.70135340E-01
 -1.71289620E+00 -1.18627173E+00  1.43045055E+00 -5.28446700E-01  2.58756660E+00
 -1.76756310E+00 -2.29600980E+00  2.51467740E+00 -1.76756310E+00 -2.16845370E+00
 -7.28892000E-01  2.53289970E+00 -1.22636079E+00  2.44178820E+00  2.51467740E+00
  2.51467740E+00 -2.15023140E+00 -2.15023140E+00 -6.94269630E-01 -2.36889900E+00
  2.46001050E+00 -2.36889900E+00  2.46001050E+00 -1.39218372E+00  8.96537160E-01
  8.96537160E-01 -2.29600980E+00  2.41445475E+00  2.41445475E+00 -1.44685062E+00
  8.23647960E-01  8.23647960E-01  2.40534360E+00 -1.44685062E+00  7.23425310E-01
  7.23425310E-01 -1.44685062E+00  7.41647610E-01  7.41647610E-01 -1.44685062E+00
  7.23425310E-01  7.23425310E-01 -1.44685062E+00  7.23425310E-01  7.23425310E-01
  7.23425310E-01  7.23425310E-01 -1.44685062E+00 -1.46507292E+00  7.23425310E-01
  7.23425310E-01  7.05203010E-01 -1.67827383E+00  7.05203010E-01  5.95869210E-01
  5.95869210E-01  5.95869210E-01  1.48511745E+00 -1.48693968E+00 -1.29560553E+00
 -5.61246840E-01 -1.54160658E+00 -1.56711780E+00 -4.70135340E-01 -1.71289620E+00
 -1.18627173E+00  1.43045055E+00 -5.28446700E-01  2.58756660E+00 -1.76756310E+00
 -2.29600980E+00  2.51467740E+00 -1.76756310E+00 -2.16845370E+00 -7.28892000E-01
  2.53289970E+00 -1.22636079E+00  2.44178820E+00  2.51467740E+00  2.51467740E+00
 -2.15023140E+00 -2.15023140E+00 -6.94269630E-01 -2.36889900E+00  2.46001050E+00
 -2.36889900E+00  2.46001050E+00 -1.39218372E+00  8.96537160E-01  8.96537160E-01
 -2.29600980E+00  2.41445475E+00  2.41445475E+00 -1.44685062E+00  8.23647960E-01
  8.23647960E-01  2.40534360E+00 -1.44685062E+00  7.23425310E-01  7.23425310E-01
 -1.44685062E+00  7.41647610E-01  7.41647610E-01 -1.44685062E+00  7.23425310E-01
  7.23425310E-01 -1.44685062E+00  7.23425310E-01  7.23425310E-01  7.23425310E-01
  7.23425310E-01 -1.44685062E+00 -1.46507292E+00  7.23425310E-01  7.23425310E-01
  7.05203010E-01 -1.67827383E+00  7.05203010E-01  5.95869210E-01  5.95869210E-01
  5.95869210E-01  1.48511745E+00 -1.48693968E+00 -1.29560553E+00 -5.61246840E-01
 -1.54160658E+00 -1.56711780E+00 -4.70135340E-01 -1.71289620E+00 -1.18627173E+00
  1.43045055E+00 -5.28446700E-01  2.58756660E+00 -1.76756310E+00 -2.29600980E+00
  2.51467740E+00 -1.76756310E+00 -2.16845370E+00 -7.28892000E-01  2.53289970E+00
 -1.22636079E+00  2.44178820E+00  2.51467740E+00  2.51467740E+00 -2.15023140E+00
 -2.15023140E+00 -6.94269630E-01 -2.36889900E+00  2.46001050E+00 -2.36889900E+00
  2.46001050E+00 -1.39218372E+00  8.96537160E-01  8.96537160E-01 -2.29600980E+00
  2.41445475E+00  2.41445475E+00 -1.44685062E+00  8.23647960E-01  8.23647960E-01
  2.40534360E+00 -1.44685062E+00  7.23425310E-01  7.23425310E-01 -1.44685062E+00
  7.41647610E-01  7.41647610E-01 -1.44685062E+00  7.23425310E-01  7.23425310E-01
 -1.44685062E+00  7.23425310E-01  7.23425310E-01  7.23425310E-01  7.23425310E-01
 -1.44685062E+00 -1.46507292E+00  7.23425310E-01  7.23425310E-01  7.05203010E-01
 -1.67827383E+00  7.05203010E-01  5.95869210E-01  5.95869210E-01  5.95869210E-01
  1.48511745E+00 -1.48693968E+00 -1.29560553E+00 -5.61246840E-01 -1.54160658E+00
 -1.56711780E+00 -4.70135340E-01 -1.71289620E+00 -1.18627173E+00  1.43045055E+00
 -5.28446700E-01  2.58756660E+00 -1.76756310E+00 -2.29600980E+00  2.51467740E+00
 -1.76756310E+00 -2.16845370E+00 -7.28892000E-01  2.53289970E+00 -1.22636079E+00
  2.44178820E+00  2.51467740E+00  2.51467740E+00 -2.15023140E+00 -2.15023140E+00
 -6.94269630E-01 -2.36889900E+00  2.46001050E+00 -2.36889900E+00  2.46001050E+00
 -1.39218372E+00  8.96537160E-01  8.96537160E-01 -2.29600980E+00  2.41445475E+00
  2.41445475E+00 -1.44685062E+00  8.23647960E-01  8.23647960E-01  2.40534360E+00
 -1.44685062E+00  7.23425310E-01  7.23425310E-01 -1.44685062E+00  7.41647610E-01
  7.41647610E-01 -1.44685062E+00  7.23425310E-01  7.23425310E-01 -1.44685062E+00
  7.23425310E-01  7.23425310E-01  7.23425310E-01  7.23425310E-01 -1.44685062E+00
 -1.46507292E+00  7.23425310E-01  7.23425310E-01  7.05203010E-01 -1.67827383E+00
  7.05203010E-01  5.95869210E-01  5.95869210E-01  5.95869210E-01  1.48511745E+00
 -1.48693968E+00 -1.29560553E+00 -5.61246840E-01 -1.54160658E+00 -1.56711780E+00
 -4.70135340E-01 -1.71289620E+00 -1.18627173E+00  1.43045055E+00 -5.28446700E-01
  2.58756660E+00 -1.76756310E+00 -2.29600980E+00  2.51467740E+00 -1.76756310E+00
 -2.16845370E+00 -7.28892000E-01  2.53289970E+00 -1.22636079E+00  2.44178820E+00
  2.51467740E+00  2.51467740E+00 -2.15023140E+00 -2.15023140E+00 -6.94269630E-01
 -2.36889900E+00  2.46001050E+00 -2.36889900E+00  2.46001050E+00 -1.39218372E+00
  8.96537160E-01  8.96537160E-01 -2.29600980E+00  2.41445475E+00  2.41445475E+00
 -1.44685062E+00  8.23647960E-01  8.23647960E-01  2.40534360E+00 -1.44685062E+00
  7.23425310E-01  7.23425310E-01 -1.44685062E+00  7.41647610E-01  7.41647610E-01
 -1.44685062E+00  7.23425310E-01  7.23425310E-01 -1.44685062E+00  7.23425310E-01
  7.23425310E-01  7.23425310E-01  7.23425310E-01 -1.44685062E+00 -1.46507292E+00
  7.23425310E-01  7.23425310E-01  7.05203010E-01 -1.67827383E+00  7.05203010E-01
  5.95869210E-01  5.95869210E-01  5.95869210E-01  1.48511745E+00 -1.48693968E+00
 -1.29560553E+00 -5.61246840E-01 -1.54160658E+00 -1.56711780E+00 -4.70135340E-01
 -1.71289620E+00 -1.18627173E+00  1.43045055E+00 -5.28446700E-01  2.58756660E+00
 -1.76756310E+00 -2.29600980E+00  2.51467740E+00 -1.76756310E+00 -2.16845370E+00
 -7.28892000E-01  2.53289970E+00 -1.22636079E+00  2.44178820E+00  2.51467740E+00
  2.51467740E+00 -2.15023140E+00 -2.15023140E+00 -6.94269630E-01 -2.36889900E+00
  2.46001050E+00 -2.36889900E+00  2.46001050E+00 -1.39218372E+00  8.96537160E-01
  8.96537160E-01 -2.29600980E+00  2.41445475E+00  2.41445475E+00 -1.44685062E+00
  8.23647960E-01  8.23647960E-01  2.40534360E+00 -1.44685062E+00  7.23425310E-01
  7.23425310E-01 -1.44685062E+00  7.41647610E-01  7.41647610E-01 -1.44685062E+00
  7.23425310E-01  7.23425310E-01 -1.44685062E+00  7.23425310E-01  7.23425310E-01
  7.23425310E-01  7.23425310E-01 -1.44685062E+00 -1.46507292E+00  7.23425310E-01
  7.23425310E-01  7.05203010E-01 -1.67827383E+00  7.05203010E-01  5.95869210E-01
  5.95869210E-01  5.95869210E-01  1.48511745E+00 -1.48693968E+00 -1.29560553E+00
 -5.61246840E-01 -1.54160658E+00 -1.56711780E+00 -4.70135340E-01 -1.71289620E+00
 -1.18627173E+00  1.43045055E+00 -5.28446700E-01  2.58756660E+00 -1.76756310E+00
 -2.29600980E+00  2.51467740E+00 -1.76756310E+00 -2.16845370E+00 -7.28892000E-01
  2.53289970E+00 -1.22636079E+00  2.44178820E+00  2.51467740E+00  2.51467740E+00
 -2.15023140E+00 -2.15023140E+00 -6.94269630E-01 -2.36889900E+00  2.46001050E+00
 -2.36889900E+00  2.46001050E+00 -1.39218372E+00  8.96537160E-01  8.96537160E-01
 -2.29600980E+00  2.41445475E+00  2.41445475E+00 -1.44685062E+00  8.23647960E-01
  8.23647960E-01  2.40534360E+00 -1.44685062E+00  7.23425310E-01  7.23425310E-01
 -1.44685062E+00  7.41647610E-01  7.41647610E-01 -1.44685062E+00  7.23425310E-01
  7.23425310E-01 -1.44685062E+00  7.23425310E-01  7.23425310E-01  7.23425310E-01
  7.23425310E-01 -1.44685062E+00 -1.46507292E+00  7.23425310E-01  7.23425310E-01
  7.05203010E-01 -1.67827383E+00  7.05203010E-01  5.95869210E-01  5.95869210E-01
  5.95869210E-01  1.48511745E+00 -1.48693968E+00 -1.29560553E+00 -5.61246840E-01
 -1.54160658E+00 -1.56711780E+00 -4.70135340E-01 -1.71289620E+00 -1.18627173E+00
  1.43045055E+00 -5.28446700E-01  2.58756660E+00 -1.76756310E+00 -2.29600980E+00
  2.51467740E+00 -1.76756310E+00 -2.16845370E+00 -7.28892000E-01  2.53289970E+00
 -1.22636079E+00  2.44178820E+00  2.51467740E+00  2.51467740E+00 -2.15023140E+00
 -2.15023140E+00 -6.94269630E-01 -2.36889900E+00  2.46001050E+00 -2.36889900E+00
  2.46001050E+00 -1.39218372E+00  8.96537160E-01  8.96537160E-01 -2.29600980E+00
  2.41445475E+00  2.41445475E+00 -1.44685062E+00  8.23647960E-01  8.23647960E-01
  2.40534360E+00 -1.44685062E+00  7.23425310E-01  7.23425310E-01 -1.44685062E+00
  7.41647610E-01  7.41647610E-01 -1.44685062E+00  7.23425310E-01  7.23425310E-01
 -1.44685062E+00  7.23425310E-01  7.23425310E-01  7.23425310E-01  7.23425310E-01
 -1.44685062E+00 -1.46507292E+00  7.23425310E-01  7.23425310E-01  7.05203010E-01
 -1.67827383E+00  7.05203010E-01  5.95869210E-01  5.95869210E-01  5.95869210E-01
  1.48511745E+00 -1.48693968E+00 -1.29560553E+00 -5.61246840E-01 -1.54160658E+00
 -1.56711780E+00 -4.70135340E-01 -1.71289620E+00 -1.18627173E+00  1.43045055E+00
 -5.28446700E-01  2.58756660E+00 -1.76756310E+00 -2.29600980E+00  2.51467740E+00
 -1.76756310E+00 -2.16845370E+00 -7.28892000E-01  2.53289970E+00 -1.22636079E+00
  2.44178820E+00  2.51467740E+00  2.51467740E+00 -2.15023140E+00 -2.15023140E+00
 -6.94269630E-01 -2.36889900E+00  2.46001050E+00 -2.36889900E+00  2.46001050E+00
 -1.39218372E+00  8.96537160E-01  8.96537160E-01 -2.29600980E+00  2.41445475E+00
  2.41445475E+00 -1.44685062E+00  8.23647960E-01  8.23647960E-01  2.40534360E+00
 -1.44685062E+00  7.23425310E-01  7.23425310E-01 -1.44685062E+00  7.41647610E-01
  7.41647610E-01 -1.44685062E+00  7.23425310E-01  7.23425310E-01 -1.44685062E+00
  7.23425310E-01  7.23425310E-01  7.23425310E-01  7.23425310E-01 -1.44685062E+00
 -1.46507292E+00  7.23425310E-01  7.23425310E-01  7.05203010E-01 -1.67827383E+00
  7.05203010E-01  5.95869210E-01  5.95869210E-01  5.95869210E-01  1.48511745E+00
 -1.48693968E+00 -1.29560553E+00 -5.61246840E-01 -1.54160658E+00 -1.56711780E+00
 -4.70135340E-01 -1.71289620E+00 -1.18627173E+00  1.43045055E+00 -5.28446700E-01
  2.58756660E+00 -1.76756310E+00 -2.29600980E+00  2.51467740E+00 -1.76756310E+00
 -2.16845370E+00 -7.28892000E-01  2.53289970E+00 -1.22636079E+00  2.44178820E+00
  2.51467740E+00  2.51467740E+00 -2.15023140E+00 -2.15023140E+00 -6.94269630E-01
 -2.36889900E+00  2.46001050E+00 -2.36889900E+00  2.46001050E+00 -1.39218372E+00
  8.96537160E-01  8.96537160E-01 -2.29600980E+00  2.41445475E+00  2.41445475E+00
 -1.44685062E+00  8.23647960E-01  8.23647960E-01  2.40534360E+00 -1.44685062E+00
  7.23425310E-01  7.23425310E-01 -1.44685062E+00  7.41647610E-01  7.41647610E-01
 -1.44685062E+00  7.23425310E-01  7.23425310E-01 -1.44685062E+00  7.23425310E-01
  7.23425310E-01  7.23425310E-01  7.23425310E-01 -1.44685062E+00 -1.46507292E+00
  7.23425310E-01  7.23425310E-01  7.05203010E-01 -1.67827383E+00  7.05203010E-01
  5.95869210E-01  5.95869210E-01  5.95869210E-01  1.48511745E+00 -1.48693968E+00
 -1.29560553E+00 -5.61246840E-01 -1.54160658E+00 -1.56711780E+00 -4.70135340E-01
 -1.71289620E+00 -1.18627173E+00  1.43045055E+00 -5.28446700E-01  2.58756660E+00
 -1.76756310E+00 -2.29600980E+00  2.51467740E+00 -1.76756310E+00 -2.16845370E+00
 -7.28892000E-01  2.53289970E+00 -1.22636079E+00  2.44178820E+00  2.51467740E+00
  2.51467740E+00 -2.15023140E+00 -2.15023140E+00 -6.94269630E-01 -2.36889900E+00
  2.46001050E+00 -2.36889900E+00  2.46001050E+00 -1.39218372E+00  8.96537160E-01
  8.96537160E-01 -2.29600980E+00  2.41445475E+00  2.41445475E+00 -1.44685062E+00
  8.23647960E-01  8.23647960E-01  2.40534360E+00 -1.44685062E+00  7.23425310E-01
  7.23425310E-01 -1.44685062E+00  7.41647610E-01  7.41647610E-01 -1.44685062E+00
  7.23425310E-01  7.23425310E-01 -1.44685062E+00  7.23425310E-01  7.23425310E-01
  7.23425310E-01  7.23425310E-01 -1.44685062E+00 -1.46507292E+00  7.23425310E-01
  7.23425310E-01  7.05203010E-01 -1.67827383E+00  7.05203010E-01  5.95869210E-01
  5.95869210E-01  5.95869210E-01  1.48511745E+00 -1.48693968E+00 -1.29560553E+00
 -5.61246840E-01 -1.54160658E+00 -1.56711780E+00 -4.70135340E-01 -1.71289620E+00
 -1.18627173E+00  1.43045055E+00 -5.28446700E-01  2.58756660E+00 -1.76756310E+00
 -2.29600980E+00  2.51467740E+00 -1.76756310E+00 -2.16845370E+00 -7.28892000E-01
  2.53289970E+00 -1.22636079E+00  2.44178820E+00  2.51467740E+00  2.51467740E+00
 -2.15023140E+00 -2.15023140E+00 -6.94269630E-01 -2.36889900E+00  2.46001050E+00
 -2.36889900E+00  2.46001050E+00 -1.39218372E+00  8.96537160E-01  8.96537160E-01
 -2.29600980E+00  2.41445475E+00  2.41445475E+00 -1.44685062E+00  8.23647960E-01
  8.23647960E-01  2.40534360E+00 -1.44685062E+00  7.23425310E-01  7.23425310E-01
 -1.44685062E+00  7.41647610E-01  7.41647610E-01 -1.44685062E+00  7.23425310E-01
  7.23425310E-01 -1.44685062E+00  7.23425310E-01  7.23425310E-01  7.23425310E-01
  7.23425310E-01 -1.44685062E+00 -1.46507292E+00  7.23425310E-01  7.23425310E-01
  7.05203010E-01 -1.67827383E+00  7.05203010E-01  5.95869210E-01  5.95869210E-01
  5.95869210E-01  1.48511745E+00 -1.48693968E+00 -1.29560553E+00 -5.61246840E-01
 -1.54160658E+00 -1.56711780E+00 -4.70135340E-01 -1.71289620E+00 -1.18627173E+00
  1.43045055E+00 -5.28446700E-01  2.58756660E+00 -1.76756310E+00 -2.29600980E+00
  2.51467740E+00 -1.76756310E+00 -2.16845370E+00 -7.28892000E-01  2.53289970E+00
 -1.22636079E+00  2.44178820E+00  2.51467740E+00  2.51467740E+00 -2.15023140E+00
 -2.15023140E+00 -6.94269630E-01 -2.36889900E+00  2.46001050E+00 -2.36889900E+00
  2.46001050E+00 -1.39218372E+00  8.96537160E-01  8.96537160E-01 -2.29600980E+00
  2.41445475E+00  2.41445475E+00 -1.44685062E+00  8.23647960E-01  8.23647960E-01
  2.40534360E+00 -1.44685062E+00  7.23425310E-01  7.23425310E-01 -1.44685062E+00
  7.41647610E-01  7.41647610E-01 -1.44685062E+00  7.23425310E-01  7.23425310E-01
 -1.44685062E+00  7.23425310E-01  7.23425310E-01  7.23425310E-01  7.23425310E-01
 -1.44685062E+00 -1.46507292E+00  7.23425310E-01  7.23425310E-01  7.05203010E-01
 -1.67827383E+00  7.05203010E-01  5.95869210E-01  5.95869210E-01  5.95869210E-01
  1.48511745E+00 -1.48693968E+00 -1.29560553E+00 -5.61246840E-01 -1.54160658E+00
 -1.56711780E+00 -4.70135340E-01 -1.71289620E+00 -1.18627173E+00  1.43045055E+00
 -5.28446700E-01  2.58756660E+00 -1.76756310E+00 -2.29600980E+00  2.51467740E+00
 -1.76756310E+00 -2.16845370E+00 -7.28892000E-01  2.53289970E+00 -1.22636079E+00
  2.44178820E+00  2.51467740E+00  2.51467740E+00 -2.15023140E+00 -2.15023140E+00
 -6.94269630E-01 -2.36889900E+00  2.46001050E+00 -2.36889900E+00  2.46001050E+00
 -1.39218372E+00  8.96537160E-01  8.96537160E-01 -2.29600980E+00  2.41445475E+00
  2.41445475E+00 -1.44685062E+00  8.23647960E-01  8.23647960E-01  2.40534360E+00
 -1.44685062E+00  7.23425310E-01  7.23425310E-01 -1.44685062E+00  7.41647610E-01
  7.41647610E-01 -1.44685062E+00  7.23425310E-01  7.23425310E-01 -1.44685062E+00
  7.23425310E-01  7.23425310E-01  7.23425310E-01  7.23425310E-01 -1.44685062E+00
 -1.46507292E+00  7.23425310E-01  7.23425310E-01  7.05203010E-01 -1.67827383E+00
  7.05203010E-01  5.95869210E-01  5.95869210E-01  5.95869210E-01  1.48511745E+00
 -1.48693968E+00 -1.29560553E+00 -5.61246840E-01 -1.54160658E+00 -1.56711780E+00
 -4.70135340E-01 -1.71289620E+00 -1.18627173E+00  1.43045055E+00 -5.28446700E-01
  2.58756660E+00 -1.76756310E+00 -2.29600980E+00  2.51467740E+00 -1.76756310E+00
 -2.16845370E+00 -7.28892000E-01  2.53289970E+00 -1.22636079E+00  2.44178820E+00
  2.51467740E+00  2.51467740E+00 -2.15023140E+00 -2.15023140E+00 -6.94269630E-01
 -2.36889900E+00  2.46001050E+00 -2.36889900E+00  2.46001050E+00 -1.39218372E+00
  8.96537160E-01  8.96537160E-01 -2.29600980E+00  2.41445475E+00  2.41445475E+00
 -1.44685062E+00  8.23647960E-01  8.23647960E-01  2.40534360E+00 -1.44685062E+00
  7.23425310E-01  7.23425310E-01 -1.44685062E+00  7.41647610E-01  7.41647610E-01
 -1.44685062E+00  7.23425310E-01  7.23425310E-01 -1.44685062E+00  7.23425310E-01
  7.23425310E-01  7.23425310E-01  7.23425310E-01 -1.44685062E+00 -1.46507292E+00
  7.23425310E-01  7.23425310E-01  7.05203010E-01 -1.67827383E+00  7.05203010E-01
  5.95869210E-01  5.95869210E-01  5.95869210E-01  1.48511745E+00 -1.48693968E+00
 -1.29560553E+00 -5.61246840E-01 -1.54160658E+00 -1.56711780E+00 -4.70135340E-01
 -1.71289620E+00 -1.18627173E+00  1.43045055E+00 -5.28446700E-01  2.58756660E+00
 -1.76756310E+00 -2.29600980E+00  2.51467740E+00 -1.76756310E+00 -2.16845370E+00
 -7.28892000E-01  2.53289970E+00 -1.22636079E+00  2.44178820E+00  2.51467740E+00
  2.51467740E+00 -2.15023140E+00 -2.15023140E+00 -6.94269630E-01 -2.36889900E+00
  2.46001050E+00 -2.36889900E+00  2.46001050E+00 -1.39218372E+00  8.96537160E-01
  8.96537160E-01 -2.29600980E+00  2.41445475E+00  2.41445475E+00 -1.44685062E+00
  8.23647960E-01  8.23647960E-01  2.40534360E+00 -1.44685062E+00  7.23425310E-01
  7.23425310E-01 -1.44685062E+00  7.41647610E-01  7.41647610E-01 -1.44685062E+00
  7.23425310E-01  7.23425310E-01 -1.44685062E+00  7.23425310E-01  7.23425310E-01
  7.23425310E-01  7.23425310E-01 -1.44685062E+00 -1.46507292E+00  7.23425310E-01
  7.23425310E-01  7.05203010E-01 -1.67827383E+00  7.05203010E-01  5.95869210E-01
  5.95869210E-01  5.95869210E-01  1.48511745E+00 -1.48693968E+00 -1.29560553E+00
 -5.61246840E-01 -1.54160658E+00 -1.56711780E+00 -4.70135340E-01 -1.71289620E+00
 -1.18627173E+00  1.43045055E+00 -5.28446700E-01  2.58756660E+00 -1.76756310E+00
 -2.29600980E+00  2.51467740E+00 -1.76756310E+00 -2.16845370E+00 -7.28892000E-01
  2.53289970E+00 -1.22636079E+00  2.44178820E+00  2.51467740E+00  2.51467740E+00
 -2.15023140E+00 -2.15023140E+00 -6.94269630E-01 -2.36889900E+00  2.46001050E+00
 -2.36889900E+00  2.46001050E+00 -1.39218372E+00  8.96537160E-01  8.96537160E-01
 -2.29600980E+00  2.41445475E+00  2.41445475E+00 -1.44685062E+00  8.23647960E-01
  8.23647960E-01  2.40534360E+00 -1.44685062E+00  7.23425310E-01  7.23425310E-01
 -1.44685062E+00  7.41647610E-01  7.41647610E-01 -1.44685062E+00  7.23425310E-01
  7.23425310E-01 -1.44685062E+00  7.23425310E-01  7.23425310E-01  7.23425310E-01
  7.23425310E-01 -1.44685062E+00 -1.46507292E+00  7.23425310E-01  7.23425310E-01
  7.05203010E-01 -1.67827383E+00  7.05203010E-01  5.95869210E-01  5.95869210E-01
  5.95869210E-01  1.48511745E+00 -1.48693968E+00 -1.29560553E+00 -5.61246840E-01
 -1.54160658E+00 -1.56711780E+00 -4.70135340E-01 -1.71289620E+00 -1.18627173E+00
  1.43045055E+00 -5.28446700E-01  2.58756660E+00 -1.76756310E+00 -2.29600980E+00
  2.51467740E+00 -1.76756310E+00 -2.16845370E+00 -7.28892000E-01  2.53289970E+00
 -1.22636079E+00  2.44178820E+00  2.51467740E+00  2.51467740E+00 -2.15023140E+00
 -2.15023140E+00 -6.94269630E-01 -2.36889900E+00  2.46001050E+00 -2.36889900E+00
  2.46001050E+00 -1.39218372E+00  8.96537160E-01  8.96537160E-01 -2.29600980E+00
  2.41445475E+00  2.41445475E+00 -1.44685062E+00  8.23647960E-01  8.23647960E-01
  2.40534360E+00 -1.44685062E+00  7.23425310E-01  7.23425310E-01 -1.44685062E+00
  7.41647610E-01  7.41647610E-01 -1.44685062E+00  7.23425310E-01  7.23425310E-01
 -1.44685062E+00  7.23425310E-01  7.23425310E-01  7.23425310E-01  7.23425310E-01
 -1.44685062E+00 -1.46507292E+00  7.23425310E-01  7.23425310E-01  7.05203010E-01
 -1.67827383E+00  7.05203010E-01  5.95869210E-01  5.95869210E-01  5.95869210E-01
  1.48511745E+00 -1.48693968E+00 -1.29560553E+00 -5.61246840E-01 -1.54160658E+00
 -1.56711780E+00 -4.70135340E-01 -1.71289620E+00 -1.18627173E+00  1.43045055E+00
 -5.28446700E-01  2.58756660E+00 -1.76756310E+00 -2.29600980E+00  2.51467740E+00
 -1.76756310E+00 -2.16845370E+00 -7.28892000E-01  2.53289970E+00 -1.22636079E+00
  2.44178820E+00  2.51467740E+00  2.51467740E+00 -2.15023140E+00 -2.15023140E+00
 -6.94269630E-01 -2.36889900E+00  2.46001050E+00 -2.36889900E+00  2.46001050E+00
 -1.39218372E+00  8.96537160E-01  8.96537160E-01 -2.29600980E+00  2.41445475E+00
  2.41445475E+00 -1.44685062E+00  8.23647960E-01  8.23647960E-01  2.40534360E+00
 -1.44685062E+00  7.23425310E-01  7.23425310E-01 -1.44685062E+00  7.41647610E-01
  7.41647610E-01 -1.44685062E+00  7.23425310E-01  7.23425310E-01 -1.44685062E+00
  7.23425310E-01  7.23425310E-01  7.23425310E-01  7.23425310E-01 -1.44685062E+00
 -1.46507292E+00  7.23425310E-01  7.23425310E-01  7.05203010E-01 -1.67827383E+00
  7.05203010E-01  5.95869210E-01  5.95869210E-01  5.95869210E-01  1.48511745E+00
 -1.48693968E+00 -1.29560553E+00 -5.61246840E-01 -1.54160658E+00 -1.56711780E+00
 -4.70135340E-01 -1.71289620E+00 -1.18627173E+00  1.43045055E+00 -5.28446700E-01
  2.58756660E+00 -1.76756310E+00 -2.29600980E+00  2.51467740E+00 -1.76756310E+00
 -2.16845370E+00 -7.28892000E-01  2.53289970E+00 -1.22636079E+00  2.44178820E+00
  2.51467740E+00  2.51467740E+00 -2.15023140E+00 -2.15023140E+00 -6.94269630E-01
 -2.36889900E+00  2.46001050E+00 -2.36889900E+00  2.46001050E+00 -1.39218372E+00
  8.96537160E-01  8.96537160E-01 -2.29600980E+00  2.41445475E+00  2.41445475E+00
 -1.44685062E+00  8.23647960E-01  8.23647960E-01  2.40534360E+00 -1.44685062E+00
  7.23425310E-01  7.23425310E-01 -1.44685062E+00  7.41647610E-01  7.41647610E-01
 -1.44685062E+00  7.23425310E-01  7.23425310E-01 -1.44685062E+00  7.23425310E-01
  7.23425310E-01  7.23425310E-01  7.23425310E-01 -1.44685062E+00 -1.46507292E+00
  7.23425310E-01  7.23425310E-01  7.05203010E-01 -1.67827383E+00  7.05203010E-01
  5.95869210E-01  5.95869210E-01  5.95869210E-01  1.48511745E+00 -1.48693968E+00
 -1.29560553E+00 -5.61246840E-01 -1.54160658E+00 -1.56711780E+00 -4.70135340E-01
 -1.71289620E+00 -1.18627173E+00  1.43045055E+00 -5.28446700E-01  2.58756660E+00
 -1.76756310E+00 -2.29600980E+00  2.51467740E+00 -1.76756310E+00 -2.16845370E+00
 -7.28892000E-01  2.53289970E+00 -1.22636079E+00  2.44178820E+00  2.51467740E+00
  2.51467740E+00 -2.15023140E+00 -2.15023140E+00 -6.94269630E-01 -2.36889900E+00
  2.46001050E+00 -2.36889900E+00  2.46001050E+00 -1.39218372E+00  8.96537160E-01
  8.96537160E-01 -2.29600980E+00  2.41445475E+00  2.41445475E+00 -1.44685062E+00
  8.23647960E-01  8.23647960E-01  2.40534360E+00 -1.44685062E+00  7.23425310E-01
  7.23425310E-01 -1.44685062E+00  7.41647610E-01  7.41647610E-01 -1.44685062E+00
  7.23425310E-01  7.23425310E-01 -1.44685062E+00  7.23425310E-01  7.23425310E-01
  7.23425310E-01  7.23425310E-01 -1.44685062E+00 -1.46507292E+00  7.23425310E-01
  7.23425310E-01  7.05203010E-01 -1.67827383E+00  7.05203010E-01  5.95869210E-01
  5.95869210E-01  5.95869210E-01  1.48511745E+00 -1.48693968E+00 -1.29560553E+00
 -5.61246840E-01 -1.54160658E+00 -1.56711780E+00 -4.70135340E-01 -1.71289620E+00
 -1.18627173E+00  1.43045055E+00 -5.28446700E-01  2.58756660E+00 -1.76756310E+00
 -2.29600980E+00  2.51467740E+00 -1.76756310E+00 -2.16845370E+00 -7.28892000E-01
  2.53289970E+00 -1.22636079E+00  2.44178820E+00  2.51467740E+00  2.51467740E+00
 -2.15023140E+00 -2.15023140E+00 -6.94269630E-01 -2.36889900E+00  2.46001050E+00
 -2.36889900E+00  2.46001050E+00 -1.39218372E+00  8.96537160E-01  8.96537160E-01
 -2.29600980E+00  2.41445475E+00  2.41445475E+00 -1.44685062E+00  8.23647960E-01
  8.23647960E-01  2.40534360E+00 -1.44685062E+00  7.23425310E-01  7.23425310E-01
 -1.44685062E+00  7.41647610E-01  7.41647610E-01 -1.44685062E+00  7.23425310E-01
  7.23425310E-01 -1.44685062E+00  7.23425310E-01  7.23425310E-01  7.23425310E-01
  7.23425310E-01 -1.44685062E+00 -1.46507292E+00  7.23425310E-01  7.23425310E-01
  7.05203010E-01 -1.67827383E+00  7.05203010E-01  5.95869210E-01  5.95869210E-01
  5.95869210E-01  1.48511745E+00 -1.48693968E+00 -1.29560553E+00 -5.61246840E-01
 -1.54160658E+00 -1.56711780E+00 -4.70135340E-01 -1.71289620E+00 -1.18627173E+00
  1.43045055E+00 -5.28446700E-01  2.58756660E+00 -1.76756310E+00 -2.29600980E+00
  2.51467740E+00 -1.76756310E+00 -2.16845370E+00 -7.28892000E-01  2.53289970E+00
 -1.22636079E+00  2.44178820E+00  2.51467740E+00  2.51467740E+00 -2.15023140E+00
 -2.15023140E+00 -6.94269630E-01 -2.36889900E+00  2.46001050E+00 -2.36889900E+00
  2.46001050E+00 -1.39218372E+00  8.96537160E-01  8.96537160E-01 -2.29600980E+00
  2.41445475E+00  2.41445475E+00 -1.44685062E+00  8.23647960E-01  8.23647960E-01
  2.40534360E+00 -1.44685062E+00  7.23425310E-01  7.23425310E-01 -1.44685062E+00
  7.41647610E-01  7.41647610E-01 -1.44685062E+00  7.23425310E-01  7.23425310E-01
 -1.44685062E+00  7.23425310E-01  7.23425310E-01  7.23425310E-01  7.23425310E-01
 -1.44685062E+00 -1.46507292E+00  7.23425310E-01  7.23425310E-01  7.05203010E-01
 -1.67827383E+00  7.05203010E-01  5.95869210E-01  5.95869210E-01  5.95869210E-01
  1.48511745E+00 -1.48693968E+00 -1.29560553E+00 -5.61246840E-01 -1.54160658E+00
 -1.56711780E+00 -4.70135340E-01 -1.71289620E+00 -1.18627173E+00  1.43045055E+00
 -5.28446700E-01  2.58756660E+00 -1.76756310E+00 -2.29600980E+00  2.51467740E+00
 -1.76756310E+00 -2.16845370E+00 -7.28892000E-01  2.53289970E+00 -1.22636079E+00
  2.44178820E+00  2.51467740E+00  2.51467740E+00 -2.15023140E+00 -2.15023140E+00
 -6.94269630E-01 -2.36889900E+00  2.46001050E+00 -2.36889900E+00  2.46001050E+00
 -1.39218372E+00  8.96537160E-01  8.96537160E-01 -2.29600980E+00  2.41445475E+00
  2.41445475E+00 -1.44685062E+00  8.23647960E-01  8.23647960E-01  2.40534360E+00
 -1.44685062E+00  7.23425310E-01  7.23425310E-01 -1.44685062E+00  7.41647610E-01
  7.41647610E-01 -1.44685062E+00  7.23425310E-01  7.23425310E-01 -1.44685062E+00
  7.23425310E-01  7.23425310E-01  7.23425310E-01  7.23425310E-01 -1.44685062E+00
 -1.46507292E+00  7.23425310E-01  7.23425310E-01  7.05203010E-01 -1.67827383E+00
  7.05203010E-01  5.95869210E-01  5.95869210E-01  5.95869210E-01  1.48511745E+00
 -1.48693968E+00 -1.29560553E+00 -5.61246840E-01 -1.54160658E+00 -1.56711780E+00
 -4.70135340E-01 -1.71289620E+00 -1.18627173E+00  1.43045055E+00 -5.28446700E-01
  2.58756660E+00 -1.76756310E+00 -2.29600980E+00  2.51467740E+00 -1.76756310E+00
 -2.16845370E+00 -7.28892000E-01  2.53289970E+00 -1.22636079E+00  2.44178820E+00
  2.51467740E+00  2.51467740E+00 -2.15023140E+00 -2.15023140E+00 -6.94269630E-01
 -2.36889900E+00  2.46001050E+00 -2.36889900E+00  2.46001050E+00 -1.39218372E+00
  8.96537160E-01  8.96537160E-01 -2.29600980E+00  2.41445475E+00  2.41445475E+00
 -1.44685062E+00  8.23647960E-01  8.23647960E-01  2.40534360E+00 -1.44685062E+00
  7.23425310E-01  7.23425310E-01 -1.44685062E+00  7.41647610E-01  7.41647610E-01
 -1.44685062E+00  7.23425310E-01  7.23425310E-01 -1.44685062E+00  7.23425310E-01
  7.23425310E-01  7.23425310E-01  7.23425310E-01 -1.44685062E+00 -1.46507292E+00
  7.23425310E-01  7.23425310E-01  7.05203010E-01 -1.67827383E+00  7.05203010E-01
  5.95869210E-01  5.95869210E-01  5.95869210E-01  1.48511745E+00 -1.48693968E+00
 -1.29560553E+00 -5.61246840E-01 -1.54160658E+00 -1.56711780E+00 -4.70135340E-01
 -1.71289620E+00 -1.18627173E+00  1.43045055E+00 -5.28446700E-01  2.58756660E+00
 -1.76756310E+00 -2.29600980E+00  2.51467740E+00 -1.76756310E+00 -2.16845370E+00
 -7.28892000E-01  2.53289970E+00 -1.22636079E+00  2.44178820E+00  2.51467740E+00
  2.51467740E+00 -2.15023140E+00 -2.15023140E+00 -6.94269630E-01 -2.36889900E+00
  2.46001050E+00 -2.36889900E+00  2.46001050E+00 -1.39218372E+00  8.96537160E-01
  8.96537160E-01 -2.29600980E+00  2.41445475E+00  2.41445475E+00 -1.44685062E+00
  8.23647960E-01  8.23647960E-01  2.40534360E+00 -1.44685062E+00  7.23425310E-01
  7.23425310E-01 -1.44685062E+00  7.41647610E-01  7.41647610E-01 -1.44685062E+00
  7.23425310E-01  7.23425310E-01 -1.44685062E+00  7.23425310E-01  7.23425310E-01
  7.23425310E-01  7.23425310E-01 -1.44685062E+00 -1.46507292E+00  7.23425310E-01
  7.23425310E-01  7.05203010E-01 -1.67827383E+00  7.05203010E-01  5.95869210E-01
  5.95869210E-01  5.95869210E-01  1.48511745E+00 -1.48693968E+00 -1.29560553E+00
 -5.61246840E-01 -1.54160658E+00 -1.56711780E+00 -4.70135340E-01 -1.71289620E+00
 -1.18627173E+00  1.43045055E+00 -5.28446700E-01  2.58756660E+00 -1.76756310E+00
 -2.29600980E+00  2.51467740E+00 -1.76756310E+00 -2.16845370E+00 -7.28892000E-01
  2.53289970E+00 -1.22636079E+00  2.44178820E+00  2.51467740E+00  2.51467740E+00
 -2.15023140E+00 -2.15023140E+00 -6.94269630E-01 -2.36889900E+00  2.46001050E+00
 -2.36889900E+00  2.46001050E+00 -1.39218372E+00  8.96537160E-01  8.96537160E-01
 -2.29600980E+00  2.41445475E+00  2.41445475E+00 -1.44685062E+00  8.23647960E-01
  8.23647960E-01  2.40534360E+00 -1.44685062E+00  7.23425310E-01  7.23425310E-01
 -1.44685062E+00  7.41647610E-01  7.41647610E-01 -1.44685062E+00  7.23425310E-01
  7.23425310E-01 -1.44685062E+00  7.23425310E-01  7.23425310E-01  7.23425310E-01
  7.23425310E-01 -1.44685062E+00 -1.46507292E+00  7.23425310E-01  7.23425310E-01
  7.05203010E-01 -1.67827383E+00  7.05203010E-01  5.95869210E-01  5.95869210E-01
  5.95869210E-01  1.48511745E+00 -1.48693968E+00 -1.29560553E+00 -5.61246840E-01
 -1.54160658E+00 -1.56711780E+00 -4.70135340E-01 -1.71289620E+00 -1.18627173E+00
  1.43045055E+00 -5.28446700E-01  2.58756660E+00 -1.76756310E+00 -2.29600980E+00
  2.51467740E+00 -1.76756310E+00 -2.16845370E+00 -7.28892000E-01  2.53289970E+00
 -1.22636079E+00  2.44178820E+00  2.51467740E+00  2.51467740E+00 -2.15023140E+00
 -2.15023140E+00 -6.94269630E-01 -2.36889900E+00  2.46001050E+00 -2.36889900E+00
  2.46001050E+00 -1.39218372E+00  8.96537160E-01  8.96537160E-01 -2.29600980E+00
  2.41445475E+00  2.41445475E+00 -1.44685062E+00  8.23647960E-01  8.23647960E-01
  2.40534360E+00 -1.44685062E+00  7.23425310E-01  7.23425310E-01 -1.44685062E+00
  7.41647610E-01  7.41647610E-01 -1.44685062E+00  7.23425310E-01  7.23425310E-01
 -1.44685062E+00  7.23425310E-01  7.23425310E-01  7.23425310E-01  7.23425310E-01
 -1.44685062E+00 -1.46507292E+00  7.23425310E-01  7.23425310E-01  7.05203010E-01
 -1.67827383E+00  7.05203010E-01  5.95869210E-01  5.95869210E-01  5.95869210E-01
  1.48511745E+00 -1.48693968E+00 -1.29560553E+00 -5.61246840E-01 -1.54160658E+00
 -1.56711780E+00 -4.70135340E-01 -1.71289620E+00 -1.18627173E+00  1.43045055E+00
 -5.28446700E-01  2.58756660E+00 -1.76756310E+00 -2.29600980E+00  2.51467740E+00
 -1.76756310E+00 -2.16845370E+00 -7.28892000E-01  2.53289970E+00 -1.22636079E+00
  2.44178820E+00  2.51467740E+00  2.51467740E+00 -2.15023140E+00 -2.15023140E+00
 -6.94269630E-01 -2.36889900E+00  2.46001050E+00 -2.36889900E+00  2.46001050E+00
 -1.39218372E+00  8.96537160E-01  8.96537160E-01 -2.29600980E+00  2.41445475E+00
  2.41445475E+00 -1.44685062E+00  8.23647960E-01  8.23647960E-01  2.40534360E+00
 -1.44685062E+00  7.23425310E-01  7.23425310E-01 -1.44685062E+00  7.41647610E-01
  7.41647610E-01 -1.44685062E+00  7.23425310E-01  7.23425310E-01 -1.44685062E+00
  7.23425310E-01  7.23425310E-01  7.23425310E-01  7.23425310E-01 -1.44685062E+00
 -1.46507292E+00  7.23425310E-01  7.23425310E-01  7.05203010E-01 -1.67827383E+00
  7.05203010E-01  5.95869210E-01  5.95869210E-01  5.95869210E-01  1.48511745E+00
 -1.48693968E+00 -1.29560553E+00 -5.61246840E-01 -1.54160658E+00 -1.56711780E+00
 -4.70135340E-01 -1.71289620E+00 -1.18627173E+00  1.43045055E+00 -5.28446700E-01
  2.58756660E+00 -1.76756310E+00 -2.29600980E+00  2.51467740E+00 -1.76756310E+00
 -2.16845370E+00 -7.28892000E-01  2.53289970E+00 -1.22636079E+00  2.44178820E+00
  2.51467740E+00  2.51467740E+00 -2.15023140E+00 -2.15023140E+00 -6.94269630E-01
 -2.36889900E+00  2.46001050E+00 -2.36889900E+00  2.46001050E+00 -1.39218372E+00
  8.96537160E-01  8.96537160E-01 -2.29600980E+00  2.41445475E+00  2.41445475E+00
 -1.44685062E+00  8.23647960E-01  8.23647960E-01  2.40534360E+00 -1.44685062E+00
  7.23425310E-01  7.23425310E-01 -1.44685062E+00  7.41647610E-01  7.41647610E-01
 -1.44685062E+00  7.23425310E-01  7.23425310E-01 -1.44685062E+00  7.23425310E-01
  7.23425310E-01  7.23425310E-01  7.23425310E-01 -1.44685062E+00 -1.46507292E+00
  7.23425310E-01  7.23425310E-01  7.05203010E-01 -1.67827383E+00  7.05203010E-01
  5.95869210E-01  5.95869210E-01  5.95869210E-01  1.48511745E+00 -1.48693968E+00
 -1.29560553E+00 -5.61246840E-01 -1.54160658E+00 -1.56711780E+00 -4.70135340E-01
 -1.71289620E+00 -1.18627173E+00  1.43045055E+00 -5.28446700E-01  2.58756660E+00
 -1.76756310E+00 -2.29600980E+00  2.51467740E+00 -1.76756310E+00 -2.16845370E+00
 -7.28892000E-01  2.53289970E+00 -1.22636079E+00  2.44178820E+00  2.51467740E+00
  2.51467740E+00 -2.15023140E+00 -2.15023140E+00 -6.94269630E-01 -2.36889900E+00
  2.46001050E+00 -2.36889900E+00  2.46001050E+00 -1.39218372E+00  8.96537160E-01
  8.96537160E-01 -2.29600980E+00  2.41445475E+00  2.41445475E+00 -1.44685062E+00
  8.23647960E-01  8.23647960E-01  2.40534360E+00 -1.44685062E+00  7.23425310E-01
  7.23425310E-01 -1.44685062E+00  7.41647610E-01  7.41647610E-01 -1.44685062E+00
  7.23425310E-01  7.23425310E-01 -1.44685062E+00  7.23425310E-01  7.23425310E-01
  7.23425310E-01  7.23425310E-01 -1.44685062E+00 -1.46507292E+00  7.23425310E-01
  7.23425310E-01  7.05203010E-01 -1.67827383E+00  7.05203010E-01  5.95869210E-01
  5.95869210E-01  5.95869210E-01  1.48511745E+00 -1.48693968E+00 -1.29560553E+00
 -5.61246840E-01 -1.54160658E+00 -1.56711780E+00 -4.70135340E-01 -1.71289620E+00
 -1.18627173E+00  1.43045055E+00 -5.28446700E-01  2.58756660E+00 -1.76756310E+00
 -2.29600980E+00  2.51467740E+00 -1.76756310E+00 -2.16845370E+00 -7.28892000E-01
  2.53289970E+00 -1.22636079E+00  2.44178820E+00  2.51467740E+00  2.51467740E+00
 -2.15023140E+00 -2.15023140E+00 -6.94269630E-01 -2.36889900E+00  2.46001050E+00
 -2.36889900E+00  2.46001050E+00 -1.39218372E+00  8.96537160E-01  8.96537160E-01
 -2.29600980E+00  2.41445475E+00  2.41445475E+00 -1.44685062E+00  8.23647960E-01
  8.23647960E-01  2.40534360E+00 -1.44685062E+00  7.23425310E-01  7.23425310E-01
 -1.44685062E+00  7.41647610E-01  7.41647610E-01 -1.44685062E+00  7.23425310E-01
  7.23425310E-01 -1.44685062E+00  7.23425310E-01  7.23425310E-01  7.23425310E-01
  7.23425310E-01 -1.44685062E+00 -1.46507292E+00  7.23425310E-01  7.23425310E-01
  7.05203010E-01 -1.67827383E+00  7.05203010E-01  5.95869210E-01  5.95869210E-01
  5.95869210E-01  1.48511745E+00 -1.48693968E+00 -1.29560553E+00 -5.61246840E-01
 -1.54160658E+00 -1.56711780E+00 -4.70135340E-01 -1.71289620E+00 -1.18627173E+00
  1.43045055E+00 -5.28446700E-01  2.58756660E+00 -1.76756310E+00 -2.29600980E+00
  2.51467740E+00 -1.76756310E+00 -2.16845370E+00 -7.28892000E-01  2.53289970E+00
 -1.22636079E+00  2.44178820E+00  2.51467740E+00  2.51467740E+00 -2.15023140E+00
 -2.15023140E+00 -6.94269630E-01 -2.36889900E+00  2.46001050E+00 -2.36889900E+00
  2.46001050E+00 -1.39218372E+00  8.96537160E-01  8.96537160E-01 -2.29600980E+00
  2.41445475E+00  2.41445475E+00 -1.44685062E+00  8.23647960E-01  8.23647960E-01
  2.40534360E+00 -1.44685062E+00  7.23425310E-01  7.23425310E-01 -1.44685062E+00
  7.41647610E-01  7.41647610E-01 -1.44685062E+00  7.23425310E-01  7.23425310E-01
 -1.44685062E+00  7.23425310E-01  7.23425310E-01  7.23425310E-01  7.23425310E-01
 -1.44685062E+00 -1.46507292E+00  7.23425310E-01  7.23425310E-01  7.05203010E-01
 -1.67827383E+00  7.05203010E-01  5.95869210E-01  5.95869210E-01  5.95869210E-01
  1.48511745E+00 -1.48693968E+00 -1.29560553E+00 -5.61246840E-01 -1.54160658E+00
 -1.56711780E+00 -4.70135340E-01 -1.71289620E+00 -1.18627173E+00  1.43045055E+00
 -5.28446700E-01  2.58756660E+00 -1.76756310E+00 -2.29600980E+00  2.51467740E+00
 -1.76756310E+00 -2.16845370E+00 -7.28892000E-01  2.53289970E+00 -1.22636079E+00
  2.44178820E+00  2.51467740E+00  2.51467740E+00 -2.15023140E+00 -2.15023140E+00
 -6.94269630E-01 -2.36889900E+00  2.46001050E+00 -2.36889900E+00  2.46001050E+00
 -1.39218372E+00  8.96537160E-01  8.96537160E-01 -2.29600980E+00  2.41445475E+00
  2.41445475E+00 -1.44685062E+00  8.23647960E-01  8.23647960E-01  2.40534360E+00
 -1.44685062E+00  7.23425310E-01  7.23425310E-01 -1.44685062E+00  7.41647610E-01
  7.41647610E-01 -1.44685062E+00  7.23425310E-01  7.23425310E-01 -1.44685062E+00
  7.23425310E-01  7.23425310E-01  7.23425310E-01  7.23425310E-01 -1.44685062E+00
 -1.46507292E+00  7.23425310E-01  7.23425310E-01  7.05203010E-01 -1.67827383E+00
  7.05203010E-01  5.95869210E-01  5.95869210E-01  5.95869210E-01  1.48511745E+00
 -1.48693968E+00 -1.29560553E+00 -5.61246840E-01 -1.54160658E+00 -1.56711780E+00
 -4.70135340E-01 -1.71289620E+00 -1.18627173E+00  1.43045055E+00 -5.28446700E-01
  2.58756660E+00 -1.76756310E+00 -2.29600980E+00  2.51467740E+00 -1.76756310E+00
 -2.16845370E+00 -7.28892000E-01  2.53289970E+00 -1.22636079E+00  2.44178820E+00
  2.51467740E+00  2.51467740E+00 -2.15023140E+00 -2.15023140E+00 -6.94269630E-01
 -2.36889900E+00  2.46001050E+00 -2.36889900E+00  2.46001050E+00 -1.39218372E+00
  8.96537160E-01  8.96537160E-01 -2.29600980E+00  2.41445475E+00  2.41445475E+00
 -1.44685062E+00  8.23647960E-01  8.23647960E-01  2.40534360E+00 -1.44685062E+00
  7.23425310E-01  7.23425310E-01 -1.44685062E+00  7.41647610E-01  7.41647610E-01
 -1.44685062E+00  7.23425310E-01  7.23425310E-01 -1.44685062E+00  7.23425310E-01
  7.23425310E-01  7.23425310E-01  7.23425310E-01 -1.44685062E+00 -1.46507292E+00
  7.23425310E-01  7.23425310E-01  7.05203010E-01 -1.67827383E+00  7.05203010E-01
  5.95869210E-01  5.95869210E-01  5.95869210E-01  1.48511745E+00 -1.48693968E+00
 -1.29560553E+00 -5.61246840E-01 -1.54160658E+00 -1.56711780E+00 -4.70135340E-01
 -1.71289620E+00 -1.18627173E+00  1.43045055E+00 -5.28446700E-01  2.58756660E+00
 -1.76756310E+00 -2.29600980E+00  2.51467740E+00 -1.76756310E+00 -2.16845370E+00
 -7.28892000E-01  2.53289970E+00 -1.22636079E+00  2.44178820E+00  2.51467740E+00
  2.51467740E+00 -2.15023140E+00 -2.15023140E+00 -6.94269630E-01 -2.36889900E+00
  2.46001050E+00 -2.36889900E+00  2.46001050E+00 -1.39218372E+00  8.96537160E-01
  8.96537160E-01 -2.29600980E+00  2.41445475E+00  2.41445475E+00 -1.44685062E+00
  8.23647960E-01  8.23647960E-01  2.40534360E+00 -1.44685062E+00  7.23425310E-01
  7.23425310E-01 -1.44685062E+00  7.41647610E-01  7.41647610E-01 -1.44685062E+00
  7.23425310E-01  7.23425310E-01 -1.44685062E+00  7.23425310E-01  7.23425310E-01
  7.23425310E-01  7.23425310E-01 -1.44685062E+00 -1.46507292E+00  7.23425310E-01
  7.23425310E-01  7.05203010E-01 -1.67827383E+00  7.05203010E-01  5.95869210E-01
  5.95869210E-01  5.95869210E-01  1.48511745E+00 -1.48693968E+00 -1.29560553E+00
 -5.61246840E-01 -1.54160658E+00 -1.56711780E+00 -4.70135340E-01 -1.71289620E+00
 -1.18627173E+00  1.43045055E+00 -5.28446700E-01  2.58756660E+00 -1.76756310E+00
 -2.29600980E+00  2.51467740E+00 -1.76756310E+00 -2.16845370E+00 -7.28892000E-01
  2.53289970E+00 -1.22636079E+00  2.44178820E+00  2.51467740E+00  2.51467740E+00
 -2.15023140E+00 -2.15023140E+00 -6.94269630E-01 -2.36889900E+00  2.46001050E+00
 -2.36889900E+00  2.46001050E+00 -1.39218372E+00  8.96537160E-01  8.96537160E-01
 -2.29600980E+00  2.41445475E+00  2.41445475E+00 -1.44685062E+00  8.23647960E-01
  8.23647960E-01  2.40534360E+00 -1.44685062E+00  7.23425310E-01  7.23425310E-01
 -1.44685062E+00  7.41647610E-01  7.41647610E-01 -1.44685062E+00  7.23425310E-01
  7.23425310E-01 -1.44685062E+00  7.23425310E-01  7.23425310E-01  7.23425310E-01
  7.23425310E-01 -1.44685062E+00 -1.46507292E+00  7.23425310E-01  7.23425310E-01
  7.05203010E-01 -1.67827383E+00  7.05203010E-01  5.95869210E-01  5.95869210E-01
  5.95869210E-01  1.48511745E+00 -1.48693968E+00 -1.29560553E+00 -5.61246840E-01
 -1.54160658E+00 -1.56711780E+00 -4.70135340E-01 -1.71289620E+00 -1.18627173E+00
  1.43045055E+00 -5.28446700E-01  2.58756660E+00 -1.76756310E+00 -2.29600980E+00
  2.51467740E+00 -1.76756310E+00 -2.16845370E+00 -7.28892000E-01  2.53289970E+00
 -1.22636079E+00  2.44178820E+00  2.51467740E+00  2.51467740E+00 -2.15023140E+00
 -2.15023140E+00 -6.94269630E-01 -2.36889900E+00  2.46001050E+00 -2.36889900E+00
  2.46001050E+00 -1.39218372E+00  8.96537160E-01  8.96537160E-01 -2.29600980E+00
  2.41445475E+00  2.41445475E+00 -1.44685062E+00  8.23647960E-01  8.23647960E-01
  2.40534360E+00 -1.44685062E+00  7.23425310E-01  7.23425310E-01 -1.44685062E+00
  7.41647610E-01  7.41647610E-01 -1.44685062E+00  7.23425310E-01  7.23425310E-01
 -1.44685062E+00  7.23425310E-01  7.23425310E-01  7.23425310E-01  7.23425310E-01
 -1.44685062E+00 -1.46507292E+00  7.23425310E-01  7.23425310E-01  7.05203010E-01
 -1.67827383E+00  7.05203010E-01  5.95869210E-01  5.95869210E-01  5.95869210E-01
  1.48511745E+00 -1.48693968E+00 -1.29560553E+00 -5.61246840E-01 -1.54160658E+00
 -1.56711780E+00 -4.70135340E-01 -1.71289620E+00 -1.18627173E+00  1.43045055E+00
 -5.28446700E-01  2.58756660E+00 -1.76756310E+00 -2.29600980E+00  2.51467740E+00
 -1.76756310E+00 -2.16845370E+00 -7.28892000E-01  2.53289970E+00 -1.22636079E+00
  2.44178820E+00  2.51467740E+00  2.51467740E+00 -2.15023140E+00 -2.15023140E+00
 -6.94269630E-01 -2.36889900E+00  2.46001050E+00 -2.36889900E+00  2.46001050E+00
 -1.39218372E+00  8.96537160E-01  8.96537160E-01 -2.29600980E+00  2.41445475E+00
  2.41445475E+00 -1.44685062E+00  8.23647960E-01  8.23647960E-01  2.40534360E+00
 -1.44685062E+00  7.23425310E-01  7.23425310E-01 -1.44685062E+00  7.41647610E-01
  7.41647610E-01 -1.44685062E+00  7.23425310E-01  7.23425310E-01 -1.44685062E+00
  7.23425310E-01  7.23425310E-01  7.23425310E-01  7.23425310E-01 -1.44685062E+00
 -1.46507292E+00  7.23425310E-01  7.23425310E-01  7.05203010E-01 -1.67827383E+00
  7.05203010E-01  5.95869210E-01  5.95869210E-01  5.95869210E-01  1.48511745E+00
 -1.48693968E+00 -1.29560553E+00 -5.61246840E-01 -1.54160658E+00 -1.56711780E+00
 -4.70135340E-01 -1.71289620E+00 -1.18627173E+00  1.43045055E+00 -5.28446700E-01
  2.58756660E+00 -1.76756310E+00 -2.29600980E+00  2.51467740E+00 -1.76756310E+00
 -2.16845370E+00 -7.28892000E-01  2.53289970E+00 -1.22636079E+00  2.44178820E+00
  2.51467740E+00  2.51467740E+00 -2.15023140E+00 -2.15023140E+00 -6.94269630E-01
 -2.36889900E+00  2.46001050E+00 -2.36889900E+00  2.46001050E+00 -1.39218372E+00
  8.96537160E-01  8.96537160E-01 -2.29600980E+00  2.41445475E+00  2.41445475E+00
 -1.44685062E+00  8.23647960E-01  8.23647960E-01  2.40534360E+00 -1.44685062E+00
  7.23425310E-01  7.23425310E-01 -1.44685062E+00  7.41647610E-01  7.41647610E-01
 -1.44685062E+00  7.23425310E-01  7.23425310E-01 -1.44685062E+00  7.23425310E-01
  7.23425310E-01  7.23425310E-01  7.23425310E-01 -1.44685062E+00 -1.46507292E+00
  7.23425310E-01  7.23425310E-01  7.05203010E-01 -1.67827383E+00  7.05203010E-01
  5.95869210E-01  5.95869210E-01  5.95869210E-01  1.48511745E+00 -1.48693968E+00
 -1.29560553E+00 -5.61246840E-01 -1.54160658E+00 -1.56711780E+00 -4.70135340E-01
 -1.71289620E+00 -1.18627173E+00  1.43045055E+00 -5.28446700E-01  2.58756660E+00
 -1.76756310E+00 -2.29600980E+00  2.51467740E+00 -1.76756310E+00 -2.16845370E+00
 -7.28892000E-01  2.53289970E+00 -1.22636079E+00  2.44178820E+00  2.51467740E+00
  2.51467740E+00 -2.15023140E+00 -2.15023140E+00 -6.94269630E-01 -2.36889900E+00
  2.46001050E+00 -2.36889900E+00  2.46001050E+00 -1.39218372E+00  8.96537160E-01
  8.96537160E-01 -2.29600980E+00  2.41445475E+00  2.41445475E+00 -1.44685062E+00
  8.23647960E-01  8.23647960E-01  2.40534360E+00 -1.44685062E+00  7.23425310E-01
  7.23425310E-01 -1.44685062E+00  7.41647610E-01  7.41647610E-01 -1.44685062E+00
  7.23425310E-01  7.23425310E-01 -1.44685062E+00  7.23425310E-01  7.23425310E-01
  7.23425310E-01  7.23425310E-01 -1.44685062E+00 -1.46507292E+00  7.23425310E-01
  7.23425310E-01  7.05203010E-01 -1.67827383E+00  7.05203010E-01  5.95869210E-01
  5.95869210E-01  5.95869210E-01  1.48511745E+00 -1.48693968E+00 -1.29560553E+00
 -5.61246840E-01 -1.54160658E+00 -1.56711780E+00 -4.70135340E-01 -1.71289620E+00
 -1.18627173E+00  1.43045055E+00 -5.28446700E-01  2.58756660E+00 -1.76756310E+00
 -2.29600980E+00  2.51467740E+00 -1.76756310E+00 -2.16845370E+00 -7.28892000E-01
  2.53289970E+00 -1.22636079E+00  2.44178820E+00  2.51467740E+00  2.51467740E+00
 -2.15023140E+00 -2.15023140E+00 -6.94269630E-01 -2.36889900E+00  2.46001050E+00
 -2.36889900E+00  2.46001050E+00 -1.39218372E+00  8.96537160E-01  8.96537160E-01
 -2.29600980E+00  2.41445475E+00  2.41445475E+00 -1.44685062E+00  8.23647960E-01
  8.23647960E-01  2.40534360E+00 -1.44685062E+00  7.23425310E-01  7.23425310E-01
 -1.44685062E+00  7.41647610E-01  7.41647610E-01 -1.44685062E+00  7.23425310E-01
  7.23425310E-01 -1.44685062E+00  7.23425310E-01  7.23425310E-01  7.23425310E-01
  7.23425310E-01 -1.44685062E+00 -1.46507292E+00  7.23425310E-01  7.23425310E-01
  7.05203010E-01 -1.67827383E+00  7.05203010E-01  5.95869210E-01  5.95869210E-01
  5.95869210E-01  1.48511745E+00 -1.48693968E+00 -1.29560553E+00 -5.61246840E-01
 -1.54160658E+00 -1.56711780E+00 -4.70135340E-01 -1.71289620E+00 -1.18627173E+00
  1.43045055E+00 -5.28446700E-01  2.58756660E+00 -1.76756310E+00 -2.29600980E+00
  2.51467740E+00 -1.76756310E+00 -2.16845370E+00 -7.28892000E-01  2.53289970E+00
 -1.22636079E+00  2.44178820E+00  2.51467740E+00  2.51467740E+00 -2.15023140E+00
 -2.15023140E+00 -6.94269630E-01 -2.36889900E+00  2.46001050E+00 -2.36889900E+00
  2.46001050E+00 -1.39218372E+00  8.96537160E-01  8.96537160E-01 -2.29600980E+00
  2.41445475E+00  2.41445475E+00 -1.44685062E+00  8.23647960E-01  8.23647960E-01
  2.40534360E+00 -1.44685062E+00  7.23425310E-01  7.23425310E-01 -1.44685062E+00
  7.41647610E-01  7.41647610E-01 -1.44685062E+00  7.23425310E-01  7.23425310E-01
 -1.44685062E+00  7.23425310E-01  7.23425310E-01  7.23425310E-01  7.23425310E-01
 -1.44685062E+00 -1.46507292E+00  7.23425310E-01  7.23425310E-01  7.05203010E-01
 -1.67827383E+00  7.05203010E-01  5.95869210E-01  5.95869210E-01  5.95869210E-01
  1.48511745E+00 -1.48693968E+00 -1.29560553E+00 -5.61246840E-01 -1.54160658E+00
 -1.56711780E+00 -4.70135340E-01 -1.71289620E+00 -1.18627173E+00  1.43045055E+00
 -5.28446700E-01  2.58756660E+00 -1.76756310E+00 -2.29600980E+00  2.51467740E+00
 -1.76756310E+00 -2.16845370E+00 -7.28892000E-01  2.53289970E+00 -1.22636079E+00
  2.44178820E+00  2.51467740E+00  2.51467740E+00 -2.15023140E+00 -2.15023140E+00
 -6.94269630E-01 -2.36889900E+00  2.46001050E+00 -2.36889900E+00  2.46001050E+00
 -1.39218372E+00  8.96537160E-01  8.96537160E-01 -2.29600980E+00  2.41445475E+00
  2.41445475E+00 -1.44685062E+00  8.23647960E-01  8.23647960E-01  2.40534360E+00
 -1.44685062E+00  7.23425310E-01  7.23425310E-01 -1.44685062E+00  7.41647610E-01
  7.41647610E-01 -1.44685062E+00  7.23425310E-01  7.23425310E-01 -1.44685062E+00
  7.23425310E-01  7.23425310E-01  7.23425310E-01  7.23425310E-01 -1.44685062E+00
 -1.46507292E+00  7.23425310E-01  7.23425310E-01  7.05203010E-01 -1.67827383E+00
  7.05203010E-01  5.95869210E-01  5.95869210E-01  5.95869210E-01  1.48511745E+00
 -1.48693968E+00 -1.29560553E+00 -5.61246840E-01 -1.54160658E+00 -1.56711780E+00
 -4.70135340E-01 -1.71289620E+00 -1.18627173E+00  1.43045055E+00 -5.28446700E-01
  2.58756660E+00 -1.76756310E+00 -2.29600980E+00  2.51467740E+00 -1.76756310E+00
 -2.16845370E+00 -7.28892000E-01  2.53289970E+00 -1.22636079E+00  2.44178820E+00
  2.51467740E+00  2.51467740E+00 -2.15023140E+00 -2.15023140E+00 -6.94269630E-01
 -2.36889900E+00  2.46001050E+00 -2.36889900E+00  2.46001050E+00 -1.39218372E+00
  8.96537160E-01  8.96537160E-01 -2.29600980E+00  2.41445475E+00  2.41445475E+00
 -1.44685062E+00  8.23647960E-01  8.23647960E-01  2.40534360E+00 -1.44685062E+00
  7.23425310E-01  7.23425310E-01 -1.44685062E+00  7.41647610E-01  7.41647610E-01
 -1.44685062E+00  7.23425310E-01  7.23425310E-01 -1.44685062E+00  7.23425310E-01
  7.23425310E-01  7.23425310E-01  7.23425310E-01 -1.44685062E+00 -1.46507292E+00
  7.23425310E-01  7.23425310E-01  7.05203010E-01 -1.67827383E+00  7.05203010E-01
  5.95869210E-01  5.95869210E-01  5.95869210E-01  1.48511745E+00 -1.48693968E+00
 -1.29560553E+00 -5.61246840E-01 -1.54160658E+00 -1.56711780E+00 -4.70135340E-01
 -1.71289620E+00 -1.18627173E+00  1.43045055E+00 -5.28446700E-01  2.58756660E+00
 -1.76756310E+00 -2.29600980E+00  2.51467740E+00 -1.76756310E+00 -2.16845370E+00
 -7.28892000E-01  2.53289970E+00 -1.22636079E+00  2.44178820E+00  2.51467740E+00
  2.51467740E+00 -2.15023140E+00 -2.15023140E+00 -6.94269630E-01 -2.36889900E+00
  2.46001050E+00 -2.36889900E+00  2.46001050E+00 -1.39218372E+00  8.96537160E-01
  8.96537160E-01 -2.29600980E+00  2.41445475E+00  2.41445475E+00 -1.44685062E+00
  8.23647960E-01  8.23647960E-01  2.40534360E+00 -1.44685062E+00  7.23425310E-01
  7.23425310E-01 -1.44685062E+00  7.41647610E-01  7.41647610E-01 -1.44685062E+00
  7.23425310E-01  7.23425310E-01 -1.44685062E+00  7.23425310E-01  7.23425310E-01
  7.23425310E-01  7.23425310E-01 -1.44685062E+00 -1.46507292E+00  7.23425310E-01
  7.23425310E-01  7.05203010E-01 -1.67827383E+00  7.05203010E-01  5.95869210E-01
  5.95869210E-01  5.95869210E-01  1.48511745E+00 -1.48693968E+00 -1.29560553E+00
 -5.61246840E-01 -1.54160658E+00 -1.56711780E+00 -4.70135340E-01 -1.71289620E+00
 -1.18627173E+00  1.43045055E+00 -5.28446700E-01  2.58756660E+00 -1.76756310E+00
 -2.29600980E+00  2.51467740E+00 -1.76756310E+00 -2.16845370E+00 -7.28892000E-01
  2.53289970E+00 -1.22636079E+00  2.44178820E+00  2.51467740E+00  2.51467740E+00
 -2.15023140E+00 -2.15023140E+00 -6.94269630E-01 -2.36889900E+00  2.46001050E+00
 -2.36889900E+00  2.46001050E+00 -1.39218372E+00  8.96537160E-01  8.96537160E-01
 -2.29600980E+00  2.41445475E+00  2.41445475E+00 -1.44685062E+00  8.23647960E-01
  8.23647960E-01  2.40534360E+00 -1.44685062E+00  7.23425310E-01  7.23425310E-01
 -1.44685062E+00  7.41647610E-01  7.41647610E-01 -1.44685062E+00  7.23425310E-01
  7.23425310E-01 -1.44685062E+00  7.23425310E-01  7.23425310E-01  7.23425310E-01
  7.23425310E-01 -1.44685062E+00 -1.46507292E+00  7.23425310E-01  7.23425310E-01
  7.05203010E-01 -1.67827383E+00  7.05203010E-01  5.95869210E-01  5.95869210E-01
  5.95869210E-01  1.48511745E+00 -1.48693968E+00 -1.29560553E+00 -5.61246840E-01
 -1.54160658E+00 -1.56711780E+00 -4.70135340E-01 -1.71289620E+00 -1.18627173E+00
  1.43045055E+00 -5.28446700E-01  2.58756660E+00 -1.76756310E+00 -2.29600980E+00
  2.51467740E+00 -1.76756310E+00 -2.16845370E+00 -7.28892000E-01  2.53289970E+00
 -1.22636079E+00  2.44178820E+00  2.51467740E+00  2.51467740E+00 -2.15023140E+00
 -2.15023140E+00 -6.94269630E-01 -2.36889900E+00  2.46001050E+00 -2.36889900E+00
  2.46001050E+00 -1.39218372E+00  8.96537160E-01  8.96537160E-01 -2.29600980E+00
  2.41445475E+00  2.41445475E+00 -1.44685062E+00  8.23647960E-01  8.23647960E-01
  2.40534360E+00 -1.44685062E+00  7.23425310E-01  7.23425310E-01 -1.44685062E+00
  7.41647610E-01  7.41647610E-01 -1.44685062E+00  7.23425310E-01  7.23425310E-01
 -1.44685062E+00  7.23425310E-01  7.23425310E-01  7.23425310E-01  7.23425310E-01
 -1.44685062E+00 -1.46507292E+00  7.23425310E-01  7.23425310E-01  7.05203010E-01
 -1.67827383E+00  7.05203010E-01  5.95869210E-01  5.95869210E-01  5.95869210E-01
  1.48511745E+00 -1.48693968E+00 -1.29560553E+00 -5.61246840E-01 -1.54160658E+00
 -1.56711780E+00 -4.70135340E-01 -1.71289620E+00 -1.18627173E+00  1.43045055E+00
 -5.28446700E-01  2.58756660E+00 -1.76756310E+00 -2.29600980E+00  2.51467740E+00
 -1.76756310E+00 -2.16845370E+00 -7.28892000E-01  2.53289970E+00 -1.22636079E+00
  2.44178820E+00  2.51467740E+00  2.51467740E+00 -2.15023140E+00 -2.15023140E+00
 -6.94269630E-01 -2.36889900E+00  2.46001050E+00 -2.36889900E+00  2.46001050E+00
 -1.39218372E+00  8.96537160E-01  8.96537160E-01 -2.29600980E+00  2.41445475E+00
  2.41445475E+00 -1.44685062E+00  8.23647960E-01  8.23647960E-01  2.40534360E+00
 -1.44685062E+00  7.23425310E-01  7.23425310E-01 -1.44685062E+00  7.41647610E-01
  7.41647610E-01 -1.44685062E+00  7.23425310E-01  7.23425310E-01 -1.44685062E+00
  7.23425310E-01  7.23425310E-01  7.23425310E-01  7.23425310E-01 -1.44685062E+00
 -1.46507292E+00  7.23425310E-01  7.23425310E-01  7.05203010E-01 -1.67827383E+00
  7.05203010E-01  5.95869210E-01  5.95869210E-01  5.95869210E-01  1.48511745E+00
 -1.48693968E+00 -1.29560553E+00 -5.61246840E-01 -1.54160658E+00 -1.56711780E+00
 -4.70135340E-01 -1.71289620E+00 -1.18627173E+00  1.43045055E+00 -5.28446700E-01
  2.58756660E+00 -1.76756310E+00 -2.29600980E+00  2.51467740E+00 -1.76756310E+00
 -2.16845370E+00 -7.28892000E-01  2.53289970E+00 -1.22636079E+00  2.44178820E+00
  2.51467740E+00  2.51467740E+00 -2.15023140E+00 -2.15023140E+00 -6.94269630E-01
 -2.36889900E+00  2.46001050E+00 -2.36889900E+00  2.46001050E+00 -1.39218372E+00
  8.96537160E-01  8.96537160E-01 -2.29600980E+00  2.41445475E+00  2.41445475E+00
 -1.44685062E+00  8.23647960E-01  8.23647960E-01  2.40534360E+00 -1.44685062E+00
  7.23425310E-01  7.23425310E-01 -1.44685062E+00  7.41647610E-01  7.41647610E-01
 -1.44685062E+00  7.23425310E-01  7.23425310E-01 -1.44685062E+00  7.23425310E-01
  7.23425310E-01  7.23425310E-01  7.23425310E-01 -1.44685062E+00 -1.46507292E+00
  7.23425310E-01  7.23425310E-01  7.05203010E-01 -1.67827383E+00  7.05203010E-01
  5.95869210E-01  5.95869210E-01  5.95869210E-01  1.48511745E+00 -1.48693968E+00
 -1.29560553E+00 -5.61246840E-01 -1.54160658E+00 -1.56711780E+00 -4.70135340E-01
 -1.71289620E+00 -1.18627173E+00  1.43045055E+00 -5.28446700E-01  2.58756660E+00
 -1.76756310E+00 -2.29600980E+00  2.51467740E+00 -1.76756310E+00 -2.16845370E+00
 -7.28892000E-01  2.53289970E+00 -1.22636079E+00  2.44178820E+00  2.51467740E+00
  2.51467740E+00 -2.15023140E+00 -2.15023140E+00 -6.94269630E-01 -2.36889900E+00
  2.46001050E+00 -2.36889900E+00  2.46001050E+00 -1.39218372E+00  8.96537160E-01
  8.96537160E-01 -2.29600980E+00  2.41445475E+00  2.41445475E+00 -1.44685062E+00
  8.23647960E-01  8.23647960E-01  2.40534360E+00 -1.44685062E+00  7.23425310E-01
  7.23425310E-01 -1.44685062E+00  7.41647610E-01  7.41647610E-01 -1.44685062E+00
  7.23425310E-01  7.23425310E-01 -1.44685062E+00  7.23425310E-01  7.23425310E-01
  7.23425310E-01  7.23425310E-01 -1.44685062E+00 -1.46507292E+00  7.23425310E-01
  7.23425310E-01  7.05203010E-01 -1.67827383E+00  7.05203010E-01  5.95869210E-01
  5.95869210E-01  5.95869210E-01  1.48511745E+00 -1.48693968E+00 -1.29560553E+00
 -5.61246840E-01 -1.54160658E+00 -1.56711780E+00 -4.70135340E-01 -1.71289620E+00
 -1.18627173E+00  1.43045055E+00 -5.28446700E-01  2.58756660E+00 -1.76756310E+00
 -2.29600980E+00  2.51467740E+00 -1.76756310E+00 -2.16845370E+00 -7.28892000E-01
  2.53289970E+00 -1.22636079E+00  2.44178820E+00  2.51467740E+00  2.51467740E+00
 -2.15023140E+00 -2.15023140E+00 -6.94269630E-01 -2.36889900E+00  2.46001050E+00
 -2.36889900E+00  2.46001050E+00 -1.39218372E+00  8.96537160E-01  8.96537160E-01
 -2.29600980E+00  2.41445475E+00  2.41445475E+00 -1.44685062E+00  8.23647960E-01
  8.23647960E-01  2.40534360E+00 -1.44685062E+00  7.23425310E-01  7.23425310E-01
 -1.44685062E+00  7.41647610E-01  7.41647610E-01 -1.44685062E+00  7.23425310E-01
  7.23425310E-01 -1.44685062E+00  7.23425310E-01  7.23425310E-01  7.23425310E-01
  7.23425310E-01 -1.44685062E+00 -1.46507292E+00  7.23425310E-01  7.23425310E-01
  7.05203010E-01 -1.67827383E+00  7.05203010E-01  5.95869210E-01  5.95869210E-01
  5.95869210E-01  1.48511745E+00 -1.48693968E+00 -1.29560553E+00 -5.61246840E-01
 -1.54160658E+00 -1.56711780E+00 -4.70135340E-01 -1.71289620E+00 -1.18627173E+00
  1.43045055E+00 -5.28446700E-01  2.58756660E+00 -1.76756310E+00 -2.29600980E+00
  2.51467740E+00 -1.76756310E+00 -2.16845370E+00 -7.28892000E-01  2.53289970E+00
 -1.22636079E+00  2.44178820E+00  2.51467740E+00  2.51467740E+00 -2.15023140E+00
 -2.15023140E+00 -6.94269630E-01 -2.36889900E+00  2.46001050E+00 -2.36889900E+00
  2.46001050E+00 -1.39218372E+00  8.96537160E-01  8.96537160E-01 -2.29600980E+00
  2.41445475E+00  2.41445475E+00 -1.44685062E+00  8.23647960E-01  8.23647960E-01
  2.40534360E+00 -1.44685062E+00  7.23425310E-01  7.23425310E-01 -1.44685062E+00
  7.41647610E-01  7.41647610E-01 -1.44685062E+00  7.23425310E-01  7.23425310E-01
 -1.44685062E+00  7.23425310E-01  7.23425310E-01  7.23425310E-01  7.23425310E-01
 -1.44685062E+00 -1.46507292E+00  7.23425310E-01  7.23425310E-01  7.05203010E-01
 -1.67827383E+00  7.05203010E-01  5.95869210E-01  5.95869210E-01  5.95869210E-01
  1.48511745E+00 -1.48693968E+00 -1.29560553E+00 -5.61246840E-01 -1.54160658E+00
 -1.56711780E+00 -4.70135340E-01 -1.71289620E+00 -1.18627173E+00  1.43045055E+00
 -5.28446700E-01  2.58756660E+00 -1.76756310E+00 -2.29600980E+00  2.51467740E+00
 -1.76756310E+00 -2.16845370E+00 -7.28892000E-01  2.53289970E+00 -1.22636079E+00
  2.44178820E+00  2.51467740E+00  2.51467740E+00 -2.15023140E+00 -2.15023140E+00
 -6.94269630E-01 -2.36889900E+00  2.46001050E+00 -2.36889900E+00  2.46001050E+00
 -1.39218372E+00  8.96537160E-01  8.96537160E-01 -2.29600980E+00  2.41445475E+00
  2.41445475E+00 -1.44685062E+00  8.23647960E-01  8.23647960E-01  2.40534360E+00
 -1.44685062E+00  7.23425310E-01  7.23425310E-01 -1.44685062E+00  7.41647610E-01
  7.41647610E-01 -1.44685062E+00  7.23425310E-01  7.23425310E-01 -1.44685062E+00
  7.23425310E-01  7.23425310E-01  7.23425310E-01  7.23425310E-01 -1.44685062E+00
 -1.46507292E+00  7.23425310E-01  7.23425310E-01  7.05203010E-01 -1.67827383E+00
  7.05203010E-01  5.95869210E-01  5.95869210E-01  5.95869210E-01  1.48511745E+00
 -1.48693968E+00 -1.29560553E+00 -5.61246840E-01 -1.54160658E+00 -1.56711780E+00
 -4.70135340E-01 -1.71289620E+00 -1.18627173E+00  1.43045055E+00 -5.28446700E-01
  2.58756660E+00 -1.76756310E+00 -2.29600980E+00  2.51467740E+00 -1.76756310E+00
 -2.16845370E+00 -7.28892000E-01  2.53289970E+00 -1.22636079E+00  2.44178820E+00
  2.51467740E+00  2.51467740E+00 -2.15023140E+00 -2.15023140E+00 -6.94269630E-01
 -2.36889900E+00  2.46001050E+00 -2.36889900E+00  2.46001050E+00 -1.39218372E+00
  8.96537160E-01  8.96537160E-01 -2.29600980E+00  2.41445475E+00  2.41445475E+00
 -1.44685062E+00  8.23647960E-01  8.23647960E-01  2.40534360E+00 -1.44685062E+00
  7.23425310E-01  7.23425310E-01 -1.44685062E+00  7.41647610E-01  7.41647610E-01
 -1.44685062E+00  7.23425310E-01  7.23425310E-01 -1.44685062E+00  7.23425310E-01
  7.23425310E-01  7.23425310E-01  7.23425310E-01 -1.44685062E+00 -1.46507292E+00
  7.23425310E-01  7.23425310E-01  7.05203010E-01 -1.67827383E+00  7.05203010E-01
  5.95869210E-01  5.95869210E-01  5.95869210E-01  1.48511745E+00 -1.48693968E+00
 -1.29560553E+00 -5.61246840E-01 -1.54160658E+00 -1.56711780E+00 -4.70135340E-01
 -1.71289620E+00 -1.18627173E+00  1.43045055E+00 -5.28446700E-01  2.58756660E+00
 -1.76756310E+00 -2.29600980E+00  2.51467740E+00 -1.76756310E+00 -2.16845370E+00
 -7.28892000E-01  2.53289970E+00 -1.22636079E+00  2.44178820E+00  2.51467740E+00
  2.51467740E+00 -2.15023140E+00 -2.15023140E+00 -6.94269630E-01 -2.36889900E+00
  2.46001050E+00 -2.36889900E+00  2.46001050E+00 -1.39218372E+00  8.96537160E-01
  8.96537160E-01 -2.29600980E+00  2.41445475E+00  2.41445475E+00 -1.44685062E+00
  8.23647960E-01  8.23647960E-01  2.40534360E+00 -1.44685062E+00  7.23425310E-01
  7.23425310E-01 -1.44685062E+00  7.41647610E-01  7.41647610E-01 -1.44685062E+00
  7.23425310E-01  7.23425310E-01 -1.44685062E+00  7.23425310E-01  7.23425310E-01
  7.23425310E-01  7.23425310E-01 -1.44685062E+00 -1.46507292E+00  7.23425310E-01
  7.23425310E-01  7.05203010E-01 -1.67827383E+00  7.05203010E-01  5.95869210E-01
  5.95869210E-01  5.95869210E-01  1.48511745E+00 -1.48693968E+00 -1.29560553E+00
 -5.61246840E-01 -1.54160658E+00 -1.56711780E+00 -4.70135340E-01 -1.71289620E+00
 -1.18627173E+00  1.43045055E+00 -5.28446700E-01  2.58756660E+00 -1.76756310E+00
 -2.29600980E+00  2.51467740E+00 -1.76756310E+00 -2.16845370E+00 -7.28892000E-01
  2.53289970E+00 -1.22636079E+00  2.44178820E+00  2.51467740E+00  2.51467740E+00
 -2.15023140E+00 -2.15023140E+00 -6.94269630E-01 -2.36889900E+00  2.46001050E+00
 -2.36889900E+00  2.46001050E+00 -1.39218372E+00  8.96537160E-01  8.96537160E-01
 -2.29600980E+00  2.41445475E+00  2.41445475E+00 -1.44685062E+00  8.23647960E-01
  8.23647960E-01  2.40534360E+00 -1.44685062E+00  7.23425310E-01  7.23425310E-01
 -1.44685062E+00  7.41647610E-01  7.41647610E-01 -1.44685062E+00  7.23425310E-01
  7.23425310E-01 -1.44685062E+00  7.23425310E-01  7.23425310E-01  7.23425310E-01
  7.23425310E-01 -1.44685062E+00 -1.46507292E+00  7.23425310E-01  7.23425310E-01
  7.05203010E-01 -1.67827383E+00  7.05203010E-01  5.95869210E-01  5.95869210E-01
  5.95869210E-01  1.48511745E+00 -1.48693968E+00 -1.29560553E+00 -5.61246840E-01
 -1.54160658E+00 -1.56711780E+00 -4.70135340E-01 -1.71289620E+00 -1.18627173E+00
  1.43045055E+00 -5.28446700E-01  2.58756660E+00 -1.76756310E+00 -2.29600980E+00
  2.51467740E+00 -1.76756310E+00 -2.16845370E+00 -7.28892000E-01  2.53289970E+00
 -1.22636079E+00  2.44178820E+00  2.51467740E+00  2.51467740E+00 -2.15023140E+00
 -2.15023140E+00 -6.94269630E-01 -2.36889900E+00  2.46001050E+00 -2.36889900E+00
  2.46001050E+00 -1.39218372E+00  8.96537160E-01  8.96537160E-01 -2.29600980E+00
  2.41445475E+00  2.41445475E+00 -1.44685062E+00  8.23647960E-01  8.23647960E-01
  2.40534360E+00 -1.44685062E+00  7.23425310E-01  7.23425310E-01 -1.44685062E+00
  7.41647610E-01  7.41647610E-01 -1.44685062E+00  7.23425310E-01  7.23425310E-01
 -1.44685062E+00  7.23425310E-01  7.23425310E-01  7.23425310E-01  7.23425310E-01
 -1.44685062E+00 -1.46507292E+00  7.23425310E-01  7.23425310E-01  7.05203010E-01
 -1.67827383E+00  7.05203010E-01  5.95869210E-01  5.95869210E-01  5.95869210E-01
  1.48511745E+00 -1.48693968E+00 -1.29560553E+00 -5.61246840E-01 -1.54160658E+00
 -1.56711780E+00 -4.70135340E-01 -1.71289620E+00 -1.18627173E+00  1.43045055E+00
 -5.28446700E-01  2.58756660E+00 -1.76756310E+00 -2.29600980E+00  2.51467740E+00
 -1.76756310E+00 -2.16845370E+00 -7.28892000E-01  2.53289970E+00 -1.22636079E+00
  2.44178820E+00  2.51467740E+00  2.51467740E+00 -2.15023140E+00 -2.15023140E+00
 -6.94269630E-01 -2.36889900E+00  2.46001050E+00 -2.36889900E+00  2.46001050E+00
 -1.39218372E+00  8.96537160E-01  8.96537160E-01 -2.29600980E+00  2.41445475E+00
  2.41445475E+00 -1.44685062E+00  8.23647960E-01  8.23647960E-01  2.40534360E+00
 -1.44685062E+00  7.23425310E-01  7.23425310E-01 -1.44685062E+00  7.41647610E-01
  7.41647610E-01 -1.44685062E+00  7.23425310E-01  7.23425310E-01 -1.44685062E+00
  7.23425310E-01  7.23425310E-01  7.23425310E-01  7.23425310E-01 -1.44685062E+00
 -1.46507292E+00  7.23425310E-01  7.23425310E-01  7.05203010E-01 -1.67827383E+00
  7.05203010E-01  5.95869210E-01  5.95869210E-01  5.95869210E-01  1.48511745E+00
 -1.48693968E+00 -1.29560553E+00 -5.61246840E-01 -1.54160658E+00 -1.56711780E+00
 -4.70135340E-01 -1.71289620E+00 -1.18627173E+00  1.43045055E+00 -5.28446700E-01
  2.58756660E+00 -1.76756310E+00 -2.29600980E+00  2.51467740E+00 -1.76756310E+00
 -2.16845370E+00 -7.28892000E-01  2.53289970E+00 -1.22636079E+00  2.44178820E+00
  2.51467740E+00  2.51467740E+00 -2.15023140E+00 -2.15023140E+00 -6.94269630E-01
 -2.36889900E+00  2.46001050E+00 -2.36889900E+00  2.46001050E+00 -1.39218372E+00
  8.96537160E-01  8.96537160E-01 -2.29600980E+00  2.41445475E+00  2.41445475E+00
 -1.44685062E+00  8.23647960E-01  8.23647960E-01  2.40534360E+00 -1.44685062E+00
  7.23425310E-01  7.23425310E-01 -1.44685062E+00  7.41647610E-01  7.41647610E-01
 -1.44685062E+00  7.23425310E-01  7.23425310E-01 -1.44685062E+00  7.23425310E-01
  7.23425310E-01  7.23425310E-01  7.23425310E-01 -1.44685062E+00 -1.46507292E+00
  7.23425310E-01  7.23425310E-01  7.05203010E-01 -1.67827383E+00  7.05203010E-01
  5.95869210E-01  5.95869210E-01  5.95869210E-01  1.48511745E+00 -1.48693968E+00
 -1.29560553E+00 -5.61246840E-01 -1.54160658E+00 -1.56711780E+00 -4.70135340E-01
 -1.71289620E+00 -1.18627173E+00  1.43045055E+00 -5.28446700E-01  2.58756660E+00
 -1.76756310E+00 -2.29600980E+00  2.51467740E+00 -1.76756310E+00 -2.16845370E+00
 -7.28892000E-01  2.53289970E+00 -1.22636079E+00  2.44178820E+00  2.51467740E+00
  2.51467740E+00 -2.15023140E+00 -2.15023140E+00 -6.94269630E-01 -2.36889900E+00
  2.46001050E+00 -2.36889900E+00  2.46001050E+00 -1.39218372E+00  8.96537160E-01
  8.96537160E-01 -2.29600980E+00  2.41445475E+00  2.41445475E+00 -1.44685062E+00
  8.23647960E-01  8.23647960E-01  2.40534360E+00 -1.44685062E+00  7.23425310E-01
  7.23425310E-01 -1.44685062E+00  7.41647610E-01  7.41647610E-01 -1.44685062E+00
  7.23425310E-01  7.23425310E-01 -1.44685062E+00  7.23425310E-01  7.23425310E-01
  7.23425310E-01  7.23425310E-01 -1.44685062E+00 -1.46507292E+00  7.23425310E-01
  7.23425310E-01  7.05203010E-01 -1.67827383E+00  7.05203010E-01  5.95869210E-01
  5.95869210E-01  5.95869210E-01  1.48511745E+00 -1.48693968E+00 -1.29560553E+00
 -5.61246840E-01 -1.54160658E+00 -1.56711780E+00 -4.70135340E-01 -1.71289620E+00
 -1.18627173E+00  1.43045055E+00 -5.28446700E-01  2.58756660E+00 -1.76756310E+00
 -2.29600980E+00  2.51467740E+00 -1.76756310E+00 -2.16845370E+00 -7.28892000E-01
  2.53289970E+00 -1.22636079E+00  2.44178820E+00  2.51467740E+00  2.51467740E+00
 -2.15023140E+00 -2.15023140E+00 -6.94269630E-01 -2.36889900E+00  2.46001050E+00
 -2.36889900E+00  2.46001050E+00 -1.39218372E+00  8.96537160E-01  8.96537160E-01
 -2.29600980E+00  2.41445475E+00  2.41445475E+00 -1.44685062E+00  8.23647960E-01
  8.23647960E-01  2.40534360E+00 -1.44685062E+00  7.23425310E-01  7.23425310E-01
 -1.44685062E+00  7.41647610E-01  7.41647610E-01 -1.44685062E+00  7.23425310E-01
  7.23425310E-01 -1.44685062E+00  7.23425310E-01  7.23425310E-01  7.23425310E-01
  7.23425310E-01 -1.44685062E+00 -1.46507292E+00  7.23425310E-01  7.23425310E-01
  7.05203010E-01 -1.67827383E+00  7.05203010E-01  5.95869210E-01  5.95869210E-01
  5.95869210E-01  1.48511745E+00 -1.48693968E+00 -1.29560553E+00 -5.61246840E-01
 -1.54160658E+00 -1.56711780E+00 -4.70135340E-01 -1.71289620E+00 -1.18627173E+00
  1.43045055E+00 -5.28446700E-01  2.58756660E+00 -1.76756310E+00 -2.29600980E+00
  2.51467740E+00 -1.76756310E+00 -2.16845370E+00 -7.28892000E-01  2.53289970E+00
 -1.22636079E+00  2.44178820E+00  2.51467740E+00  2.51467740E+00 -2.15023140E+00
 -2.15023140E+00 -6.94269630E-01 -2.36889900E+00  2.46001050E+00 -2.36889900E+00
  2.46001050E+00 -1.39218372E+00  8.96537160E-01  8.96537160E-01 -2.29600980E+00
  2.41445475E+00  2.41445475E+00 -1.44685062E+00  8.23647960E-01  8.23647960E-01
  2.40534360E+00 -1.44685062E+00  7.23425310E-01  7.23425310E-01 -1.44685062E+00
  7.41647610E-01  7.41647610E-01 -1.44685062E+00  7.23425310E-01  7.23425310E-01
 -1.44685062E+00  7.23425310E-01  7.23425310E-01  7.23425310E-01  7.23425310E-01
 -1.44685062E+00 -1.46507292E+00  7.23425310E-01  7.23425310E-01  7.05203010E-01
 -1.67827383E+00  7.05203010E-01  5.95869210E-01  5.95869210E-01  5.95869210E-01
  1.48511745E+00 -1.48693968E+00 -1.29560553E+00 -5.61246840E-01 -1.54160658E+00
 -1.56711780E+00 -4.70135340E-01 -1.71289620E+00 -1.18627173E+00  1.43045055E+00
 -5.28446700E-01  2.58756660E+00 -1.76756310E+00 -2.29600980E+00  2.51467740E+00
 -1.76756310E+00 -2.16845370E+00 -7.28892000E-01  2.53289970E+00 -1.22636079E+00
  2.44178820E+00  2.51467740E+00  2.51467740E+00 -2.15023140E+00 -2.15023140E+00
 -6.94269630E-01 -2.36889900E+00  2.46001050E+00 -2.36889900E+00  2.46001050E+00
 -1.39218372E+00  8.96537160E-01  8.96537160E-01 -2.29600980E+00  2.41445475E+00
  2.41445475E+00 -1.44685062E+00  8.23647960E-01  8.23647960E-01  2.40534360E+00
 -1.44685062E+00  7.23425310E-01  7.23425310E-01 -1.44685062E+00  7.41647610E-01
  7.41647610E-01 -1.44685062E+00  7.23425310E-01  7.23425310E-01 -1.44685062E+00
  7.23425310E-01  7.23425310E-01  7.23425310E-01  7.23425310E-01 -1.44685062E+00
 -1.46507292E+00  7.23425310E-01  7.23425310E-01  7.05203010E-01 -1.67827383E+00
  7.05203010E-01  5.95869210E-01  5.95869210E-01  5.95869210E-01  1.48511745E+00
 -1.48693968E+00 -1.29560553E+00 -5.61246840E-01 -1.54160658E+00 -1.56711780E+00
 -4.70135340E-01 -1.71289620E+00 -1.18627173E+00  1.43045055E+00 -5.28446700E-01
  2.58756660E+00 -1.76756310E+00 -2.29600980E+00  2.51467740E+00 -1.76756310E+00
 -2.16845370E+00 -7.28892000E-01  2.53289970E+00 -1.22636079E+00  2.44178820E+00
  2.51467740E+00  2.51467740E+00 -2.15023140E+00 -2.15023140E+00 -6.94269630E-01
 -2.36889900E+00  2.46001050E+00 -2.36889900E+00  2.46001050E+00 -1.39218372E+00
  8.96537160E-01  8.96537160E-01 -2.29600980E+00  2.41445475E+00  2.41445475E+00
 -1.44685062E+00  8.23647960E-01  8.23647960E-01  2.40534360E+00 -1.44685062E+00
  7.23425310E-01  7.23425310E-01 -1.44685062E+00  7.41647610E-01  7.41647610E-01
 -1.44685062E+00  7.23425310E-01  7.23425310E-01 -1.44685062E+00  7.23425310E-01
  7.23425310E-01  7.23425310E-01  7.23425310E-01 -1.44685062E+00 -1.46507292E+00
  7.23425310E-01  7.23425310E-01  7.05203010E-01 -1.67827383E+00  7.05203010E-01
  5.95869210E-01  5.95869210E-01  5.95869210E-01  1.48511745E+00 -1.48693968E+00
 -1.29560553E+00 -5.61246840E-01 -1.54160658E+00 -1.56711780E+00 -4.70135340E-01
 -1.71289620E+00 -1.18627173E+00  1.43045055E+00 -5.28446700E-01  2.58756660E+00
 -1.76756310E+00 -2.29600980E+00  2.51467740E+00 -1.76756310E+00 -2.16845370E+00
 -7.28892000E-01  2.53289970E+00 -1.22636079E+00  2.44178820E+00  2.51467740E+00
  2.51467740E+00 -2.15023140E+00 -2.15023140E+00 -6.94269630E-01 -2.36889900E+00
  2.46001050E+00 -2.36889900E+00  2.46001050E+00 -1.39218372E+00  8.96537160E-01
  8.96537160E-01 -2.29600980E+00  2.41445475E+00  2.41445475E+00 -1.44685062E+00
  8.23647960E-01  8.23647960E-01  2.40534360E+00 -1.44685062E+00  7.23425310E-01
  7.23425310E-01 -1.44685062E+00  7.41647610E-01  7.41647610E-01 -1.44685062E+00
  7.23425310E-01  7.23425310E-01 -1.44685062E+00  7.23425310E-01  7.23425310E-01
  7.23425310E-01  7.23425310E-01 -1.44685062E+00 -1.46507292E+00  7.23425310E-01
  7.23425310E-01  7.05203010E-01 -1.67827383E+00  7.05203010E-01  5.95869210E-01
  5.95869210E-01  5.95869210E-01  1.48511745E+00 -1.48693968E+00 -1.29560553E+00
 -5.61246840E-01 -1.54160658E+00 -1.56711780E+00 -4.70135340E-01 -1.71289620E+00
 -1.18627173E+00  1.43045055E+00 -5.28446700E-01  2.58756660E+00 -1.76756310E+00
 -2.29600980E+00  2.51467740E+00 -1.76756310E+00 -2.16845370E+00 -7.28892000E-01
  2.53289970E+00 -1.22636079E+00  2.44178820E+00  2.51467740E+00  2.51467740E+00
 -2.15023140E+00 -2.15023140E+00 -6.94269630E-01 -2.36889900E+00  2.46001050E+00
 -2.36889900E+00  2.46001050E+00 -1.39218372E+00  8.96537160E-01  8.96537160E-01
 -2.29600980E+00  2.41445475E+00  2.41445475E+00 -1.44685062E+00  8.23647960E-01
  8.23647960E-01  2.40534360E+00 -1.44685062E+00  7.23425310E-01  7.23425310E-01
 -1.44685062E+00  7.41647610E-01  7.41647610E-01 -1.44685062E+00  7.23425310E-01
  7.23425310E-01 -1.44685062E+00  7.23425310E-01  7.23425310E-01  7.23425310E-01
  7.23425310E-01 -1.44685062E+00 -1.46507292E+00  7.23425310E-01  7.23425310E-01
  7.05203010E-01 -1.67827383E+00  7.05203010E-01  5.95869210E-01  5.95869210E-01
  5.95869210E-01  1.48511745E+00 -1.48693968E+00 -1.29560553E+00 -5.61246840E-01
 -1.54160658E+00 -1.56711780E+00 -4.70135340E-01 -1.71289620E+00 -1.18627173E+00
  1.43045055E+00 -5.28446700E-01  2.58756660E+00 -1.76756310E+00 -2.29600980E+00
  2.51467740E+00 -1.76756310E+00 -2.16845370E+00 -7.28892000E-01  2.53289970E+00
 -1.22636079E+00  2.44178820E+00  2.51467740E+00  2.51467740E+00 -2.15023140E+00
 -2.15023140E+00 -6.94269630E-01 -2.36889900E+00  2.46001050E+00 -2.36889900E+00
  2.46001050E+00 -1.39218372E+00  8.96537160E-01  8.96537160E-01 -2.29600980E+00
  2.41445475E+00  2.41445475E+00 -1.44685062E+00  8.23647960E-01  8.23647960E-01
  2.40534360E+00 -1.44685062E+00  7.23425310E-01  7.23425310E-01 -1.44685062E+00
  7.41647610E-01  7.41647610E-01 -1.44685062E+00  7.23425310E-01  7.23425310E-01
 -1.44685062E+00  7.23425310E-01  7.23425310E-01  7.23425310E-01  7.23425310E-01
 -1.44685062E+00 -1.46507292E+00  7.23425310E-01  7.23425310E-01  7.05203010E-01
 -1.67827383E+00  7.05203010E-01  5.95869210E-01  5.95869210E-01  5.95869210E-01
  1.48511745E+00 -1.48693968E+00 -1.29560553E+00 -5.61246840E-01 -1.54160658E+00
 -1.56711780E+00 -4.70135340E-01 -1.71289620E+00 -1.18627173E+00  1.43045055E+00
 -5.28446700E-01  2.58756660E+00 -1.76756310E+00 -2.29600980E+00  2.51467740E+00
 -1.76756310E+00 -2.16845370E+00 -7.28892000E-01  2.53289970E+00 -1.22636079E+00
  2.44178820E+00  2.51467740E+00  2.51467740E+00 -2.15023140E+00 -2.15023140E+00
 -6.94269630E-01 -2.36889900E+00  2.46001050E+00 -2.36889900E+00  2.46001050E+00
 -1.39218372E+00  8.96537160E-01  8.96537160E-01 -2.29600980E+00  2.41445475E+00
  2.41445475E+00 -1.44685062E+00  8.23647960E-01  8.23647960E-01  2.40534360E+00
 -1.44685062E+00  7.23425310E-01  7.23425310E-01 -1.44685062E+00  7.41647610E-01
  7.41647610E-01 -1.44685062E+00  7.23425310E-01  7.23425310E-01 -1.44685062E+00
  7.23425310E-01  7.23425310E-01  7.23425310E-01  7.23425310E-01 -1.44685062E+00
 -1.46507292E+00  7.23425310E-01  7.23425310E-01  7.05203010E-01 -1.67827383E+00
  7.05203010E-01  5.95869210E-01  5.95869210E-01  5.95869210E-01  1.48511745E+00
 -1.48693968E+00 -1.29560553E+00 -5.61246840E-01 -1.54160658E+00 -1.56711780E+00
 -4.70135340E-01 -1.71289620E+00 -1.18627173E+00  1.43045055E+00 -5.28446700E-01
  2.58756660E+00 -1.76756310E+00 -2.29600980E+00  2.51467740E+00 -1.76756310E+00
 -2.16845370E+00 -7.28892000E-01  2.53289970E+00 -1.22636079E+00  2.44178820E+00
  2.51467740E+00  2.51467740E+00 -2.15023140E+00 -2.15023140E+00 -6.94269630E-01
 -2.36889900E+00  2.46001050E+00 -2.36889900E+00  2.46001050E+00 -1.39218372E+00
  8.96537160E-01  8.96537160E-01 -2.29600980E+00  2.41445475E+00  2.41445475E+00
 -1.44685062E+00  8.23647960E-01  8.23647960E-01  2.40534360E+00 -1.44685062E+00
  7.23425310E-01  7.23425310E-01 -1.44685062E+00  7.41647610E-01  7.41647610E-01
 -1.44685062E+00  7.23425310E-01  7.23425310E-01 -1.44685062E+00  7.23425310E-01
  7.23425310E-01  7.23425310E-01  7.23425310E-01 -1.44685062E+00 -1.46507292E+00
  7.23425310E-01  7.23425310E-01  7.05203010E-01 -1.67827383E+00  7.05203010E-01
  5.95869210E-01  5.95869210E-01  5.95869210E-01  1.48511745E+00 -1.48693968E+00
 -1.29560553E+00 -5.61246840E-01 -1.54160658E+00 -1.56711780E+00 -4.70135340E-01
 -1.71289620E+00 -1.18627173E+00  1.43045055E+00 -5.28446700E-01  2.58756660E+00
 -1.76756310E+00 -2.29600980E+00  2.51467740E+00 -1.76756310E+00 -2.16845370E+00
 -7.28892000E-01  2.53289970E+00 -1.22636079E+00  2.44178820E+00  2.51467740E+00
  2.51467740E+00 -2.15023140E+00 -2.15023140E+00 -6.94269630E-01 -2.36889900E+00
  2.46001050E+00 -2.36889900E+00  2.46001050E+00 -1.39218372E+00  8.96537160E-01
  8.96537160E-01 -2.29600980E+00  2.41445475E+00  2.41445475E+00 -1.44685062E+00
  8.23647960E-01  8.23647960E-01  2.40534360E+00 -1.44685062E+00  7.23425310E-01
  7.23425310E-01 -1.44685062E+00  7.41647610E-01  7.41647610E-01 -1.44685062E+00
  7.23425310E-01  7.23425310E-01 -1.44685062E+00  7.23425310E-01  7.23425310E-01
  7.23425310E-01  7.23425310E-01 -1.44685062E+00 -1.46507292E+00  7.23425310E-01
  7.23425310E-01  7.05203010E-01 -1.67827383E+00  7.05203010E-01  5.95869210E-01
  5.95869210E-01  5.95869210E-01  1.48511745E+00 -1.48693968E+00 -1.29560553E+00
 -5.61246840E-01 -1.54160658E+00 -1.56711780E+00 -4.70135340E-01 -1.71289620E+00
 -1.18627173E+00  1.43045055E+00 -5.28446700E-01  2.58756660E+00 -1.76756310E+00
 -2.29600980E+00  2.51467740E+00 -1.76756310E+00 -2.16845370E+00 -7.28892000E-01
  2.53289970E+00 -1.22636079E+00  2.44178820E+00  2.51467740E+00  2.51467740E+00
 -2.15023140E+00 -2.15023140E+00 -6.94269630E-01 -2.36889900E+00  2.46001050E+00
 -2.36889900E+00  2.46001050E+00 -1.39218372E+00  8.96537160E-01  8.96537160E-01
 -2.29600980E+00  2.41445475E+00  2.41445475E+00 -1.44685062E+00  8.23647960E-01
  8.23647960E-01  2.40534360E+00 -1.44685062E+00  7.23425310E-01  7.23425310E-01
 -1.44685062E+00  7.41647610E-01  7.41647610E-01 -1.44685062E+00  7.23425310E-01
  7.23425310E-01 -1.44685062E+00  7.23425310E-01  7.23425310E-01  7.23425310E-01
  7.23425310E-01 -1.44685062E+00 -1.46507292E+00  7.23425310E-01  7.23425310E-01
  7.05203010E-01 -1.67827383E+00  7.05203010E-01  5.95869210E-01  5.95869210E-01
  5.95869210E-01  1.48511745E+00 -1.48693968E+00 -1.29560553E+00 -5.61246840E-01
 -1.54160658E+00 -1.56711780E+00 -4.70135340E-01 -1.71289620E+00 -1.18627173E+00
  1.43045055E+00 -5.28446700E-01  2.58756660E+00 -1.76756310E+00 -2.29600980E+00
  2.51467740E+00 -1.76756310E+00 -2.16845370E+00 -7.28892000E-01  2.53289970E+00
 -1.22636079E+00  2.44178820E+00  2.51467740E+00  2.51467740E+00 -2.15023140E+00
 -2.15023140E+00 -6.94269630E-01 -2.36889900E+00  2.46001050E+00 -2.36889900E+00
  2.46001050E+00 -1.39218372E+00  8.96537160E-01  8.96537160E-01 -2.29600980E+00
  2.41445475E+00  2.41445475E+00 -1.44685062E+00  8.23647960E-01  8.23647960E-01
  2.40534360E+00 -1.44685062E+00  7.23425310E-01  7.23425310E-01 -1.44685062E+00
  7.41647610E-01  7.41647610E-01 -1.44685062E+00  7.23425310E-01  7.23425310E-01
 -1.44685062E+00  7.23425310E-01  7.23425310E-01  7.23425310E-01  7.23425310E-01
 -1.44685062E+00 -1.46507292E+00  7.23425310E-01  7.23425310E-01  7.05203010E-01
 -1.67827383E+00  7.05203010E-01  5.95869210E-01  5.95869210E-01  5.95869210E-01
  1.48511745E+00 -1.48693968E+00 -1.29560553E+00 -5.61246840E-01 -1.54160658E+00
 -1.56711780E+00 -4.70135340E-01 -1.71289620E+00 -1.18627173E+00  1.43045055E+00
 -5.28446700E-01  2.58756660E+00 -1.76756310E+00 -2.29600980E+00  2.51467740E+00
 -1.76756310E+00 -2.16845370E+00 -7.28892000E-01  2.53289970E+00 -1.22636079E+00
  2.44178820E+00  2.51467740E+00  2.51467740E+00 -2.15023140E+00 -2.15023140E+00
 -6.94269630E-01 -2.36889900E+00  2.46001050E+00 -2.36889900E+00  2.46001050E+00
 -1.39218372E+00  8.96537160E-01  8.96537160E-01 -2.29600980E+00  2.41445475E+00
  2.41445475E+00 -1.44685062E+00  8.23647960E-01  8.23647960E-01  2.40534360E+00
 -1.44685062E+00  7.23425310E-01  7.23425310E-01 -1.44685062E+00  7.41647610E-01
  7.41647610E-01 -1.44685062E+00  7.23425310E-01  7.23425310E-01 -1.44685062E+00
  7.23425310E-01  7.23425310E-01  7.23425310E-01  7.23425310E-01 -1.44685062E+00
 -1.46507292E+00  7.23425310E-01  7.23425310E-01  7.05203010E-01 -1.67827383E+00
  7.05203010E-01  5.95869210E-01  5.95869210E-01  5.95869210E-01  1.48511745E+00
 -1.48693968E+00 -1.29560553E+00 -5.61246840E-01 -1.54160658E+00 -1.56711780E+00
 -4.70135340E-01 -1.71289620E+00 -1.18627173E+00  1.43045055E+00 -5.28446700E-01
  2.58756660E+00 -1.76756310E+00 -2.29600980E+00  2.51467740E+00 -1.76756310E+00
 -2.16845370E+00 -7.28892000E-01  2.53289970E+00 -1.22636079E+00  2.44178820E+00
  2.51467740E+00  2.51467740E+00 -2.15023140E+00 -2.15023140E+00 -6.94269630E-01
 -2.36889900E+00  2.46001050E+00 -2.36889900E+00  2.46001050E+00 -1.39218372E+00
  8.96537160E-01  8.96537160E-01 -2.29600980E+00  2.41445475E+00  2.41445475E+00
 -1.44685062E+00  8.23647960E-01  8.23647960E-01  2.40534360E+00 -1.44685062E+00
  7.23425310E-01  7.23425310E-01 -1.44685062E+00  7.41647610E-01  7.41647610E-01
 -1.44685062E+00  7.23425310E-01  7.23425310E-01 -1.44685062E+00  7.23425310E-01
  7.23425310E-01  7.23425310E-01  7.23425310E-01 -1.44685062E+00 -1.46507292E+00
  7.23425310E-01  7.23425310E-01  7.05203010E-01 -1.67827383E+00  7.05203010E-01
  5.95869210E-01  5.95869210E-01  5.95869210E-01  1.48511745E+00 -1.48693968E+00
 -1.29560553E+00 -5.61246840E-01 -1.54160658E+00 -1.56711780E+00 -4.70135340E-01
 -1.71289620E+00 -1.18627173E+00  1.43045055E+00 -5.28446700E-01  2.58756660E+00
 -1.76756310E+00 -2.29600980E+00  2.51467740E+00 -1.76756310E+00 -2.16845370E+00
 -7.28892000E-01  2.53289970E+00 -1.22636079E+00  2.44178820E+00  2.51467740E+00
  2.51467740E+00 -2.15023140E+00 -2.15023140E+00 -6.94269630E-01 -2.36889900E+00
  2.46001050E+00 -2.36889900E+00  2.46001050E+00 -1.39218372E+00  8.96537160E-01
  8.96537160E-01 -2.29600980E+00  2.41445475E+00  2.41445475E+00 -1.44685062E+00
  8.23647960E-01  8.23647960E-01  2.40534360E+00 -1.44685062E+00  7.23425310E-01
  7.23425310E-01 -1.44685062E+00  7.41647610E-01  7.41647610E-01 -1.44685062E+00
  7.23425310E-01  7.23425310E-01 -1.44685062E+00  7.23425310E-01  7.23425310E-01
  7.23425310E-01  7.23425310E-01 -1.44685062E+00 -1.46507292E+00  7.23425310E-01
  7.23425310E-01  7.05203010E-01 -1.67827383E+00  7.05203010E-01  5.95869210E-01
  5.95869210E-01  5.95869210E-01  1.48511745E+00 -1.48693968E+00 -1.29560553E+00
 -5.61246840E-01 -1.54160658E+00 -1.56711780E+00 -4.70135340E-01 -1.71289620E+00
 -1.18627173E+00  1.43045055E+00 -5.28446700E-01  2.58756660E+00 -1.76756310E+00
 -2.29600980E+00  2.51467740E+00 -1.76756310E+00 -2.16845370E+00 -7.28892000E-01
  2.53289970E+00 -1.22636079E+00  2.44178820E+00  2.51467740E+00  2.51467740E+00
 -2.15023140E+00 -2.15023140E+00 -6.94269630E-01 -2.36889900E+00  2.46001050E+00
 -2.36889900E+00  2.46001050E+00 -1.39218372E+00  8.96537160E-01  8.96537160E-01
 -2.29600980E+00  2.41445475E+00  2.41445475E+00 -1.44685062E+00  8.23647960E-01
  8.23647960E-01  2.40534360E+00 -1.44685062E+00  7.23425310E-01  7.23425310E-01
 -1.44685062E+00  7.41647610E-01  7.41647610E-01 -1.44685062E+00  7.23425310E-01
  7.23425310E-01 -1.44685062E+00  7.23425310E-01  7.23425310E-01  7.23425310E-01
  7.23425310E-01 -1.44685062E+00 -1.46507292E+00  7.23425310E-01  7.23425310E-01
  7.05203010E-01 -1.67827383E+00  7.05203010E-01  5.95869210E-01  5.95869210E-01
  5.95869210E-01  1.48511745E+00 -1.48693968E+00 -1.29560553E+00 -5.61246840E-01
 -1.54160658E+00 -1.56711780E+00 -4.70135340E-01 -1.71289620E+00 -1.18627173E+00
  1.43045055E+00 -5.28446700E-01  2.58756660E+00 -1.76756310E+00 -2.29600980E+00
  2.51467740E+00 -1.76756310E+00 -2.16845370E+00 -7.28892000E-01  2.53289970E+00
 -1.22636079E+00  2.44178820E+00  2.51467740E+00  2.51467740E+00 -2.15023140E+00
 -2.15023140E+00 -6.94269630E-01 -2.36889900E+00  2.46001050E+00 -2.36889900E+00
  2.46001050E+00 -1.39218372E+00  8.96537160E-01  8.96537160E-01 -2.29600980E+00
  2.41445475E+00  2.41445475E+00 -1.44685062E+00  8.23647960E-01  8.23647960E-01
  2.40534360E+00 -1.44685062E+00  7.23425310E-01  7.23425310E-01 -1.44685062E+00
  7.41647610E-01  7.41647610E-01 -1.44685062E+00  7.23425310E-01  7.23425310E-01
 -1.44685062E+00  7.23425310E-01  7.23425310E-01  7.23425310E-01  7.23425310E-01
 -1.44685062E+00 -1.46507292E+00  7.23425310E-01  7.23425310E-01  7.05203010E-01
 -1.67827383E+00  7.05203010E-01  5.95869210E-01  5.95869210E-01  5.95869210E-01
  1.48511745E+00 -1.48693968E+00 -1.29560553E+00 -5.61246840E-01 -1.54160658E+00
 -1.56711780E+00 -4.70135340E-01 -1.71289620E+00 -1.18627173E+00  1.43045055E+00
 -5.28446700E-01  2.58756660E+00 -1.76756310E+00 -2.29600980E+00  2.51467740E+00
 -1.76756310E+00 -2.16845370E+00 -7.28892000E-01  2.53289970E+00 -1.22636079E+00
  2.44178820E+00  2.51467740E+00  2.51467740E+00 -2.15023140E+00 -2.15023140E+00
 -6.94269630E-01 -2.36889900E+00  2.46001050E+00 -2.36889900E+00  2.46001050E+00
 -1.39218372E+00  8.96537160E-01  8.96537160E-01 -2.29600980E+00  2.41445475E+00
  2.41445475E+00 -1.44685062E+00  8.23647960E-01  8.23647960E-01  2.40534360E+00
 -1.44685062E+00  7.23425310E-01  7.23425310E-01 -1.44685062E+00  7.41647610E-01
  7.41647610E-01 -1.44685062E+00  7.23425310E-01  7.23425310E-01 -1.44685062E+00
  7.23425310E-01  7.23425310E-01  7.23425310E-01  7.23425310E-01 -1.44685062E+00
 -1.46507292E+00  7.23425310E-01  7.23425310E-01  7.05203010E-01 -1.67827383E+00
  7.05203010E-01  5.95869210E-01  5.95869210E-01  5.95869210E-01  1.48511745E+00
 -1.48693968E+00 -1.29560553E+00 -5.61246840E-01 -1.54160658E+00 -1.56711780E+00
 -4.70135340E-01 -1.71289620E+00 -1.18627173E+00  1.43045055E+00 -5.28446700E-01
  2.58756660E+00 -1.76756310E+00 -2.29600980E+00  2.51467740E+00 -1.76756310E+00
 -2.16845370E+00 -7.28892000E-01  2.53289970E+00 -1.22636079E+00  2.44178820E+00
  2.51467740E+00  2.51467740E+00 -2.15023140E+00 -2.15023140E+00 -6.94269630E-01
 -2.36889900E+00  2.46001050E+00 -2.36889900E+00  2.46001050E+00 -1.39218372E+00
  8.96537160E-01  8.96537160E-01 -2.29600980E+00  2.41445475E+00  2.41445475E+00
 -1.44685062E+00  8.23647960E-01  8.23647960E-01  2.40534360E+00 -1.44685062E+00
  7.23425310E-01  7.23425310E-01 -1.44685062E+00  7.41647610E-01  7.41647610E-01
 -1.44685062E+00  7.23425310E-01  7.23425310E-01 -1.44685062E+00  7.23425310E-01
  7.23425310E-01  7.23425310E-01  7.23425310E-01 -1.44685062E+00 -1.46507292E+00
  7.23425310E-01  7.23425310E-01  7.05203010E-01 -1.67827383E+00  7.05203010E-01
  5.95869210E-01  5.95869210E-01  5.95869210E-01  1.48511745E+00 -1.48693968E+00
 -1.29560553E+00 -5.61246840E-01 -1.54160658E+00 -1.56711780E+00 -4.70135340E-01
 -1.71289620E+00 -1.18627173E+00  1.43045055E+00 -5.28446700E-01  2.58756660E+00
 -1.76756310E+00 -2.29600980E+00  2.51467740E+00 -1.76756310E+00 -2.16845370E+00
 -7.28892000E-01  2.53289970E+00 -1.22636079E+00  2.44178820E+00  2.51467740E+00
  2.51467740E+00 -2.15023140E+00 -2.15023140E+00 -6.94269630E-01 -2.36889900E+00
  2.46001050E+00 -2.36889900E+00  2.46001050E+00 -1.39218372E+00  8.96537160E-01
  8.96537160E-01 -2.29600980E+00  2.41445475E+00  2.41445475E+00 -1.44685062E+00
  8.23647960E-01  8.23647960E-01  2.40534360E+00 -1.44685062E+00  7.23425310E-01
  7.23425310E-01 -1.44685062E+00  7.41647610E-01  7.41647610E-01 -1.44685062E+00
  7.23425310E-01  7.23425310E-01 -1.44685062E+00  7.23425310E-01  7.23425310E-01
  7.23425310E-01  7.23425310E-01 -1.44685062E+00 -1.46507292E+00  7.23425310E-01
  7.23425310E-01  7.05203010E-01 -1.67827383E+00  7.05203010E-01  5.95869210E-01
  5.95869210E-01  5.95869210E-01  1.48511745E+00 -1.48693968E+00 -1.29560553E+00
 -5.61246840E-01 -1.54160658E+00 -1.56711780E+00 -4.70135340E-01 -1.71289620E+00
 -1.18627173E+00  1.43045055E+00 -5.28446700E-01  2.58756660E+00 -1.76756310E+00
 -2.29600980E+00  2.51467740E+00 -1.76756310E+00 -2.16845370E+00 -7.28892000E-01
  2.53289970E+00 -1.22636079E+00  2.44178820E+00  2.51467740E+00  2.51467740E+00
 -2.15023140E+00 -2.15023140E+00 -6.94269630E-01 -2.36889900E+00  2.46001050E+00
 -2.36889900E+00  2.46001050E+00 -1.39218372E+00  8.96537160E-01  8.96537160E-01
 -2.29600980E+00  2.41445475E+00  2.41445475E+00 -1.44685062E+00  8.23647960E-01
  8.23647960E-01  2.40534360E+00 -1.44685062E+00  7.23425310E-01  7.23425310E-01
 -1.44685062E+00  7.41647610E-01  7.41647610E-01 -1.44685062E+00  7.23425310E-01
  7.23425310E-01 -1.44685062E+00  7.23425310E-01  7.23425310E-01  7.23425310E-01
  7.23425310E-01 -1.44685062E+00 -1.46507292E+00  7.23425310E-01  7.23425310E-01
  7.05203010E-01 -1.67827383E+00  7.05203010E-01  5.95869210E-01  5.95869210E-01
  5.95869210E-01  1.48511745E+00 -1.48693968E+00 -1.29560553E+00 -5.61246840E-01
 -1.54160658E+00 -1.56711780E+00 -4.70135340E-01 -1.71289620E+00 -1.18627173E+00
  1.43045055E+00 -5.28446700E-01  2.58756660E+00 -1.76756310E+00 -2.29600980E+00
  2.51467740E+00 -1.76756310E+00 -2.16845370E+00 -7.28892000E-01  2.53289970E+00
 -1.22636079E+00  2.44178820E+00  2.51467740E+00  2.51467740E+00 -2.15023140E+00
 -2.15023140E+00 -6.94269630E-01 -2.36889900E+00  2.46001050E+00 -2.36889900E+00
  2.46001050E+00 -1.39218372E+00  8.96537160E-01  8.96537160E-01 -2.29600980E+00
  2.41445475E+00  2.41445475E+00 -1.44685062E+00  8.23647960E-01  8.23647960E-01
  2.40534360E+00 -1.44685062E+00  7.23425310E-01  7.23425310E-01 -1.44685062E+00
  7.41647610E-01  7.41647610E-01 -1.44685062E+00  7.23425310E-01  7.23425310E-01
 -1.44685062E+00  7.23425310E-01  7.23425310E-01  7.23425310E-01  7.23425310E-01
 -1.44685062E+00 -1.46507292E+00  7.23425310E-01  7.23425310E-01  7.05203010E-01
 -1.67827383E+00  7.05203010E-01  5.95869210E-01  5.95869210E-01  5.95869210E-01
  1.48511745E+00 -1.48693968E+00 -1.29560553E+00 -5.61246840E-01 -1.54160658E+00
 -1.56711780E+00 -4.70135340E-01 -1.71289620E+00 -1.18627173E+00  1.43045055E+00
 -5.28446700E-01  2.58756660E+00 -1.76756310E+00 -2.29600980E+00  2.51467740E+00
 -1.76756310E+00 -2.16845370E+00 -7.28892000E-01  2.53289970E+00 -1.22636079E+00
  2.44178820E+00  2.51467740E+00  2.51467740E+00 -2.15023140E+00 -2.15023140E+00
 -6.94269630E-01 -2.36889900E+00  2.46001050E+00 -2.36889900E+00  2.46001050E+00
 -1.39218372E+00  8.96537160E-01  8.96537160E-01 -2.29600980E+00  2.41445475E+00
  2.41445475E+00 -1.44685062E+00  8.23647960E-01  8.23647960E-01  2.40534360E+00
 -1.44685062E+00  7.23425310E-01  7.23425310E-01 -1.44685062E+00  7.41647610E-01
  7.41647610E-01 -1.44685062E+00  7.23425310E-01  7.23425310E-01 -1.44685062E+00
  7.23425310E-01  7.23425310E-01  7.23425310E-01  7.23425310E-01 -1.44685062E+00
 -1.46507292E+00  7.23425310E-01  7.23425310E-01  7.05203010E-01 -1.67827383E+00
  7.05203010E-01  5.95869210E-01  5.95869210E-01  5.95869210E-01  1.48511745E+00
 -1.48693968E+00 -1.29560553E+00 -5.61246840E-01 -1.54160658E+00 -1.56711780E+00
 -4.70135340E-01 -1.71289620E+00 -1.18627173E+00  1.43045055E+00 -5.28446700E-01
  2.58756660E+00 -1.76756310E+00 -2.29600980E+00  2.51467740E+00 -1.76756310E+00
 -2.16845370E+00 -7.28892000E-01  2.53289970E+00 -1.22636079E+00  2.44178820E+00
  2.51467740E+00  2.51467740E+00 -2.15023140E+00 -2.15023140E+00 -6.94269630E-01
 -2.36889900E+00  2.46001050E+00 -2.36889900E+00  2.46001050E+00 -1.39218372E+00
  8.96537160E-01  8.96537160E-01 -2.29600980E+00  2.41445475E+00  2.41445475E+00
 -1.44685062E+00  8.23647960E-01  8.23647960E-01  2.40534360E+00 -1.44685062E+00
  7.23425310E-01  7.23425310E-01 -1.44685062E+00  7.41647610E-01  7.41647610E-01
 -1.44685062E+00  7.23425310E-01  7.23425310E-01 -1.44685062E+00  7.23425310E-01
  7.23425310E-01  7.23425310E-01  7.23425310E-01 -1.44685062E+00 -1.46507292E+00
  7.23425310E-01  7.23425310E-01  7.05203010E-01 -1.67827383E+00  7.05203010E-01
  5.95869210E-01  5.95869210E-01  5.95869210E-01  1.48511745E+00 -1.48693968E+00
 -1.29560553E+00 -5.61246840E-01 -1.54160658E+00 -1.56711780E+00 -4.70135340E-01
 -1.71289620E+00 -1.18627173E+00  1.43045055E+00 -5.28446700E-01  2.58756660E+00
 -1.76756310E+00 -2.29600980E+00  2.51467740E+00 -1.76756310E+00 -2.16845370E+00
 -7.28892000E-01  2.53289970E+00 -1.22636079E+00  2.44178820E+00  2.51467740E+00
  2.51467740E+00 -2.15023140E+00 -2.15023140E+00 -6.94269630E-01 -2.36889900E+00
  2.46001050E+00 -2.36889900E+00  2.46001050E+00 -1.39218372E+00  8.96537160E-01
  8.96537160E-01 -2.29600980E+00  2.41445475E+00  2.41445475E+00 -1.44685062E+00
  8.23647960E-01  8.23647960E-01  2.40534360E+00 -1.44685062E+00  7.23425310E-01
  7.23425310E-01 -1.44685062E+00  7.41647610E-01  7.41647610E-01 -1.44685062E+00
  7.23425310E-01  7.23425310E-01 -1.44685062E+00  7.23425310E-01  7.23425310E-01
  7.23425310E-01  7.23425310E-01 -1.44685062E+00 -1.46507292E+00  7.23425310E-01
  7.23425310E-01  7.05203010E-01 -1.67827383E+00  7.05203010E-01  5.95869210E-01
  5.95869210E-01  5.95869210E-01  1.48511745E+00 -1.48693968E+00 -1.29560553E+00
 -5.61246840E-01 -1.54160658E+00 -1.56711780E+00 -4.70135340E-01 -1.71289620E+00
 -1.18627173E+00  1.43045055E+00 -5.28446700E-01  2.58756660E+00 -1.76756310E+00
 -2.29600980E+00  2.51467740E+00 -1.76756310E+00 -2.16845370E+00 -7.28892000E-01
  2.53289970E+00 -1.22636079E+00  2.44178820E+00  2.51467740E+00  2.51467740E+00
 -2.15023140E+00 -2.15023140E+00 -6.94269630E-01 -2.36889900E+00  2.46001050E+00
 -2.36889900E+00  2.46001050E+00 -1.39218372E+00  8.96537160E-01  8.96537160E-01
 -2.29600980E+00  2.41445475E+00  2.41445475E+00 -1.44685062E+00  8.23647960E-01
  8.23647960E-01  2.40534360E+00 -1.44685062E+00  7.23425310E-01  7.23425310E-01
 -1.44685062E+00  7.41647610E-01  7.41647610E-01 -1.44685062E+00  7.23425310E-01
  7.23425310E-01 -1.44685062E+00  7.23425310E-01  7.23425310E-01  7.23425310E-01
  7.23425310E-01 -1.44685062E+00 -1.46507292E+00  7.23425310E-01  7.23425310E-01
  7.05203010E-01 -1.67827383E+00  7.05203010E-01  5.95869210E-01  5.95869210E-01
  5.95869210E-01  1.48511745E+00 -1.48693968E+00 -1.29560553E+00 -5.61246840E-01
 -1.54160658E+00 -1.56711780E+00 -4.70135340E-01 -1.71289620E+00 -1.18627173E+00
  1.43045055E+00 -5.28446700E-01  2.58756660E+00 -1.76756310E+00 -2.29600980E+00
  2.51467740E+00 -1.76756310E+00 -2.16845370E+00 -7.28892000E-01  2.53289970E+00
 -1.22636079E+00  2.44178820E+00  2.51467740E+00  2.51467740E+00 -2.15023140E+00
 -2.15023140E+00 -6.94269630E-01 -2.36889900E+00  2.46001050E+00 -2.36889900E+00
  2.46001050E+00 -1.39218372E+00  8.96537160E-01  8.96537160E-01 -2.29600980E+00
  2.41445475E+00  2.41445475E+00 -1.44685062E+00  8.23647960E-01  8.23647960E-01
  2.40534360E+00 -1.44685062E+00  7.23425310E-01  7.23425310E-01 -1.44685062E+00
  7.41647610E-01  7.41647610E-01 -1.44685062E+00  7.23425310E-01  7.23425310E-01
 -1.44685062E+00  7.23425310E-01  7.23425310E-01  7.23425310E-01  7.23425310E-01
 -1.44685062E+00 -1.46507292E+00  7.23425310E-01  7.23425310E-01  7.05203010E-01
 -1.67827383E+00  7.05203010E-01  5.95869210E-01  5.95869210E-01  5.95869210E-01
  1.48511745E+00 -1.48693968E+00 -1.29560553E+00 -5.61246840E-01 -1.54160658E+00
 -1.56711780E+00 -4.70135340E-01 -1.71289620E+00 -1.18627173E+00  1.43045055E+00
 -5.28446700E-01  2.58756660E+00 -1.76756310E+00 -2.29600980E+00  2.51467740E+00
 -1.76756310E+00 -2.16845370E+00 -7.28892000E-01  2.53289970E+00 -1.22636079E+00
  2.44178820E+00  2.51467740E+00  2.51467740E+00 -2.15023140E+00 -2.15023140E+00
 -6.94269630E-01 -2.36889900E+00  2.46001050E+00 -2.36889900E+00  2.46001050E+00
 -1.39218372E+00  8.96537160E-01  8.96537160E-01 -2.29600980E+00  2.41445475E+00
  2.41445475E+00 -1.44685062E+00  8.23647960E-01  8.23647960E-01  2.40534360E+00
 -1.44685062E+00  7.23425310E-01  7.23425310E-01 -1.44685062E+00  7.41647610E-01
  7.41647610E-01 -1.44685062E+00  7.23425310E-01  7.23425310E-01 -1.44685062E+00
  7.23425310E-01  7.23425310E-01  7.23425310E-01  7.23425310E-01 -1.44685062E+00
 -1.46507292E+00  7.23425310E-01  7.23425310E-01  7.05203010E-01 -1.67827383E+00
  7.05203010E-01  5.95869210E-01  5.95869210E-01  5.95869210E-01  1.48511745E+00
 -1.48693968E+00 -1.29560553E+00 -5.61246840E-01 -1.54160658E+00 -1.56711780E+00
 -4.70135340E-01 -1.71289620E+00 -1.18627173E+00  1.43045055E+00 -5.28446700E-01
  2.58756660E+00 -1.76756310E+00 -2.29600980E+00  2.51467740E+00 -1.76756310E+00
 -2.16845370E+00 -7.28892000E-01  2.53289970E+00 -1.22636079E+00  2.44178820E+00
  2.51467740E+00  2.51467740E+00 -2.15023140E+00 -2.15023140E+00 -6.94269630E-01
 -2.36889900E+00  2.46001050E+00 -2.36889900E+00  2.46001050E+00 -1.39218372E+00
  8.96537160E-01  8.96537160E-01 -2.29600980E+00  2.41445475E+00  2.41445475E+00
 -1.44685062E+00  8.23647960E-01  8.23647960E-01  2.40534360E+00 -1.44685062E+00
  7.23425310E-01  7.23425310E-01 -1.44685062E+00  7.41647610E-01  7.41647610E-01
 -1.44685062E+00  7.23425310E-01  7.23425310E-01 -1.44685062E+00  7.23425310E-01
  7.23425310E-01  7.23425310E-01  7.23425310E-01 -1.44685062E+00 -1.46507292E+00
  7.23425310E-01  7.23425310E-01  7.05203010E-01 -1.67827383E+00  7.05203010E-01
  5.95869210E-01  5.95869210E-01  5.95869210E-01  1.48511745E+00 -1.48693968E+00
 -1.29560553E+00 -5.61246840E-01 -1.54160658E+00 -1.56711780E+00 -4.70135340E-01
 -1.71289620E+00 -1.18627173E+00  1.43045055E+00 -5.28446700E-01  2.58756660E+00
 -1.76756310E+00 -2.29600980E+00  2.51467740E+00 -1.76756310E+00 -2.16845370E+00
 -7.28892000E-01  2.53289970E+00 -1.22636079E+00  2.44178820E+00  2.51467740E+00
  2.51467740E+00 -2.15023140E+00 -2.15023140E+00 -6.94269630E-01 -2.36889900E+00
  2.46001050E+00 -2.36889900E+00  2.46001050E+00 -1.39218372E+00  8.96537160E-01
  8.96537160E-01 -2.29600980E+00  2.41445475E+00  2.41445475E+00 -1.44685062E+00
  8.23647960E-01  8.23647960E-01  2.40534360E+00 -1.44685062E+00  7.23425310E-01
  7.23425310E-01 -1.44685062E+00  7.41647610E-01  7.41647610E-01 -1.44685062E+00
  7.23425310E-01  7.23425310E-01 -1.44685062E+00  7.23425310E-01  7.23425310E-01
  7.23425310E-01  7.23425310E-01 -1.44685062E+00 -1.46507292E+00  7.23425310E-01
  7.23425310E-01  7.05203010E-01 -1.67827383E+00  7.05203010E-01  5.95869210E-01
  5.95869210E-01  5.95869210E-01  1.48511745E+00 -1.48693968E+00 -1.29560553E+00
 -5.61246840E-01 -1.54160658E+00 -1.56711780E+00 -4.70135340E-01 -1.71289620E+00
 -1.18627173E+00  1.43045055E+00 -5.28446700E-01  2.58756660E+00 -1.76756310E+00
 -2.29600980E+00  2.51467740E+00 -1.76756310E+00 -2.16845370E+00 -7.28892000E-01
  2.53289970E+00 -1.22636079E+00  2.44178820E+00  2.51467740E+00  2.51467740E+00
 -2.15023140E+00 -2.15023140E+00 -6.94269630E-01 -2.36889900E+00  2.46001050E+00
 -2.36889900E+00  2.46001050E+00 -1.39218372E+00  8.96537160E-01  8.96537160E-01
 -2.29600980E+00  2.41445475E+00  2.41445475E+00 -1.44685062E+00  8.23647960E-01
  8.23647960E-01  2.40534360E+00 -1.44685062E+00  7.23425310E-01  7.23425310E-01
 -1.44685062E+00  7.41647610E-01  7.41647610E-01 -1.44685062E+00  7.23425310E-01
  7.23425310E-01 -1.44685062E+00  7.23425310E-01  7.23425310E-01  7.23425310E-01
  7.23425310E-01 -1.44685062E+00 -1.46507292E+00  7.23425310E-01  7.23425310E-01
  7.05203010E-01 -1.67827383E+00  7.05203010E-01  5.95869210E-01  5.95869210E-01
  5.95869210E-01  1.48511745E+00 -1.48693968E+00 -1.29560553E+00 -5.61246840E-01
 -1.54160658E+00 -1.56711780E+00 -4.70135340E-01 -1.71289620E+00 -1.18627173E+00
  1.43045055E+00 -5.28446700E-01  2.58756660E+00 -1.76756310E+00 -2.29600980E+00
  2.51467740E+00 -1.76756310E+00 -2.16845370E+00 -7.28892000E-01  2.53289970E+00
 -1.22636079E+00  2.44178820E+00  2.51467740E+00  2.51467740E+00 -2.15023140E+00
 -2.15023140E+00 -6.94269630E-01 -2.36889900E+00  2.46001050E+00 -2.36889900E+00
  2.46001050E+00 -1.39218372E+00  8.96537160E-01  8.96537160E-01 -2.29600980E+00
  2.41445475E+00  2.41445475E+00 -1.44685062E+00  8.23647960E-01  8.23647960E-01
  2.40534360E+00 -1.44685062E+00  7.23425310E-01  7.23425310E-01 -1.44685062E+00
  7.41647610E-01  7.41647610E-01 -1.44685062E+00  7.23425310E-01  7.23425310E-01
 -1.44685062E+00  7.23425310E-01  7.23425310E-01  7.23425310E-01  7.23425310E-01
 -1.44685062E+00 -1.46507292E+00  7.23425310E-01  7.23425310E-01  7.05203010E-01
 -1.67827383E+00  7.05203010E-01  5.95869210E-01  5.95869210E-01  5.95869210E-01
  1.48511745E+00 -1.48693968E+00 -1.29560553E+00 -5.61246840E-01 -1.54160658E+00
 -1.56711780E+00 -4.70135340E-01 -1.71289620E+00 -1.18627173E+00  1.43045055E+00
 -5.28446700E-01  2.58756660E+00 -1.76756310E+00 -2.29600980E+00  2.51467740E+00
 -1.76756310E+00 -2.16845370E+00 -7.28892000E-01  2.53289970E+00 -1.22636079E+00
  2.44178820E+00  2.51467740E+00  2.51467740E+00 -2.15023140E+00 -2.15023140E+00
 -6.94269630E-01 -2.36889900E+00  2.46001050E+00 -2.36889900E+00  2.46001050E+00
 -1.39218372E+00  8.96537160E-01  8.96537160E-01 -2.29600980E+00  2.41445475E+00
  2.41445475E+00 -1.44685062E+00  8.23647960E-01  8.23647960E-01  2.40534360E+00
 -1.44685062E+00  7.23425310E-01  7.23425310E-01 -1.44685062E+00  7.41647610E-01
  7.41647610E-01 -1.44685062E+00  7.23425310E-01  7.23425310E-01 -1.44685062E+00
  7.23425310E-01  7.23425310E-01  7.23425310E-01  7.23425310E-01 -1.44685062E+00
 -1.46507292E+00  7.23425310E-01  7.23425310E-01  7.05203010E-01 -1.67827383E+00
  7.05203010E-01  5.95869210E-01  5.95869210E-01  5.95869210E-01  1.48511745E+00
 -1.48693968E+00 -1.29560553E+00 -5.61246840E-01 -1.54160658E+00 -1.56711780E+00
 -4.70135340E-01 -1.71289620E+00 -1.18627173E+00  1.43045055E+00 -5.28446700E-01
  2.58756660E+00 -1.76756310E+00 -2.29600980E+00  2.51467740E+00 -1.76756310E+00
 -2.16845370E+00 -7.28892000E-01  2.53289970E+00 -1.22636079E+00  2.44178820E+00
  2.51467740E+00  2.51467740E+00 -2.15023140E+00 -2.15023140E+00 -6.94269630E-01
 -2.36889900E+00  2.46001050E+00 -2.36889900E+00  2.46001050E+00 -1.39218372E+00
  8.96537160E-01  8.96537160E-01 -2.29600980E+00  2.41445475E+00  2.41445475E+00
 -1.44685062E+00  8.23647960E-01  8.23647960E-01  2.40534360E+00 -1.44685062E+00
  7.23425310E-01  7.23425310E-01 -1.44685062E+00  7.41647610E-01  7.41647610E-01
 -1.44685062E+00  7.23425310E-01  7.23425310E-01 -1.44685062E+00  7.23425310E-01
  7.23425310E-01  7.23425310E-01  7.23425310E-01 -1.44685062E+00 -1.46507292E+00
  7.23425310E-01  7.23425310E-01  7.05203010E-01 -1.67827383E+00  7.05203010E-01
  5.95869210E-01  5.95869210E-01  5.95869210E-01  1.48511745E+00 -1.48693968E+00
 -1.29560553E+00 -5.61246840E-01 -1.54160658E+00 -1.56711780E+00 -4.70135340E-01
 -1.71289620E+00 -1.18627173E+00  1.43045055E+00 -5.28446700E-01  2.58756660E+00
 -1.76756310E+00 -2.29600980E+00  2.51467740E+00 -1.76756310E+00 -2.16845370E+00
 -7.28892000E-01  2.53289970E+00 -1.22636079E+00  2.44178820E+00  2.51467740E+00
  2.51467740E+00 -2.15023140E+00 -2.15023140E+00 -6.94269630E-01 -2.36889900E+00
  2.46001050E+00 -2.36889900E+00  2.46001050E+00 -1.39218372E+00  8.96537160E-01
  8.96537160E-01 -2.29600980E+00  2.41445475E+00  2.41445475E+00 -1.44685062E+00
  8.23647960E-01  8.23647960E-01  2.40534360E+00 -1.44685062E+00  7.23425310E-01
  7.23425310E-01 -1.44685062E+00  7.41647610E-01  7.41647610E-01 -1.44685062E+00
  7.23425310E-01  7.23425310E-01 -1.44685062E+00  7.23425310E-01  7.23425310E-01
  7.23425310E-01  7.23425310E-01 -1.44685062E+00 -1.46507292E+00  7.23425310E-01
  7.23425310E-01  7.05203010E-01 -1.67827383E+00  7.05203010E-01  5.95869210E-01
  5.95869210E-01  5.95869210E-01  1.48511745E+00 -1.48693968E+00 -1.29560553E+00
 -5.61246840E-01 -1.54160658E+00 -1.56711780E+00 -4.70135340E-01 -1.71289620E+00
 -1.18627173E+00  1.43045055E+00 -5.28446700E-01  2.58756660E+00 -1.76756310E+00
 -2.29600980E+00  2.51467740E+00 -1.76756310E+00 -2.16845370E+00 -7.28892000E-01
  2.53289970E+00 -1.22636079E+00  2.44178820E+00  2.51467740E+00  2.51467740E+00
 -2.15023140E+00 -2.15023140E+00 -6.94269630E-01 -2.36889900E+00  2.46001050E+00
 -2.36889900E+00  2.46001050E+00 -1.39218372E+00  8.96537160E-01  8.96537160E-01
 -2.29600980E+00  2.41445475E+00  2.41445475E+00 -1.44685062E+00  8.23647960E-01
  8.23647960E-01  2.40534360E+00 -1.44685062E+00  7.23425310E-01  7.23425310E-01
 -1.44685062E+00  7.41647610E-01  7.41647610E-01 -1.44685062E+00  7.23425310E-01
  7.23425310E-01 -1.44685062E+00  7.23425310E-01  7.23425310E-01  7.23425310E-01
  7.23425310E-01 -1.44685062E+00 -1.46507292E+00  7.23425310E-01  7.23425310E-01
  7.05203010E-01 -1.67827383E+00  7.05203010E-01  5.95869210E-01  5.95869210E-01
  5.95869210E-01  1.48511745E+00 -1.48693968E+00 -1.29560553E+00 -5.61246840E-01
 -1.54160658E+00 -1.56711780E+00 -4.70135340E-01 -1.71289620E+00 -1.18627173E+00
  1.43045055E+00 -5.28446700E-01  2.58756660E+00 -1.76756310E+00 -2.29600980E+00
  2.51467740E+00 -1.76756310E+00 -2.16845370E+00 -7.28892000E-01  2.53289970E+00
 -1.22636079E+00  2.44178820E+00  2.51467740E+00  2.51467740E+00 -2.15023140E+00
 -2.15023140E+00 -6.94269630E-01 -2.36889900E+00  2.46001050E+00 -2.36889900E+00
  2.46001050E+00 -1.39218372E+00  8.96537160E-01  8.96537160E-01 -2.29600980E+00
  2.41445475E+00  2.41445475E+00 -1.44685062E+00  8.23647960E-01  8.23647960E-01
  2.40534360E+00 -1.44685062E+00  7.23425310E-01  7.23425310E-01 -1.44685062E+00
  7.41647610E-01  7.41647610E-01 -1.44685062E+00  7.23425310E-01  7.23425310E-01
 -1.44685062E+00  7.23425310E-01  7.23425310E-01  7.23425310E-01  7.23425310E-01
 -1.44685062E+00 -1.46507292E+00  7.23425310E-01  7.23425310E-01  7.05203010E-01
 -1.67827383E+00  7.05203010E-01  5.95869210E-01  5.95869210E-01  5.95869210E-01
  1.48511745E+00 -1.48693968E+00 -1.29560553E+00 -5.61246840E-01 -1.54160658E+00
 -1.56711780E+00 -4.70135340E-01 -1.71289620E+00 -1.18627173E+00  1.43045055E+00
 -5.28446700E-01  2.58756660E+00 -1.76756310E+00 -2.29600980E+00  2.51467740E+00
 -1.76756310E+00 -2.16845370E+00 -7.28892000E-01  2.53289970E+00 -1.22636079E+00
  2.44178820E+00  2.51467740E+00  2.51467740E+00 -2.15023140E+00 -2.15023140E+00
 -6.94269630E-01 -2.36889900E+00  2.46001050E+00 -2.36889900E+00  2.46001050E+00
 -1.39218372E+00  8.96537160E-01  8.96537160E-01 -2.29600980E+00  2.41445475E+00
  2.41445475E+00 -1.44685062E+00  8.23647960E-01  8.23647960E-01  2.40534360E+00
 -1.44685062E+00  7.23425310E-01  7.23425310E-01 -1.44685062E+00  7.41647610E-01
  7.41647610E-01 -1.44685062E+00  7.23425310E-01  7.23425310E-01 -1.44685062E+00
  7.23425310E-01  7.23425310E-01  7.23425310E-01  7.23425310E-01 -1.44685062E+00
 -1.46507292E+00  7.23425310E-01  7.23425310E-01  7.05203010E-01 -1.67827383E+00
  7.05203010E-01  5.95869210E-01  5.95869210E-01  5.95869210E-01  1.48511745E+00
 -1.48693968E+00 -1.29560553E+00 -5.61246840E-01 -1.54160658E+00 -1.56711780E+00
 -4.70135340E-01 -1.71289620E+00 -1.18627173E+00  1.43045055E+00 -5.28446700E-01
  2.58756660E+00 -1.76756310E+00 -2.29600980E+00  2.51467740E+00 -1.76756310E+00
 -2.16845370E+00 -7.28892000E-01  2.53289970E+00 -1.22636079E+00  2.44178820E+00
  2.51467740E+00  2.51467740E+00 -2.15023140E+00 -2.15023140E+00 -6.94269630E-01
 -2.36889900E+00  2.46001050E+00 -2.36889900E+00  2.46001050E+00 -1.39218372E+00
  8.96537160E-01  8.96537160E-01 -2.29600980E+00  2.41445475E+00  2.41445475E+00
 -1.44685062E+00  8.23647960E-01  8.23647960E-01  2.40534360E+00 -1.44685062E+00
  7.23425310E-01  7.23425310E-01 -1.44685062E+00  7.41647610E-01  7.41647610E-01
 -1.44685062E+00  7.23425310E-01  7.23425310E-01 -1.44685062E+00  7.23425310E-01
  7.23425310E-01  7.23425310E-01  7.23425310E-01 -1.44685062E+00 -1.46507292E+00
  7.23425310E-01  7.23425310E-01  7.05203010E-01 -1.67827383E+00  7.05203010E-01
  5.95869210E-01  5.95869210E-01  5.95869210E-01  1.48511745E+00 -1.48693968E+00
 -1.29560553E+00 -5.61246840E-01 -1.54160658E+00 -1.56711780E+00 -4.70135340E-01
 -1.71289620E+00 -1.18627173E+00  1.43045055E+00 -5.28446700E-01  2.58756660E+00
 -1.76756310E+00 -2.29600980E+00  2.51467740E+00 -1.76756310E+00 -2.16845370E+00
 -7.28892000E-01  2.53289970E+00 -1.22636079E+00  2.44178820E+00  2.51467740E+00
  2.51467740E+00 -2.15023140E+00 -2.15023140E+00 -6.94269630E-01 -2.36889900E+00
  2.46001050E+00 -2.36889900E+00  2.46001050E+00 -1.39218372E+00  8.96537160E-01
  8.96537160E-01 -2.29600980E+00  2.41445475E+00  2.41445475E+00 -1.44685062E+00
  8.23647960E-01  8.23647960E-01  2.40534360E+00 -1.44685062E+00  7.23425310E-01
  7.23425310E-01 -1.44685062E+00  7.41647610E-01  7.41647610E-01 -1.44685062E+00
  7.23425310E-01  7.23425310E-01 -1.44685062E+00  7.23425310E-01  7.23425310E-01
  7.23425310E-01  7.23425310E-01 -1.44685062E+00 -1.46507292E+00  7.23425310E-01
  7.23425310E-01  7.05203010E-01 -1.67827383E+00  7.05203010E-01  5.95869210E-01
  5.95869210E-01  5.95869210E-01  1.48511745E+00 -1.48693968E+00 -1.29560553E+00
 -5.61246840E-01 -1.54160658E+00 -1.56711780E+00 -4.70135340E-01 -1.71289620E+00
 -1.18627173E+00  1.43045055E+00 -5.28446700E-01  2.58756660E+00 -1.76756310E+00
 -2.29600980E+00  2.51467740E+00 -1.76756310E+00 -2.16845370E+00 -7.28892000E-01
  2.53289970E+00 -1.22636079E+00  2.44178820E+00  2.51467740E+00  2.51467740E+00
 -2.15023140E+00 -2.15023140E+00 -6.94269630E-01 -2.36889900E+00  2.46001050E+00
 -2.36889900E+00  2.46001050E+00 -1.39218372E+00  8.96537160E-01  8.96537160E-01
 -2.29600980E+00  2.41445475E+00  2.41445475E+00 -1.44685062E+00  8.23647960E-01
  8.23647960E-01  2.40534360E+00 -1.44685062E+00  7.23425310E-01  7.23425310E-01
 -1.44685062E+00  7.41647610E-01  7.41647610E-01 -1.44685062E+00  7.23425310E-01
  7.23425310E-01 -1.44685062E+00  7.23425310E-01  7.23425310E-01  7.23425310E-01
  7.23425310E-01 -1.44685062E+00 -1.46507292E+00  7.23425310E-01  7.23425310E-01
  7.05203010E-01 -1.67827383E+00  7.05203010E-01  5.95869210E-01  5.95869210E-01
  5.95869210E-01  1.48511745E+00 -1.48693968E+00 -1.29560553E+00 -5.61246840E-01
 -1.54160658E+00 -1.56711780E+00 -4.70135340E-01 -1.71289620E+00 -1.18627173E+00
  1.43045055E+00 -5.28446700E-01  2.58756660E+00 -1.76756310E+00 -2.29600980E+00
  2.51467740E+00 -1.76756310E+00 -2.16845370E+00 -7.28892000E-01  2.53289970E+00
 -1.22636079E+00  2.44178820E+00  2.51467740E+00  2.51467740E+00 -2.15023140E+00
 -2.15023140E+00 -6.94269630E-01 -2.36889900E+00  2.46001050E+00 -2.36889900E+00
  2.46001050E+00 -1.39218372E+00  8.96537160E-01  8.96537160E-01 -2.29600980E+00
  2.41445475E+00  2.41445475E+00 -1.44685062E+00  8.23647960E-01  8.23647960E-01
  2.40534360E+00 -1.44685062E+00  7.23425310E-01  7.23425310E-01 -1.44685062E+00
  7.41647610E-01  7.41647610E-01 -1.44685062E+00  7.23425310E-01  7.23425310E-01
 -1.44685062E+00  7.23425310E-01  7.23425310E-01  7.23425310E-01  7.23425310E-01
 -1.44685062E+00 -1.46507292E+00  7.23425310E-01  7.23425310E-01  7.05203010E-01
 -1.67827383E+00  7.05203010E-01  5.95869210E-01  5.95869210E-01  5.95869210E-01
  1.48511745E+00 -1.48693968E+00 -1.29560553E+00 -5.61246840E-01 -1.54160658E+00
 -1.56711780E+00 -4.70135340E-01 -1.71289620E+00 -1.18627173E+00  1.43045055E+00
 -5.28446700E-01  2.58756660E+00 -1.76756310E+00 -2.29600980E+00  2.51467740E+00
 -1.76756310E+00 -2.16845370E+00 -7.28892000E-01  2.53289970E+00 -1.22636079E+00
  2.44178820E+00  2.51467740E+00  2.51467740E+00 -2.15023140E+00 -2.15023140E+00
 -6.94269630E-01 -2.36889900E+00  2.46001050E+00 -2.36889900E+00  2.46001050E+00
 -1.39218372E+00  8.96537160E-01  8.96537160E-01 -2.29600980E+00  2.41445475E+00
  2.41445475E+00 -1.44685062E+00  8.23647960E-01  8.23647960E-01  2.40534360E+00
 -1.44685062E+00  7.23425310E-01  7.23425310E-01 -1.44685062E+00  7.41647610E-01
  7.41647610E-01 -1.44685062E+00  7.23425310E-01  7.23425310E-01 -1.44685062E+00
  7.23425310E-01  7.23425310E-01  7.23425310E-01  7.23425310E-01 -1.44685062E+00
 -1.46507292E+00  7.23425310E-01  7.23425310E-01  7.05203010E-01 -1.67827383E+00
  7.05203010E-01  5.95869210E-01  5.95869210E-01  5.95869210E-01  1.48511745E+00
 -1.48693968E+00 -1.29560553E+00 -5.61246840E-01 -1.54160658E+00 -1.56711780E+00
 -4.70135340E-01 -1.71289620E+00 -1.18627173E+00  1.43045055E+00 -5.28446700E-01
  2.58756660E+00 -1.76756310E+00 -2.29600980E+00  2.51467740E+00 -1.76756310E+00
 -2.16845370E+00 -7.28892000E-01  2.53289970E+00 -1.22636079E+00  2.44178820E+00
  2.51467740E+00  2.51467740E+00 -2.15023140E+00 -2.15023140E+00 -6.94269630E-01
 -2.36889900E+00  2.46001050E+00 -2.36889900E+00  2.46001050E+00 -1.39218372E+00
  8.96537160E-01  8.96537160E-01 -2.29600980E+00  2.41445475E+00  2.41445475E+00
 -1.44685062E+00  8.23647960E-01  8.23647960E-01  2.40534360E+00 -1.44685062E+00
  7.23425310E-01  7.23425310E-01 -1.44685062E+00  7.41647610E-01  7.41647610E-01
 -1.44685062E+00  7.23425310E-01  7.23425310E-01 -1.44685062E+00  7.23425310E-01
  7.23425310E-01  7.23425310E-01  7.23425310E-01 -1.44685062E+00 -1.46507292E+00
  7.23425310E-01  7.23425310E-01  7.05203010E-01 -1.67827383E+00  7.05203010E-01
  5.95869210E-01  5.95869210E-01  5.95869210E-01  1.48511745E+00 -1.48693968E+00
 -1.29560553E+00 -5.61246840E-01 -1.54160658E+00 -1.56711780E+00 -4.70135340E-01
 -1.71289620E+00 -1.18627173E+00  1.43045055E+00 -5.28446700E-01  2.58756660E+00
 -1.76756310E+00 -2.29600980E+00  2.51467740E+00 -1.76756310E+00 -2.16845370E+00
 -7.28892000E-01  2.53289970E+00 -1.22636079E+00  2.44178820E+00  2.51467740E+00
  2.51467740E+00 -2.15023140E+00 -2.15023140E+00 -6.94269630E-01 -2.36889900E+00
  2.46001050E+00 -2.36889900E+00  2.46001050E+00 -1.39218372E+00  8.96537160E-01
  8.96537160E-01 -2.29600980E+00  2.41445475E+00  2.41445475E+00 -1.44685062E+00
  8.23647960E-01  8.23647960E-01  2.40534360E+00 -1.44685062E+00  7.23425310E-01
  7.23425310E-01 -1.44685062E+00  7.41647610E-01  7.41647610E-01 -1.44685062E+00
  7.23425310E-01  7.23425310E-01 -1.44685062E+00  7.23425310E-01  7.23425310E-01
  7.23425310E-01  7.23425310E-01 -1.44685062E+00 -1.46507292E+00  7.23425310E-01
  7.23425310E-01  7.05203010E-01 -1.67827383E+00  7.05203010E-01  5.95869210E-01
  5.95869210E-01  5.95869210E-01  1.48511745E+00 -1.48693968E+00 -1.29560553E+00
 -5.61246840E-01 -1.54160658E+00 -1.56711780E+00 -4.70135340E-01 -1.71289620E+00
 -1.18627173E+00  1.43045055E+00 -5.28446700E-01  2.58756660E+00 -1.76756310E+00
 -2.29600980E+00  2.51467740E+00 -1.76756310E+00 -2.16845370E+00 -7.28892000E-01
  2.53289970E+00 -1.22636079E+00  2.44178820E+00  2.51467740E+00  2.51467740E+00
 -2.15023140E+00 -2.15023140E+00 -6.94269630E-01 -2.36889900E+00  2.46001050E+00
 -2.36889900E+00  2.46001050E+00 -1.39218372E+00  8.96537160E-01  8.96537160E-01
 -2.29600980E+00  2.41445475E+00  2.41445475E+00 -1.44685062E+00  8.23647960E-01
  8.23647960E-01  2.40534360E+00 -1.44685062E+00  7.23425310E-01  7.23425310E-01
 -1.44685062E+00  7.41647610E-01  7.41647610E-01 -1.44685062E+00  7.23425310E-01
  7.23425310E-01 -1.44685062E+00  7.23425310E-01  7.23425310E-01  7.23425310E-01
  7.23425310E-01 -1.44685062E+00 -1.46507292E+00  7.23425310E-01  7.23425310E-01
  7.05203010E-01 -1.67827383E+00  7.05203010E-01  5.95869210E-01  5.95869210E-01
  5.95869210E-01  1.48511745E+00 -1.48693968E+00 -1.29560553E+00 -5.61246840E-01
 -1.54160658E+00 -1.56711780E+00 -4.70135340E-01 -1.71289620E+00 -1.18627173E+00
  1.43045055E+00 -5.28446700E-01  2.58756660E+00 -1.76756310E+00 -2.29600980E+00
  2.51467740E+00 -1.76756310E+00 -2.16845370E+00 -7.28892000E-01  2.53289970E+00
 -1.22636079E+00  2.44178820E+00  2.51467740E+00  2.51467740E+00 -2.15023140E+00
 -2.15023140E+00 -6.94269630E-01 -2.36889900E+00  2.46001050E+00 -2.36889900E+00
  2.46001050E+00 -1.39218372E+00  8.96537160E-01  8.96537160E-01 -2.29600980E+00
  2.41445475E+00  2.41445475E+00 -1.44685062E+00  8.23647960E-01  8.23647960E-01
  2.40534360E+00 -1.44685062E+00  7.23425310E-01  7.23425310E-01 -1.44685062E+00
  7.41647610E-01  7.41647610E-01 -1.44685062E+00  7.23425310E-01  7.23425310E-01
 -1.44685062E+00  7.23425310E-01  7.23425310E-01  7.23425310E-01  7.23425310E-01
 -1.44685062E+00 -1.46507292E+00  7.23425310E-01  7.23425310E-01  7.05203010E-01
 -1.67827383E+00  7.05203010E-01  5.95869210E-01  5.95869210E-01  5.95869210E-01
  1.48511745E+00 -1.48693968E+00 -1.29560553E+00 -5.61246840E-01 -1.54160658E+00
 -1.56711780E+00 -4.70135340E-01 -1.71289620E+00 -1.18627173E+00  1.43045055E+00
 -5.28446700E-01  2.58756660E+00 -1.76756310E+00 -2.29600980E+00  2.51467740E+00
 -1.76756310E+00 -2.16845370E+00 -7.28892000E-01  2.53289970E+00 -1.22636079E+00
  2.44178820E+00  2.51467740E+00  2.51467740E+00 -2.15023140E+00 -2.15023140E+00
 -6.94269630E-01 -2.36889900E+00  2.46001050E+00 -2.36889900E+00  2.46001050E+00
 -1.39218372E+00  8.96537160E-01  8.96537160E-01 -2.29600980E+00  2.41445475E+00
  2.41445475E+00 -1.44685062E+00  8.23647960E-01  8.23647960E-01  2.40534360E+00
 -1.44685062E+00  7.23425310E-01  7.23425310E-01 -1.44685062E+00  7.41647610E-01
  7.41647610E-01 -1.44685062E+00  7.23425310E-01  7.23425310E-01 -1.44685062E+00
  7.23425310E-01  7.23425310E-01  7.23425310E-01  7.23425310E-01 -1.44685062E+00
 -1.46507292E+00  7.23425310E-01  7.23425310E-01  7.05203010E-01 -1.67827383E+00
  7.05203010E-01  5.95869210E-01  5.95869210E-01  5.95869210E-01  1.48511745E+00
 -1.48693968E+00 -1.29560553E+00 -5.61246840E-01 -1.54160658E+00 -1.56711780E+00
 -4.70135340E-01 -1.71289620E+00 -1.18627173E+00  1.43045055E+00 -5.28446700E-01
  2.58756660E+00 -1.76756310E+00 -2.29600980E+00  2.51467740E+00 -1.76756310E+00
 -2.16845370E+00 -7.28892000E-01  2.53289970E+00 -1.22636079E+00  2.44178820E+00
  2.51467740E+00  2.51467740E+00 -2.15023140E+00 -2.15023140E+00 -6.94269630E-01
 -2.36889900E+00  2.46001050E+00 -2.36889900E+00  2.46001050E+00 -1.39218372E+00
  8.96537160E-01  8.96537160E-01 -2.29600980E+00  2.41445475E+00  2.41445475E+00
 -1.44685062E+00  8.23647960E-01  8.23647960E-01  2.40534360E+00 -1.44685062E+00
  7.23425310E-01  7.23425310E-01 -1.44685062E+00  7.41647610E-01  7.41647610E-01
 -1.44685062E+00  7.23425310E-01  7.23425310E-01 -1.44685062E+00  7.23425310E-01
  7.23425310E-01  7.23425310E-01  7.23425310E-01 -1.44685062E+00 -1.46507292E+00
  7.23425310E-01  7.23425310E-01  7.05203010E-01 -1.67827383E+00  7.05203010E-01
  5.95869210E-01  5.95869210E-01  5.95869210E-01  1.48511745E+00 -1.48693968E+00
 -1.29560553E+00 -5.61246840E-01 -1.54160658E+00 -1.56711780E+00 -4.70135340E-01
 -1.71289620E+00 -1.18627173E+00  1.43045055E+00 -5.28446700E-01  2.58756660E+00
 -1.76756310E+00 -2.29600980E+00  2.51467740E+00 -1.76756310E+00 -2.16845370E+00
 -7.28892000E-01  2.53289970E+00 -1.22636079E+00  2.44178820E+00  2.51467740E+00
  2.51467740E+00 -2.15023140E+00 -2.15023140E+00 -6.94269630E-01 -2.36889900E+00
  2.46001050E+00 -2.36889900E+00  2.46001050E+00 -1.39218372E+00  8.96537160E-01
  8.96537160E-01 -2.29600980E+00  2.41445475E+00  2.41445475E+00 -1.44685062E+00
  8.23647960E-01  8.23647960E-01  2.40534360E+00 -1.44685062E+00  7.23425310E-01
  7.23425310E-01 -1.44685062E+00  7.41647610E-01  7.41647610E-01 -1.44685062E+00
  7.23425310E-01  7.23425310E-01 -1.44685062E+00  7.23425310E-01  7.23425310E-01
  7.23425310E-01  7.23425310E-01 -1.44685062E+00 -1.46507292E+00  7.23425310E-01
  7.23425310E-01  7.05203010E-01 -1.67827383E+00  7.05203010E-01  5.95869210E-01
  5.95869210E-01  5.95869210E-01  1.48511745E+00 -1.48693968E+00 -1.29560553E+00
 -5.61246840E-01 -1.54160658E+00 -1.56711780E+00 -4.70135340E-01 -1.71289620E+00
 -1.18627173E+00  1.43045055E+00 -5.28446700E-01  2.58756660E+00 -1.76756310E+00
 -2.29600980E+00  2.51467740E+00 -1.76756310E+00 -2.16845370E+00 -7.28892000E-01
  2.53289970E+00 -1.22636079E+00  2.44178820E+00  2.51467740E+00  2.51467740E+00
 -2.15023140E+00 -2.15023140E+00 -6.94269630E-01 -2.36889900E+00  2.46001050E+00
 -2.36889900E+00  2.46001050E+00 -1.39218372E+00  8.96537160E-01  8.96537160E-01
 -2.29600980E+00  2.41445475E+00  2.41445475E+00 -1.44685062E+00  8.23647960E-01
  8.23647960E-01  2.40534360E+00 -1.44685062E+00  7.23425310E-01  7.23425310E-01
 -1.44685062E+00  7.41647610E-01  7.41647610E-01 -1.44685062E+00  7.23425310E-01
  7.23425310E-01 -1.44685062E+00  7.23425310E-01  7.23425310E-01  7.23425310E-01
  7.23425310E-01 -1.44685062E+00 -1.46507292E+00  7.23425310E-01  7.23425310E-01
  7.05203010E-01 -1.67827383E+00  7.05203010E-01  5.95869210E-01  5.95869210E-01
  5.95869210E-01  1.48511745E+00 -1.48693968E+00 -1.29560553E+00 -5.61246840E-01
 -1.54160658E+00 -1.56711780E+00 -4.70135340E-01 -1.71289620E+00 -1.18627173E+00
  1.43045055E+00 -5.28446700E-01  2.58756660E+00 -1.76756310E+00 -2.29600980E+00
  2.51467740E+00 -1.76756310E+00 -2.16845370E+00 -7.28892000E-01  2.53289970E+00
 -1.22636079E+00  2.44178820E+00  2.51467740E+00  2.51467740E+00 -2.15023140E+00
 -2.15023140E+00 -6.94269630E-01 -2.36889900E+00  2.46001050E+00 -2.36889900E+00
  2.46001050E+00 -1.39218372E+00  8.96537160E-01  8.96537160E-01 -2.29600980E+00
  2.41445475E+00  2.41445475E+00 -1.44685062E+00  8.23647960E-01  8.23647960E-01
  2.40534360E+00 -1.44685062E+00  7.23425310E-01  7.23425310E-01 -1.44685062E+00
  7.41647610E-01  7.41647610E-01 -1.44685062E+00  7.23425310E-01  7.23425310E-01
 -1.44685062E+00  7.23425310E-01  7.23425310E-01  7.23425310E-01  7.23425310E-01
 -1.44685062E+00 -1.46507292E+00  7.23425310E-01  7.23425310E-01  7.05203010E-01
 -1.67827383E+00  7.05203010E-01  5.95869210E-01  5.95869210E-01  5.95869210E-01
  1.48511745E+00 -1.48693968E+00 -1.29560553E+00 -5.61246840E-01 -1.54160658E+00
 -1.56711780E+00 -4.70135340E-01 -1.71289620E+00 -1.18627173E+00  1.43045055E+00
 -5.28446700E-01  2.58756660E+00 -1.76756310E+00 -2.29600980E+00  2.51467740E+00
 -1.76756310E+00 -2.16845370E+00 -7.28892000E-01  2.53289970E+00 -1.22636079E+00
  2.44178820E+00  2.51467740E+00  2.51467740E+00 -2.15023140E+00 -2.15023140E+00
 -6.94269630E-01 -2.36889900E+00  2.46001050E+00 -2.36889900E+00  2.46001050E+00
 -1.39218372E+00  8.96537160E-01  8.96537160E-01 -2.29600980E+00  2.41445475E+00
  2.41445475E+00 -1.44685062E+00  8.23647960E-01  8.23647960E-01  2.40534360E+00
 -1.44685062E+00  7.23425310E-01  7.23425310E-01 -1.44685062E+00  7.41647610E-01
  7.41647610E-01 -1.44685062E+00  7.23425310E-01  7.23425310E-01 -1.44685062E+00
  7.23425310E-01  7.23425310E-01  7.23425310E-01  7.23425310E-01 -1.44685062E+00
 -1.46507292E+00  7.23425310E-01  7.23425310E-01  7.05203010E-01 -1.67827383E+00
  7.05203010E-01  5.95869210E-01  5.95869210E-01  5.95869210E-01  1.48511745E+00
 -1.48693968E+00 -1.29560553E+00 -5.61246840E-01 -1.54160658E+00 -1.56711780E+00
 -4.70135340E-01 -1.71289620E+00 -1.18627173E+00  1.43045055E+00 -5.28446700E-01
  2.58756660E+00 -1.76756310E+00 -2.29600980E+00  2.51467740E+00 -1.76756310E+00
 -2.16845370E+00 -7.28892000E-01  2.53289970E+00 -1.22636079E+00  2.44178820E+00
  2.51467740E+00  2.51467740E+00 -2.15023140E+00 -2.15023140E+00 -6.94269630E-01
 -2.36889900E+00  2.46001050E+00 -2.36889900E+00  2.46001050E+00 -1.39218372E+00
  8.96537160E-01  8.96537160E-01 -2.29600980E+00  2.41445475E+00  2.41445475E+00
 -1.44685062E+00  8.23647960E-01  8.23647960E-01  2.40534360E+00 -1.44685062E+00
  7.23425310E-01  7.23425310E-01 -1.44685062E+00  7.41647610E-01  7.41647610E-01
 -1.44685062E+00  7.23425310E-01  7.23425310E-01 -1.44685062E+00  7.23425310E-01
  7.23425310E-01  7.23425310E-01  7.23425310E-01 -1.44685062E+00 -1.46507292E+00
  7.23425310E-01  7.23425310E-01  7.05203010E-01 -1.67827383E+00  7.05203010E-01
  5.95869210E-01  5.95869210E-01  5.95869210E-01  1.48511745E+00 -1.48693968E+00
 -1.29560553E+00 -5.61246840E-01 -1.54160658E+00 -1.56711780E+00 -4.70135340E-01
 -1.71289620E+00 -1.18627173E+00  1.43045055E+00 -5.28446700E-01  2.58756660E+00
 -1.76756310E+00 -2.29600980E+00  2.51467740E+00 -1.76756310E+00 -2.16845370E+00
 -7.28892000E-01  2.53289970E+00 -1.22636079E+00  2.44178820E+00  2.51467740E+00
  2.51467740E+00 -2.15023140E+00 -2.15023140E+00 -6.94269630E-01 -2.36889900E+00
  2.46001050E+00 -2.36889900E+00  2.46001050E+00 -1.39218372E+00  8.96537160E-01
  8.96537160E-01 -2.29600980E+00  2.41445475E+00  2.41445475E+00 -1.44685062E+00
  8.23647960E-01  8.23647960E-01  2.40534360E+00 -1.44685062E+00  7.23425310E-01
  7.23425310E-01 -1.44685062E+00  7.41647610E-01  7.41647610E-01 -1.44685062E+00
  7.23425310E-01  7.23425310E-01 -1.44685062E+00  7.23425310E-01  7.23425310E-01
  7.23425310E-01  7.23425310E-01 -1.44685062E+00 -1.46507292E+00  7.23425310E-01
  7.23425310E-01  7.05203010E-01 -1.67827383E+00  7.05203010E-01  5.95869210E-01
  5.95869210E-01  5.95869210E-01  1.48511745E+00 -1.48693968E+00 -1.29560553E+00
 -5.61246840E-01 -1.54160658E+00 -1.56711780E+00 -4.70135340E-01 -1.71289620E+00
 -1.18627173E+00  1.43045055E+00 -5.28446700E-01  2.58756660E+00 -1.76756310E+00
 -2.29600980E+00  2.51467740E+00 -1.76756310E+00 -2.16845370E+00 -7.28892000E-01
  2.53289970E+00 -1.22636079E+00  2.44178820E+00  2.51467740E+00  2.51467740E+00
 -2.15023140E+00 -2.15023140E+00 -6.94269630E-01 -2.36889900E+00  2.46001050E+00
 -2.36889900E+00  2.46001050E+00 -1.39218372E+00  8.96537160E-01  8.96537160E-01
 -2.29600980E+00  2.41445475E+00  2.41445475E+00 -1.44685062E+00  8.23647960E-01
  8.23647960E-01  2.40534360E+00 -1.44685062E+00  7.23425310E-01  7.23425310E-01
 -1.44685062E+00  7.41647610E-01  7.41647610E-01 -1.44685062E+00  7.23425310E-01
  7.23425310E-01 -1.44685062E+00  7.23425310E-01  7.23425310E-01  7.23425310E-01
  7.23425310E-01 -1.44685062E+00 -1.46507292E+00  7.23425310E-01  7.23425310E-01
  7.05203010E-01 -1.67827383E+00  7.05203010E-01  5.95869210E-01  5.95869210E-01
  5.95869210E-01  1.48511745E+00 -1.48693968E+00 -1.29560553E+00 -5.61246840E-01
 -1.54160658E+00 -1.56711780E+00 -4.70135340E-01 -1.71289620E+00 -1.18627173E+00
  1.43045055E+00 -5.28446700E-01  2.58756660E+00 -1.76756310E+00 -2.29600980E+00
  2.51467740E+00 -1.76756310E+00 -2.16845370E+00 -7.28892000E-01  2.53289970E+00
 -1.22636079E+00  2.44178820E+00  2.51467740E+00  2.51467740E+00 -2.15023140E+00
 -2.15023140E+00 -6.94269630E-01 -2.36889900E+00  2.46001050E+00 -2.36889900E+00
  2.46001050E+00 -1.39218372E+00  8.96537160E-01  8.96537160E-01 -2.29600980E+00
  2.41445475E+00  2.41445475E+00 -1.44685062E+00  8.23647960E-01  8.23647960E-01
  2.40534360E+00 -1.44685062E+00  7.23425310E-01  7.23425310E-01 -1.44685062E+00
  7.41647610E-01  7.41647610E-01 -1.44685062E+00  7.23425310E-01  7.23425310E-01
 -1.44685062E+00  7.23425310E-01  7.23425310E-01  7.23425310E-01  7.23425310E-01
 -1.44685062E+00 -1.46507292E+00  7.23425310E-01  7.23425310E-01  7.05203010E-01
 -1.67827383E+00  7.05203010E-01  5.95869210E-01  5.95869210E-01  5.95869210E-01
  1.48511745E+00 -1.48693968E+00 -1.29560553E+00 -5.61246840E-01 -1.54160658E+00
 -1.56711780E+00 -4.70135340E-01 -1.71289620E+00 -1.18627173E+00  1.43045055E+00
 -5.28446700E-01  2.58756660E+00 -1.76756310E+00 -2.29600980E+00  2.51467740E+00
 -1.76756310E+00 -2.16845370E+00 -7.28892000E-01  2.53289970E+00 -1.22636079E+00
  2.44178820E+00  2.51467740E+00  2.51467740E+00 -2.15023140E+00 -2.15023140E+00
 -6.94269630E-01 -2.36889900E+00  2.46001050E+00 -2.36889900E+00  2.46001050E+00
 -1.39218372E+00  8.96537160E-01  8.96537160E-01 -2.29600980E+00  2.41445475E+00
  2.41445475E+00 -1.44685062E+00  8.23647960E-01  8.23647960E-01  2.40534360E+00
 -1.44685062E+00  7.23425310E-01  7.23425310E-01 -1.44685062E+00  7.41647610E-01
  7.41647610E-01 -1.44685062E+00  7.23425310E-01  7.23425310E-01 -1.44685062E+00
  7.23425310E-01  7.23425310E-01  7.23425310E-01  7.23425310E-01 -1.44685062E+00
 -1.46507292E+00  7.23425310E-01  7.23425310E-01  7.05203010E-01 -1.67827383E+00
  7.05203010E-01  5.95869210E-01  5.95869210E-01  5.95869210E-01  1.48511745E+00
 -1.48693968E+00 -1.29560553E+00 -5.61246840E-01 -1.54160658E+00 -1.56711780E+00
 -4.70135340E-01 -1.71289620E+00 -1.18627173E+00  1.43045055E+00 -5.28446700E-01
  2.58756660E+00 -1.76756310E+00 -2.29600980E+00  2.51467740E+00 -1.76756310E+00
 -2.16845370E+00 -7.28892000E-01  2.53289970E+00 -1.22636079E+00  2.44178820E+00
  2.51467740E+00  2.51467740E+00 -2.15023140E+00 -2.15023140E+00 -6.94269630E-01
 -2.36889900E+00  2.46001050E+00 -2.36889900E+00  2.46001050E+00 -1.39218372E+00
  8.96537160E-01  8.96537160E-01 -2.29600980E+00  2.41445475E+00  2.41445475E+00
 -1.44685062E+00  8.23647960E-01  8.23647960E-01  2.40534360E+00 -1.44685062E+00
  7.23425310E-01  7.23425310E-01 -1.44685062E+00  7.41647610E-01  7.41647610E-01
 -1.44685062E+00  7.23425310E-01  7.23425310E-01 -1.44685062E+00  7.23425310E-01
  7.23425310E-01  7.23425310E-01  7.23425310E-01 -1.44685062E+00 -1.46507292E+00
  7.23425310E-01  7.23425310E-01  7.05203010E-01 -1.67827383E+00  7.05203010E-01
  5.95869210E-01  5.95869210E-01  5.95869210E-01  1.48511745E+00 -1.48693968E+00
 -1.29560553E+00 -5.61246840E-01 -1.54160658E+00 -1.56711780E+00 -4.70135340E-01
 -1.71289620E+00 -1.18627173E+00  1.43045055E+00 -5.28446700E-01  2.58756660E+00
 -1.76756310E+00 -2.29600980E+00  2.51467740E+00 -1.76756310E+00 -2.16845370E+00
 -7.28892000E-01  2.53289970E+00 -1.22636079E+00  2.44178820E+00  2.51467740E+00
  2.51467740E+00 -2.15023140E+00 -2.15023140E+00 -6.94269630E-01 -2.36889900E+00
  2.46001050E+00 -2.36889900E+00  2.46001050E+00 -1.39218372E+00  8.96537160E-01
  8.96537160E-01 -2.29600980E+00  2.41445475E+00  2.41445475E+00 -1.44685062E+00
  8.23647960E-01  8.23647960E-01  2.40534360E+00 -1.44685062E+00  7.23425310E-01
  7.23425310E-01 -1.44685062E+00  7.41647610E-01  7.41647610E-01 -1.44685062E+00
  7.23425310E-01  7.23425310E-01 -1.44685062E+00  7.23425310E-01  7.23425310E-01
  7.23425310E-01  7.23425310E-01 -1.44685062E+00 -1.46507292E+00  7.23425310E-01
  7.23425310E-01  7.05203010E-01 -1.67827383E+00  7.05203010E-01  5.95869210E-01
  5.95869210E-01  5.95869210E-01  1.48511745E+00 -1.48693968E+00 -1.29560553E+00
 -5.61246840E-01 -1.54160658E+00 -1.56711780E+00 -4.70135340E-01 -1.71289620E+00
 -1.18627173E+00  1.43045055E+00 -5.28446700E-01  2.58756660E+00 -1.76756310E+00
 -2.29600980E+00  2.51467740E+00 -1.76756310E+00 -2.16845370E+00 -7.28892000E-01
  2.53289970E+00 -1.22636079E+00  2.44178820E+00  2.51467740E+00  2.51467740E+00
 -2.15023140E+00 -2.15023140E+00 -6.94269630E-01 -2.36889900E+00  2.46001050E+00
 -2.36889900E+00  2.46001050E+00 -1.39218372E+00  8.96537160E-01  8.96537160E-01
 -2.29600980E+00  2.41445475E+00  2.41445475E+00 -1.44685062E+00  8.23647960E-01
  8.23647960E-01  2.40534360E+00 -1.44685062E+00  7.23425310E-01  7.23425310E-01
 -1.44685062E+00  7.41647610E-01  7.41647610E-01 -1.44685062E+00  7.23425310E-01
  7.23425310E-01 -1.44685062E+00  7.23425310E-01  7.23425310E-01  7.23425310E-01
  7.23425310E-01 -1.44685062E+00 -1.46507292E+00  7.23425310E-01  7.23425310E-01
  7.05203010E-01 -1.67827383E+00  7.05203010E-01  5.95869210E-01  5.95869210E-01
  5.95869210E-01  1.48511745E+00 -1.48693968E+00 -1.29560553E+00 -5.61246840E-01
 -1.54160658E+00 -1.56711780E+00 -4.70135340E-01 -1.71289620E+00 -1.18627173E+00
  1.43045055E+00 -5.28446700E-01  2.58756660E+00 -1.76756310E+00 -2.29600980E+00
  2.51467740E+00 -1.76756310E+00 -2.16845370E+00 -7.28892000E-01  2.53289970E+00
 -1.22636079E+00  2.44178820E+00  2.51467740E+00  2.51467740E+00 -2.15023140E+00
 -2.15023140E+00 -6.94269630E-01 -2.36889900E+00  2.46001050E+00 -2.36889900E+00
  2.46001050E+00 -1.39218372E+00  8.96537160E-01  8.96537160E-01 -2.29600980E+00
  2.41445475E+00  2.41445475E+00 -1.44685062E+00  8.23647960E-01  8.23647960E-01
  2.40534360E+00 -1.44685062E+00  7.23425310E-01  7.23425310E-01 -1.44685062E+00
  7.41647610E-01  7.41647610E-01 -1.44685062E+00  7.23425310E-01  7.23425310E-01
 -1.44685062E+00  7.23425310E-01  7.23425310E-01  7.23425310E-01  7.23425310E-01
 -1.44685062E+00 -1.46507292E+00  7.23425310E-01  7.23425310E-01  7.05203010E-01
 -1.67827383E+00  7.05203010E-01  5.95869210E-01  5.95869210E-01  5.95869210E-01
  1.48511745E+00 -1.48693968E+00 -1.29560553E+00 -5.61246840E-01 -1.54160658E+00
 -1.56711780E+00 -4.70135340E-01 -1.71289620E+00 -1.18627173E+00  1.43045055E+00
 -5.28446700E-01  2.58756660E+00 -1.76756310E+00 -2.29600980E+00  2.51467740E+00
 -1.76756310E+00 -2.16845370E+00 -7.28892000E-01  2.53289970E+00 -1.22636079E+00
  2.44178820E+00  2.51467740E+00  2.51467740E+00 -2.15023140E+00 -2.15023140E+00
 -6.94269630E-01 -2.36889900E+00  2.46001050E+00 -2.36889900E+00  2.46001050E+00
 -1.39218372E+00  8.96537160E-01  8.96537160E-01 -2.29600980E+00  2.41445475E+00
  2.41445475E+00 -1.44685062E+00  8.23647960E-01  8.23647960E-01  2.40534360E+00
 -1.44685062E+00  7.23425310E-01  7.23425310E-01 -1.44685062E+00  7.41647610E-01
  7.41647610E-01 -1.44685062E+00  7.23425310E-01  7.23425310E-01 -1.44685062E+00
  7.23425310E-01  7.23425310E-01  7.23425310E-01  7.23425310E-01 -1.44685062E+00
 -1.46507292E+00  7.23425310E-01  7.23425310E-01  7.05203010E-01 -1.67827383E+00
  7.05203010E-01  5.95869210E-01  5.95869210E-01  5.95869210E-01  1.48511745E+00
 -1.48693968E+00 -1.29560553E+00 -5.61246840E-01 -1.54160658E+00 -1.56711780E+00
 -4.70135340E-01 -1.71289620E+00 -1.18627173E+00  1.43045055E+00 -5.28446700E-01
  2.58756660E+00 -1.76756310E+00 -2.29600980E+00  2.51467740E+00 -1.76756310E+00
 -2.16845370E+00 -7.28892000E-01  2.53289970E+00 -1.22636079E+00  2.44178820E+00
  2.51467740E+00  2.51467740E+00 -2.15023140E+00 -2.15023140E+00 -6.94269630E-01
 -2.36889900E+00  2.46001050E+00 -2.36889900E+00  2.46001050E+00 -1.39218372E+00
  8.96537160E-01  8.96537160E-01 -2.29600980E+00  2.41445475E+00  2.41445475E+00
 -1.44685062E+00  8.23647960E-01  8.23647960E-01  2.40534360E+00 -1.44685062E+00
  7.23425310E-01  7.23425310E-01 -1.44685062E+00  7.41647610E-01  7.41647610E-01
 -1.44685062E+00  7.23425310E-01  7.23425310E-01 -1.44685062E+00  7.23425310E-01
  7.23425310E-01  7.23425310E-01  7.23425310E-01 -1.44685062E+00 -1.46507292E+00
  7.23425310E-01  7.23425310E-01  7.05203010E-01 -1.67827383E+00  7.05203010E-01
  5.95869210E-01  5.95869210E-01  5.95869210E-01  1.48511745E+00 -1.48693968E+00
 -1.29560553E+00 -5.61246840E-01 -1.54160658E+00 -1.56711780E+00 -4.70135340E-01
 -1.71289620E+00 -1.18627173E+00  1.43045055E+00 -5.28446700E-01  2.58756660E+00
 -1.76756310E+00 -2.29600980E+00  2.51467740E+00 -1.76756310E+00 -2.16845370E+00
 -7.28892000E-01  2.53289970E+00 -1.22636079E+00  2.44178820E+00  2.51467740E+00
  2.51467740E+00 -2.15023140E+00 -2.15023140E+00 -6.94269630E-01 -2.36889900E+00
  2.46001050E+00 -2.36889900E+00  2.46001050E+00 -1.39218372E+00  8.96537160E-01
  8.96537160E-01 -2.29600980E+00  2.41445475E+00  2.41445475E+00 -1.44685062E+00
  8.23647960E-01  8.23647960E-01  2.40534360E+00 -1.44685062E+00  7.23425310E-01
  7.23425310E-01 -1.44685062E+00  7.41647610E-01  7.41647610E-01 -1.44685062E+00
  7.23425310E-01  7.23425310E-01 -1.44685062E+00  7.23425310E-01  7.23425310E-01
  7.23425310E-01  7.23425310E-01 -1.44685062E+00 -1.46507292E+00  7.23425310E-01
  7.23425310E-01  7.05203010E-01 -1.67827383E+00  7.05203010E-01  5.95869210E-01
  5.95869210E-01  5.95869210E-01  1.48511745E+00 -1.48693968E+00 -1.29560553E+00
 -5.61246840E-01 -1.54160658E+00 -1.56711780E+00 -4.70135340E-01 -1.71289620E+00
 -1.18627173E+00  1.43045055E+00 -5.28446700E-01  2.58756660E+00 -1.76756310E+00
 -2.29600980E+00  2.51467740E+00 -1.76756310E+00 -2.16845370E+00 -7.28892000E-01
  2.53289970E+00 -1.22636079E+00  2.44178820E+00  2.51467740E+00  2.51467740E+00
 -2.15023140E+00 -2.15023140E+00 -6.94269630E-01 -2.36889900E+00  2.46001050E+00
 -2.36889900E+00  2.46001050E+00 -1.39218372E+00  8.96537160E-01  8.96537160E-01
 -2.29600980E+00  2.41445475E+00  2.41445475E+00 -1.44685062E+00  8.23647960E-01
  8.23647960E-01  2.40534360E+00 -1.44685062E+00  7.23425310E-01  7.23425310E-01
 -1.44685062E+00  7.41647610E-01  7.41647610E-01 -1.44685062E+00  7.23425310E-01
  7.23425310E-01 -1.44685062E+00  7.23425310E-01  7.23425310E-01  7.23425310E-01
  7.23425310E-01 -1.44685062E+00 -1.46507292E+00  7.23425310E-01  7.23425310E-01
  7.05203010E-01 -1.67827383E+00  7.05203010E-01  5.95869210E-01  5.95869210E-01
  5.95869210E-01  1.48511745E+00 -1.48693968E+00 -1.29560553E+00 -5.61246840E-01
 -1.54160658E+00 -1.56711780E+00 -4.70135340E-01 -1.71289620E+00 -1.18627173E+00
  1.43045055E+00 -5.28446700E-01  2.58756660E+00 -1.76756310E+00 -2.29600980E+00
  2.51467740E+00 -1.76756310E+00 -2.16845370E+00 -7.28892000E-01  2.53289970E+00
 -1.22636079E+00  2.44178820E+00  2.51467740E+00  2.51467740E+00 -2.15023140E+00
 -2.15023140E+00 -6.94269630E-01 -2.36889900E+00  2.46001050E+00 -2.36889900E+00
  2.46001050E+00 -1.39218372E+00  8.96537160E-01  8.96537160E-01 -2.29600980E+00
  2.41445475E+00  2.41445475E+00 -1.44685062E+00  8.23647960E-01  8.23647960E-01
  2.40534360E+00 -1.44685062E+00  7.23425310E-01  7.23425310E-01 -1.44685062E+00
  7.41647610E-01  7.41647610E-01 -1.44685062E+00  7.23425310E-01  7.23425310E-01
 -1.44685062E+00  7.23425310E-01  7.23425310E-01  7.23425310E-01  7.23425310E-01
 -1.44685062E+00 -1.46507292E+00  7.23425310E-01  7.23425310E-01  7.05203010E-01
 -1.67827383E+00  7.05203010E-01  5.95869210E-01  5.95869210E-01  5.95869210E-01
  1.48511745E+00 -1.48693968E+00 -1.29560553E+00 -5.61246840E-01 -1.54160658E+00
 -1.56711780E+00 -4.70135340E-01 -1.71289620E+00 -1.18627173E+00  1.43045055E+00
 -5.28446700E-01  2.58756660E+00 -1.76756310E+00 -2.29600980E+00  2.51467740E+00
 -1.76756310E+00 -2.16845370E+00 -7.28892000E-01  2.53289970E+00 -1.22636079E+00
  2.44178820E+00  2.51467740E+00  2.51467740E+00 -2.15023140E+00 -2.15023140E+00
 -6.94269630E-01 -2.36889900E+00  2.46001050E+00 -2.36889900E+00  2.46001050E+00
 -1.39218372E+00  8.96537160E-01  8.96537160E-01 -2.29600980E+00  2.41445475E+00
  2.41445475E+00 -1.44685062E+00  8.23647960E-01  8.23647960E-01  2.40534360E+00
 -1.44685062E+00  7.23425310E-01  7.23425310E-01 -1.44685062E+00  7.41647610E-01
  7.41647610E-01 -1.44685062E+00  7.23425310E-01  7.23425310E-01 -1.44685062E+00
  7.23425310E-01  7.23425310E-01  7.23425310E-01  7.23425310E-01 -1.44685062E+00
 -1.46507292E+00  7.23425310E-01  7.23425310E-01  7.05203010E-01 -1.67827383E+00
  7.05203010E-01  5.95869210E-01  5.95869210E-01  5.95869210E-01  1.48511745E+00
 -1.48693968E+00 -1.29560553E+00 -5.61246840E-01 -1.54160658E+00 -1.56711780E+00
 -4.70135340E-01 -1.71289620E+00 -1.18627173E+00  1.43045055E+00 -5.28446700E-01
  2.58756660E+00 -1.76756310E+00 -2.29600980E+00  2.51467740E+00 -1.76756310E+00
 -2.16845370E+00 -7.28892000E-01  2.53289970E+00 -1.22636079E+00  2.44178820E+00
  2.51467740E+00  2.51467740E+00 -2.15023140E+00 -2.15023140E+00 -6.94269630E-01
 -2.36889900E+00  2.46001050E+00 -2.36889900E+00  2.46001050E+00 -1.39218372E+00
  8.96537160E-01  8.96537160E-01 -2.29600980E+00  2.41445475E+00  2.41445475E+00
 -1.44685062E+00  8.23647960E-01  8.23647960E-01  2.40534360E+00 -1.44685062E+00
  7.23425310E-01  7.23425310E-01 -1.44685062E+00  7.41647610E-01  7.41647610E-01
 -1.44685062E+00  7.23425310E-01  7.23425310E-01 -1.44685062E+00  7.23425310E-01
  7.23425310E-01  7.23425310E-01  7.23425310E-01 -1.44685062E+00 -1.46507292E+00
  7.23425310E-01  7.23425310E-01  7.05203010E-01 -1.67827383E+00  7.05203010E-01
  5.95869210E-01  5.95869210E-01  5.95869210E-01  1.48511745E+00 -1.48693968E+00
 -1.29560553E+00 -5.61246840E-01 -1.54160658E+00 -1.56711780E+00 -4.70135340E-01
 -1.71289620E+00 -1.18627173E+00  1.43045055E+00 -5.28446700E-01  2.58756660E+00
 -1.76756310E+00 -2.29600980E+00  2.51467740E+00 -1.76756310E+00 -2.16845370E+00
 -7.28892000E-01  2.53289970E+00 -1.22636079E+00  2.44178820E+00  2.51467740E+00
  2.51467740E+00 -2.15023140E+00 -2.15023140E+00 -6.94269630E-01 -2.36889900E+00
  2.46001050E+00 -2.36889900E+00  2.46001050E+00 -1.39218372E+00  8.96537160E-01
  8.96537160E-01 -2.29600980E+00  2.41445475E+00  2.41445475E+00 -1.44685062E+00
  8.23647960E-01  8.23647960E-01  2.40534360E+00 -1.44685062E+00  7.23425310E-01
  7.23425310E-01 -1.44685062E+00  7.41647610E-01  7.41647610E-01 -1.44685062E+00
  7.23425310E-01  7.23425310E-01 -1.44685062E+00  7.23425310E-01  7.23425310E-01
  7.23425310E-01  7.23425310E-01 -1.44685062E+00 -1.46507292E+00  7.23425310E-01
  7.23425310E-01  7.05203010E-01 -1.67827383E+00  7.05203010E-01  5.95869210E-01
  5.95869210E-01  5.95869210E-01  1.48511745E+00 -1.48693968E+00 -1.29560553E+00
 -5.61246840E-01 -1.54160658E+00 -1.56711780E+00 -4.70135340E-01 -1.71289620E+00
 -1.18627173E+00  1.43045055E+00 -5.28446700E-01  2.58756660E+00 -1.76756310E+00
 -2.29600980E+00  2.51467740E+00 -1.76756310E+00 -2.16845370E+00 -7.28892000E-01
  2.53289970E+00 -1.22636079E+00  2.44178820E+00  2.51467740E+00  2.51467740E+00
 -2.15023140E+00 -2.15023140E+00 -6.94269630E-01 -2.36889900E+00  2.46001050E+00
 -2.36889900E+00  2.46001050E+00 -1.39218372E+00  8.96537160E-01  8.96537160E-01
 -2.29600980E+00  2.41445475E+00  2.41445475E+00 -1.44685062E+00  8.23647960E-01
  8.23647960E-01  2.40534360E+00 -1.44685062E+00  7.23425310E-01  7.23425310E-01
 -1.44685062E+00  7.41647610E-01  7.41647610E-01 -1.44685062E+00  7.23425310E-01
  7.23425310E-01 -1.44685062E+00  7.23425310E-01  7.23425310E-01  7.23425310E-01
  7.23425310E-01 -1.44685062E+00 -1.46507292E+00  7.23425310E-01  7.23425310E-01
  7.05203010E-01 -1.67827383E+00  7.05203010E-01  5.95869210E-01  5.95869210E-01
  5.95869210E-01  1.48511745E+00 -1.48693968E+00 -1.29560553E+00 -5.61246840E-01
 -1.54160658E+00 -1.56711780E+00 -4.70135340E-01 -1.71289620E+00 -1.18627173E+00
  1.43045055E+00 -5.28446700E-01  2.58756660E+00 -1.76756310E+00 -2.29600980E+00
  2.51467740E+00 -1.76756310E+00 -2.16845370E+00 -7.28892000E-01  2.53289970E+00
 -1.22636079E+00  2.44178820E+00  2.51467740E+00  2.51467740E+00 -2.15023140E+00
 -2.15023140E+00 -6.94269630E-01 -2.36889900E+00  2.46001050E+00 -2.36889900E+00
  2.46001050E+00 -1.39218372E+00  8.96537160E-01  8.96537160E-01 -2.29600980E+00
  2.41445475E+00  2.41445475E+00 -1.44685062E+00  8.23647960E-01  8.23647960E-01
  2.40534360E+00 -1.44685062E+00  7.23425310E-01  7.23425310E-01 -1.44685062E+00
  7.41647610E-01  7.41647610E-01 -1.44685062E+00  7.23425310E-01  7.23425310E-01
 -1.44685062E+00  7.23425310E-01  7.23425310E-01  7.23425310E-01  7.23425310E-01
 -1.44685062E+00 -1.46507292E+00  7.23425310E-01  7.23425310E-01  7.05203010E-01
 -1.67827383E+00  7.05203010E-01  5.95869210E-01  5.95869210E-01  5.95869210E-01
  1.48511745E+00 -1.48693968E+00 -1.29560553E+00 -5.61246840E-01 -1.54160658E+00
 -1.56711780E+00 -4.70135340E-01 -1.71289620E+00 -1.18627173E+00  1.43045055E+00
 -5.28446700E-01  2.58756660E+00 -1.76756310E+00 -2.29600980E+00  2.51467740E+00
 -1.76756310E+00 -2.16845370E+00 -7.28892000E-01  2.53289970E+00 -1.22636079E+00
  2.44178820E+00  2.51467740E+00  2.51467740E+00 -2.15023140E+00 -2.15023140E+00
 -6.94269630E-01 -2.36889900E+00  2.46001050E+00 -2.36889900E+00  2.46001050E+00
 -1.39218372E+00  8.96537160E-01  8.96537160E-01 -2.29600980E+00  2.41445475E+00
  2.41445475E+00 -1.44685062E+00  8.23647960E-01  8.23647960E-01  2.40534360E+00
 -1.44685062E+00  7.23425310E-01  7.23425310E-01 -1.44685062E+00  7.41647610E-01
  7.41647610E-01 -1.44685062E+00  7.23425310E-01  7.23425310E-01 -1.44685062E+00
  7.23425310E-01  7.23425310E-01  7.23425310E-01  7.23425310E-01 -1.44685062E+00
 -1.46507292E+00  7.23425310E-01  7.23425310E-01  7.05203010E-01 -1.67827383E+00
  7.05203010E-01  5.95869210E-01  5.95869210E-01  5.95869210E-01  1.48511745E+00
 -1.48693968E+00 -1.29560553E+00 -5.61246840E-01 -1.54160658E+00 -1.56711780E+00
 -4.70135340E-01 -1.71289620E+00 -1.18627173E+00  1.43045055E+00 -5.28446700E-01
  2.58756660E+00 -1.76756310E+00 -2.29600980E+00  2.51467740E+00 -1.76756310E+00
 -2.16845370E+00 -7.28892000E-01  2.53289970E+00 -1.22636079E+00  2.44178820E+00
  2.51467740E+00  2.51467740E+00 -2.15023140E+00 -2.15023140E+00 -6.94269630E-01
 -2.36889900E+00  2.46001050E+00 -2.36889900E+00  2.46001050E+00 -1.39218372E+00
  8.96537160E-01  8.96537160E-01 -2.29600980E+00  2.41445475E+00  2.41445475E+00
 -1.44685062E+00  8.23647960E-01  8.23647960E-01  2.40534360E+00 -1.44685062E+00
  7.23425310E-01  7.23425310E-01 -1.44685062E+00  7.41647610E-01  7.41647610E-01
 -1.44685062E+00  7.23425310E-01  7.23425310E-01 -1.44685062E+00  7.23425310E-01
  7.23425310E-01  7.23425310E-01  7.23425310E-01 -1.44685062E+00 -1.46507292E+00
  7.23425310E-01  7.23425310E-01  7.05203010E-01 -1.67827383E+00  7.05203010E-01
  5.95869210E-01  5.95869210E-01  5.95869210E-01  1.48511745E+00 -1.48693968E+00
 -1.29560553E+00 -5.61246840E-01 -1.54160658E+00 -1.56711780E+00 -4.70135340E-01
 -1.71289620E+00 -1.18627173E+00  1.43045055E+00 -5.28446700E-01  2.58756660E+00
 -1.76756310E+00 -2.29600980E+00  2.51467740E+00 -1.76756310E+00 -2.16845370E+00
 -7.28892000E-01  2.53289970E+00 -1.22636079E+00  2.44178820E+00  2.51467740E+00
  2.51467740E+00 -2.15023140E+00 -2.15023140E+00 -6.94269630E-01 -2.36889900E+00
  2.46001050E+00 -2.36889900E+00  2.46001050E+00 -1.39218372E+00  8.96537160E-01
  8.96537160E-01 -2.29600980E+00  2.41445475E+00  2.41445475E+00 -1.44685062E+00
  8.23647960E-01  8.23647960E-01  2.40534360E+00 -1.44685062E+00  7.23425310E-01
  7.23425310E-01 -1.44685062E+00  7.41647610E-01  7.41647610E-01 -1.44685062E+00
  7.23425310E-01  7.23425310E-01 -1.44685062E+00  7.23425310E-01  7.23425310E-01
  7.23425310E-01  7.23425310E-01 -1.44685062E+00 -1.46507292E+00  7.23425310E-01
  7.23425310E-01  7.05203010E-01 -1.67827383E+00  7.05203010E-01  5.95869210E-01
  5.95869210E-01  5.95869210E-01  1.48511745E+00 -1.48693968E+00 -1.29560553E+00
 -5.61246840E-01 -1.54160658E+00 -1.56711780E+00 -4.70135340E-01 -1.71289620E+00
 -1.18627173E+00  1.43045055E+00 -5.28446700E-01  2.58756660E+00 -1.76756310E+00
 -2.29600980E+00  2.51467740E+00 -1.76756310E+00 -2.16845370E+00 -7.28892000E-01
  2.53289970E+00 -1.22636079E+00  2.44178820E+00  2.51467740E+00  2.51467740E+00
 -2.15023140E+00 -2.15023140E+00 -6.94269630E-01 -2.36889900E+00  2.46001050E+00
 -2.36889900E+00  2.46001050E+00 -1.39218372E+00  8.96537160E-01  8.96537160E-01
 -2.29600980E+00  2.41445475E+00  2.41445475E+00 -1.44685062E+00  8.23647960E-01
  8.23647960E-01  2.40534360E+00 -1.44685062E+00  7.23425310E-01  7.23425310E-01
 -1.44685062E+00  7.41647610E-01  7.41647610E-01 -1.44685062E+00  7.23425310E-01
  7.23425310E-01 -1.44685062E+00  7.23425310E-01  7.23425310E-01  7.23425310E-01
  7.23425310E-01 -1.44685062E+00 -1.46507292E+00  7.23425310E-01  7.23425310E-01
  7.05203010E-01 -1.67827383E+00  7.05203010E-01  5.95869210E-01  5.95869210E-01
  5.95869210E-01  1.48511745E+00 -1.48693968E+00 -1.29560553E+00 -5.61246840E-01
 -1.54160658E+00 -1.56711780E+00 -4.70135340E-01 -1.71289620E+00 -1.18627173E+00
  1.43045055E+00 -5.28446700E-01  2.58756660E+00 -1.76756310E+00 -2.29600980E+00
  2.51467740E+00 -1.76756310E+00 -2.16845370E+00 -7.28892000E-01  2.53289970E+00
 -1.22636079E+00  2.44178820E+00  2.51467740E+00  2.51467740E+00 -2.15023140E+00
 -2.15023140E+00 -6.94269630E-01 -2.36889900E+00  2.46001050E+00 -2.36889900E+00
  2.46001050E+00 -1.39218372E+00  8.96537160E-01  8.96537160E-01 -2.29600980E+00
  2.41445475E+00  2.41445475E+00 -1.44685062E+00  8.23647960E-01  8.23647960E-01
  2.40534360E+00 -1.44685062E+00  7.23425310E-01  7.23425310E-01 -1.44685062E+00
  7.41647610E-01  7.41647610E-01 -1.44685062E+00  7.23425310E-01  7.23425310E-01
 -1.44685062E+00  7.23425310E-01  7.23425310E-01  7.23425310E-01  7.23425310E-01
 -1.44685062E+00 -1.46507292E+00  7.23425310E-01  7.23425310E-01  7.05203010E-01
 -1.67827383E+00  7.05203010E-01  5.95869210E-01  5.95869210E-01  5.95869210E-01
  1.48511745E+00 -1.48693968E+00 -1.29560553E+00 -5.61246840E-01 -1.54160658E+00
 -1.56711780E+00 -4.70135340E-01 -1.71289620E+00 -1.18627173E+00  1.43045055E+00
 -5.28446700E-01  2.58756660E+00 -1.76756310E+00 -2.29600980E+00  2.51467740E+00
 -1.76756310E+00 -2.16845370E+00 -7.28892000E-01  2.53289970E+00 -1.22636079E+00
  2.44178820E+00  2.51467740E+00  2.51467740E+00 -2.15023140E+00 -2.15023140E+00
 -6.94269630E-01 -2.36889900E+00  2.46001050E+00 -2.36889900E+00  2.46001050E+00
 -1.39218372E+00  8.96537160E-01  8.96537160E-01 -2.29600980E+00  2.41445475E+00
  2.41445475E+00 -1.44685062E+00  8.23647960E-01  8.23647960E-01  2.40534360E+00
 -1.44685062E+00  7.23425310E-01  7.23425310E-01 -1.44685062E+00  7.41647610E-01
  7.41647610E-01 -1.44685062E+00  7.23425310E-01  7.23425310E-01 -1.44685062E+00
  7.23425310E-01  7.23425310E-01  7.23425310E-01  7.23425310E-01 -1.44685062E+00
 -1.46507292E+00  7.23425310E-01  7.23425310E-01  7.05203010E-01 -1.67827383E+00
  7.05203010E-01  5.95869210E-01  5.95869210E-01  5.95869210E-01  1.48511745E+00
 -1.48693968E+00 -1.29560553E+00 -5.61246840E-01 -1.54160658E+00 -1.56711780E+00
 -4.70135340E-01 -1.71289620E+00 -1.18627173E+00  1.43045055E+00 -5.28446700E-01
  2.58756660E+00 -1.76756310E+00 -2.29600980E+00  2.51467740E+00 -1.76756310E+00
 -2.16845370E+00 -7.28892000E-01  2.53289970E+00 -1.22636079E+00  2.44178820E+00
  2.51467740E+00  2.51467740E+00 -2.15023140E+00 -2.15023140E+00 -6.94269630E-01
 -2.36889900E+00  2.46001050E+00 -2.36889900E+00  2.46001050E+00 -1.39218372E+00
  8.96537160E-01  8.96537160E-01 -2.29600980E+00  2.41445475E+00  2.41445475E+00
 -1.44685062E+00  8.23647960E-01  8.23647960E-01  2.40534360E+00 -1.44685062E+00
  7.23425310E-01  7.23425310E-01 -1.44685062E+00  7.41647610E-01  7.41647610E-01
 -1.44685062E+00  7.23425310E-01  7.23425310E-01 -1.44685062E+00  7.23425310E-01
  7.23425310E-01  7.23425310E-01  7.23425310E-01 -1.44685062E+00 -1.46507292E+00
  7.23425310E-01  7.23425310E-01  7.05203010E-01 -1.67827383E+00  7.05203010E-01
  5.95869210E-01  5.95869210E-01  5.95869210E-01  1.48511745E+00 -1.48693968E+00
 -1.29560553E+00 -5.61246840E-01 -1.54160658E+00 -1.56711780E+00 -4.70135340E-01
 -1.71289620E+00 -1.18627173E+00  1.43045055E+00 -5.28446700E-01  2.58756660E+00
 -1.76756310E+00 -2.29600980E+00  2.51467740E+00 -1.76756310E+00 -2.16845370E+00
 -7.28892000E-01  2.53289970E+00 -1.22636079E+00  2.44178820E+00  2.51467740E+00
  2.51467740E+00 -2.15023140E+00 -2.15023140E+00 -6.94269630E-01 -2.36889900E+00
  2.46001050E+00 -2.36889900E+00  2.46001050E+00 -1.39218372E+00  8.96537160E-01
  8.96537160E-01 -2.29600980E+00  2.41445475E+00  2.41445475E+00 -1.44685062E+00
  8.23647960E-01  8.23647960E-01  2.40534360E+00 -1.44685062E+00  7.23425310E-01
  7.23425310E-01 -1.44685062E+00  7.41647610E-01  7.41647610E-01 -1.44685062E+00
  7.23425310E-01  7.23425310E-01 -1.44685062E+00  7.23425310E-01  7.23425310E-01
  7.23425310E-01  7.23425310E-01 -1.44685062E+00 -1.46507292E+00  7.23425310E-01
  7.23425310E-01  7.05203010E-01 -1.67827383E+00  7.05203010E-01  5.95869210E-01
  5.95869210E-01  5.95869210E-01  1.48511745E+00 -1.48693968E+00 -1.29560553E+00
 -5.61246840E-01 -1.54160658E+00 -1.56711780E+00 -4.70135340E-01 -1.71289620E+00
 -1.18627173E+00  1.43045055E+00 -5.28446700E-01  2.58756660E+00 -1.76756310E+00
 -2.29600980E+00  2.51467740E+00 -1.76756310E+00 -2.16845370E+00 -7.28892000E-01
  2.53289970E+00 -1.22636079E+00  2.44178820E+00  2.51467740E+00  2.51467740E+00
 -2.15023140E+00 -2.15023140E+00 -6.94269630E-01 -2.36889900E+00  2.46001050E+00
 -2.36889900E+00  2.46001050E+00 -1.39218372E+00  8.96537160E-01  8.96537160E-01
 -2.29600980E+00  2.41445475E+00  2.41445475E+00 -1.44685062E+00  8.23647960E-01
  8.23647960E-01  2.40534360E+00 -1.44685062E+00  7.23425310E-01  7.23425310E-01
 -1.44685062E+00  7.41647610E-01  7.41647610E-01 -1.44685062E+00  7.23425310E-01
  7.23425310E-01 -1.44685062E+00  7.23425310E-01  7.23425310E-01  7.23425310E-01
  7.23425310E-01 -1.44685062E+00 -1.46507292E+00  7.23425310E-01  7.23425310E-01
  7.05203010E-01 -1.67827383E+00  7.05203010E-01  5.95869210E-01  5.95869210E-01
  5.95869210E-01  1.48511745E+00 -1.48693968E+00 -1.29560553E+00 -5.61246840E-01
 -1.54160658E+00 -1.56711780E+00 -4.70135340E-01 -1.71289620E+00 -1.18627173E+00
  1.43045055E+00 -5.28446700E-01  2.58756660E+00 -1.76756310E+00 -2.29600980E+00
  2.51467740E+00 -1.76756310E+00 -2.16845370E+00 -7.28892000E-01  2.53289970E+00
 -1.22636079E+00  2.44178820E+00  2.51467740E+00  2.51467740E+00 -2.15023140E+00
 -2.15023140E+00 -6.94269630E-01 -2.36889900E+00  2.46001050E+00 -2.36889900E+00
  2.46001050E+00 -1.39218372E+00  8.96537160E-01  8.96537160E-01 -2.29600980E+00
  2.41445475E+00  2.41445475E+00 -1.44685062E+00  8.23647960E-01  8.23647960E-01
  2.40534360E+00 -1.44685062E+00  7.23425310E-01  7.23425310E-01 -1.44685062E+00
  7.41647610E-01  7.41647610E-01 -1.44685062E+00  7.23425310E-01  7.23425310E-01
 -1.44685062E+00  7.23425310E-01  7.23425310E-01  7.23425310E-01  7.23425310E-01
 -1.44685062E+00 -1.46507292E+00  7.23425310E-01  7.23425310E-01  7.05203010E-01
 -1.67827383E+00  7.05203010E-01  5.95869210E-01  5.95869210E-01  5.95869210E-01
  1.48511745E+00 -1.48693968E+00 -1.29560553E+00 -5.61246840E-01 -1.54160658E+00
 -1.56711780E+00 -4.70135340E-01 -1.71289620E+00 -1.18627173E+00  1.43045055E+00
 -5.28446700E-01  2.58756660E+00 -1.76756310E+00 -2.29600980E+00  2.51467740E+00
 -1.76756310E+00 -2.16845370E+00 -7.28892000E-01  2.53289970E+00 -1.22636079E+00
  2.44178820E+00  2.51467740E+00  2.51467740E+00 -2.15023140E+00 -2.15023140E+00
 -6.94269630E-01 -2.36889900E+00  2.46001050E+00 -2.36889900E+00  2.46001050E+00
 -1.39218372E+00  8.96537160E-01  8.96537160E-01 -2.29600980E+00  2.41445475E+00
  2.41445475E+00 -1.44685062E+00  8.23647960E-01  8.23647960E-01  2.40534360E+00
 -1.44685062E+00  7.23425310E-01  7.23425310E-01 -1.44685062E+00  7.41647610E-01
  7.41647610E-01 -1.44685062E+00  7.23425310E-01  7.23425310E-01 -1.44685062E+00
  7.23425310E-01  7.23425310E-01  7.23425310E-01  7.23425310E-01 -1.44685062E+00
 -1.46507292E+00  7.23425310E-01  7.23425310E-01  7.05203010E-01 -1.67827383E+00
  7.05203010E-01  5.95869210E-01  5.95869210E-01  5.95869210E-01  1.48511745E+00
 -1.48693968E+00 -1.29560553E+00 -5.61246840E-01 -1.54160658E+00 -1.56711780E+00
 -4.70135340E-01 -1.71289620E+00 -1.18627173E+00  1.43045055E+00 -5.28446700E-01
  2.58756660E+00 -1.76756310E+00 -2.29600980E+00  2.51467740E+00 -1.76756310E+00
 -2.16845370E+00 -7.28892000E-01  2.53289970E+00 -1.22636079E+00  2.44178820E+00
  2.51467740E+00  2.51467740E+00 -2.15023140E+00 -2.15023140E+00 -6.94269630E-01
 -2.36889900E+00  2.46001050E+00 -2.36889900E+00  2.46001050E+00 -1.39218372E+00
  8.96537160E-01  8.96537160E-01 -2.29600980E+00  2.41445475E+00  2.41445475E+00
 -1.44685062E+00  8.23647960E-01  8.23647960E-01  2.40534360E+00 -1.44685062E+00
  7.23425310E-01  7.23425310E-01 -1.44685062E+00  7.41647610E-01  7.41647610E-01
 -1.44685062E+00  7.23425310E-01  7.23425310E-01 -1.44685062E+00  7.23425310E-01
  7.23425310E-01  7.23425310E-01  7.23425310E-01 -1.44685062E+00 -1.46507292E+00
  7.23425310E-01  7.23425310E-01  7.05203010E-01 -1.67827383E+00  7.05203010E-01
  5.95869210E-01  5.95869210E-01  5.95869210E-01  1.48511745E+00 -1.48693968E+00
 -1.29560553E+00 -5.61246840E-01 -1.54160658E+00 -1.56711780E+00 -4.70135340E-01
 -1.71289620E+00 -1.18627173E+00  1.43045055E+00 -5.28446700E-01  2.58756660E+00
 -1.76756310E+00 -2.29600980E+00  2.51467740E+00 -1.76756310E+00 -2.16845370E+00
 -7.28892000E-01  2.53289970E+00 -1.22636079E+00  2.44178820E+00  2.51467740E+00
  2.51467740E+00 -2.15023140E+00 -2.15023140E+00 -6.94269630E-01 -2.36889900E+00
  2.46001050E+00 -2.36889900E+00  2.46001050E+00 -1.39218372E+00  8.96537160E-01
  8.96537160E-01 -2.29600980E+00  2.41445475E+00  2.41445475E+00 -1.44685062E+00
  8.23647960E-01  8.23647960E-01  2.40534360E+00 -1.44685062E+00  7.23425310E-01
  7.23425310E-01 -1.44685062E+00  7.41647610E-01  7.41647610E-01 -1.44685062E+00
  7.23425310E-01  7.23425310E-01 -1.44685062E+00  7.23425310E-01  7.23425310E-01
  7.23425310E-01  7.23425310E-01 -1.44685062E+00 -1.46507292E+00  7.23425310E-01
  7.23425310E-01  7.05203010E-01 -1.67827383E+00  7.05203010E-01  5.95869210E-01
  5.95869210E-01  5.95869210E-01  1.48511745E+00 -1.48693968E+00 -1.29560553E+00
 -5.61246840E-01 -1.54160658E+00 -1.56711780E+00 -4.70135340E-01 -1.71289620E+00
 -1.18627173E+00  1.43045055E+00 -5.28446700E-01  2.58756660E+00 -1.76756310E+00
 -2.29600980E+00  2.51467740E+00 -1.76756310E+00 -2.16845370E+00 -7.28892000E-01
  2.53289970E+00 -1.22636079E+00  2.44178820E+00  2.51467740E+00  2.51467740E+00
 -2.15023140E+00 -2.15023140E+00 -6.94269630E-01 -2.36889900E+00  2.46001050E+00
 -2.36889900E+00  2.46001050E+00 -1.39218372E+00  8.96537160E-01  8.96537160E-01
 -2.29600980E+00  2.41445475E+00  2.41445475E+00 -1.44685062E+00  8.23647960E-01
  8.23647960E-01  2.40534360E+00 -1.44685062E+00  7.23425310E-01  7.23425310E-01
 -1.44685062E+00  7.41647610E-01  7.41647610E-01 -1.44685062E+00  7.23425310E-01
  7.23425310E-01 -1.44685062E+00  7.23425310E-01  7.23425310E-01  7.23425310E-01
  7.23425310E-01 -1.44685062E+00 -1.46507292E+00  7.23425310E-01  7.23425310E-01
  7.05203010E-01 -1.67827383E+00  7.05203010E-01  5.95869210E-01  5.95869210E-01
  5.95869210E-01  1.48511745E+00 -1.48693968E+00 -1.29560553E+00 -5.61246840E-01
 -1.54160658E+00 -1.56711780E+00 -4.70135340E-01 -1.71289620E+00 -1.18627173E+00
  1.43045055E+00 -5.28446700E-01  2.58756660E+00 -1.76756310E+00 -2.29600980E+00
  2.51467740E+00 -1.76756310E+00 -2.16845370E+00 -7.28892000E-01  2.53289970E+00
 -1.22636079E+00  2.44178820E+00  2.51467740E+00  2.51467740E+00 -2.15023140E+00
 -2.15023140E+00 -6.94269630E-01 -2.36889900E+00  2.46001050E+00 -2.36889900E+00
  2.46001050E+00 -1.39218372E+00  8.96537160E-01  8.96537160E-01 -2.29600980E+00
  2.41445475E+00  2.41445475E+00 -1.44685062E+00  8.23647960E-01  8.23647960E-01
  2.40534360E+00 -1.44685062E+00  7.23425310E-01  7.23425310E-01 -1.44685062E+00
  7.41647610E-01  7.41647610E-01 -1.44685062E+00  7.23425310E-01  7.23425310E-01
 -1.44685062E+00  7.23425310E-01  7.23425310E-01  7.23425310E-01  7.23425310E-01
 -1.44685062E+00 -1.46507292E+00  7.23425310E-01  7.23425310E-01  7.05203010E-01
 -1.67827383E+00  7.05203010E-01  5.95869210E-01  5.95869210E-01  5.95869210E-01
  1.48511745E+00 -1.48693968E+00 -1.29560553E+00 -5.61246840E-01 -1.54160658E+00
 -1.56711780E+00 -4.70135340E-01 -1.71289620E+00 -1.18627173E+00  1.43045055E+00
 -5.28446700E-01  2.58756660E+00 -1.76756310E+00 -2.29600980E+00  2.51467740E+00
 -1.76756310E+00 -2.16845370E+00 -7.28892000E-01  2.53289970E+00 -1.22636079E+00
  2.44178820E+00  2.51467740E+00  2.51467740E+00 -2.15023140E+00 -2.15023140E+00
 -6.94269630E-01 -2.36889900E+00  2.46001050E+00 -2.36889900E+00  2.46001050E+00
 -1.39218372E+00  8.96537160E-01  8.96537160E-01 -2.29600980E+00  2.41445475E+00
  2.41445475E+00 -1.44685062E+00  8.23647960E-01  8.23647960E-01  2.40534360E+00
 -1.44685062E+00  7.23425310E-01  7.23425310E-01 -1.44685062E+00  7.41647610E-01
  7.41647610E-01 -1.44685062E+00  7.23425310E-01  7.23425310E-01 -1.44685062E+00
  7.23425310E-01  7.23425310E-01  7.23425310E-01  7.23425310E-01 -1.44685062E+00
 -1.46507292E+00  7.23425310E-01  7.23425310E-01  7.05203010E-01 -1.67827383E+00
  7.05203010E-01  5.95869210E-01  5.95869210E-01  5.95869210E-01  1.48511745E+00
 -1.48693968E+00 -1.29560553E+00 -5.61246840E-01 -1.54160658E+00 -1.56711780E+00
 -4.70135340E-01 -1.71289620E+00 -1.18627173E+00  1.43045055E+00 -5.28446700E-01
  2.58756660E+00 -1.76756310E+00 -2.29600980E+00  2.51467740E+00 -1.76756310E+00
 -2.16845370E+00 -7.28892000E-01  2.53289970E+00 -1.22636079E+00  2.44178820E+00
  2.51467740E+00  2.51467740E+00 -2.15023140E+00 -2.15023140E+00 -6.94269630E-01
 -2.36889900E+00  2.46001050E+00 -2.36889900E+00  2.46001050E+00 -1.39218372E+00
  8.96537160E-01  8.96537160E-01 -2.29600980E+00  2.41445475E+00  2.41445475E+00
 -1.44685062E+00  8.23647960E-01  8.23647960E-01  2.40534360E+00 -1.44685062E+00
  7.23425310E-01  7.23425310E-01 -1.44685062E+00  7.41647610E-01  7.41647610E-01
 -1.44685062E+00  7.23425310E-01  7.23425310E-01 -1.44685062E+00  7.23425310E-01
  7.23425310E-01  7.23425310E-01  7.23425310E-01 -1.44685062E+00 -1.46507292E+00
  7.23425310E-01  7.23425310E-01  7.05203010E-01 -1.67827383E+00  7.05203010E-01
  5.95869210E-01  5.95869210E-01  5.95869210E-01  1.48511745E+00 -1.48693968E+00
 -1.29560553E+00 -5.61246840E-01 -1.54160658E+00 -1.56711780E+00 -4.70135340E-01
 -1.71289620E+00 -1.18627173E+00  1.43045055E+00 -5.28446700E-01  2.58756660E+00
 -1.76756310E+00 -2.29600980E+00  2.51467740E+00 -1.76756310E+00 -2.16845370E+00
 -7.28892000E-01  2.53289970E+00 -1.22636079E+00  2.44178820E+00  2.51467740E+00
  2.51467740E+00 -2.15023140E+00 -2.15023140E+00 -6.94269630E-01 -2.36889900E+00
  2.46001050E+00 -2.36889900E+00  2.46001050E+00 -1.39218372E+00  8.96537160E-01
  8.96537160E-01 -2.29600980E+00  2.41445475E+00  2.41445475E+00 -1.44685062E+00
  8.23647960E-01  8.23647960E-01  2.40534360E+00 -1.44685062E+00  7.23425310E-01
  7.23425310E-01 -1.44685062E+00  7.41647610E-01  7.41647610E-01 -1.44685062E+00
  7.23425310E-01  7.23425310E-01 -1.44685062E+00  7.23425310E-01  7.23425310E-01
  7.23425310E-01  7.23425310E-01 -1.44685062E+00 -1.46507292E+00  7.23425310E-01
  7.23425310E-01  7.05203010E-01 -1.67827383E+00  7.05203010E-01  5.95869210E-01
  5.95869210E-01  5.95869210E-01  1.48511745E+00 -1.48693968E+00 -1.29560553E+00
 -5.61246840E-01 -1.54160658E+00 -1.56711780E+00 -4.70135340E-01 -1.71289620E+00
 -1.18627173E+00  1.43045055E+00 -5.28446700E-01  2.58756660E+00 -1.76756310E+00
 -2.29600980E+00  2.51467740E+00 -1.76756310E+00 -2.16845370E+00 -7.28892000E-01
  2.53289970E+00 -1.22636079E+00  2.44178820E+00  2.51467740E+00  2.51467740E+00
 -2.15023140E+00 -2.15023140E+00 -6.94269630E-01 -2.36889900E+00  2.46001050E+00
 -2.36889900E+00  2.46001050E+00 -1.39218372E+00  8.96537160E-01  8.96537160E-01
 -2.29600980E+00  2.41445475E+00  2.41445475E+00 -1.44685062E+00  8.23647960E-01
  8.23647960E-01  2.40534360E+00 -1.44685062E+00  7.23425310E-01  7.23425310E-01
 -1.44685062E+00  7.41647610E-01  7.41647610E-01 -1.44685062E+00  7.23425310E-01
  7.23425310E-01 -1.44685062E+00  7.23425310E-01  7.23425310E-01  7.23425310E-01
  7.23425310E-01 -1.44685062E+00 -1.46507292E+00  7.23425310E-01  7.23425310E-01
  7.05203010E-01 -1.67827383E+00  7.05203010E-01  5.95869210E-01  5.95869210E-01
  5.95869210E-01  1.48511745E+00 -1.48693968E+00 -1.29560553E+00 -5.61246840E-01
 -1.54160658E+00 -1.56711780E+00 -4.70135340E-01 -1.71289620E+00 -1.18627173E+00
  1.43045055E+00 -5.28446700E-01  2.58756660E+00 -1.76756310E+00 -2.29600980E+00
  2.51467740E+00 -1.76756310E+00 -2.16845370E+00 -7.28892000E-01  2.53289970E+00
 -1.22636079E+00  2.44178820E+00  2.51467740E+00  2.51467740E+00 -2.15023140E+00
 -2.15023140E+00 -6.94269630E-01 -2.36889900E+00  2.46001050E+00 -2.36889900E+00
  2.46001050E+00 -1.39218372E+00  8.96537160E-01  8.96537160E-01 -2.29600980E+00
  2.41445475E+00  2.41445475E+00 -1.44685062E+00  8.23647960E-01  8.23647960E-01
  2.40534360E+00 -1.44685062E+00  7.23425310E-01  7.23425310E-01 -1.44685062E+00
  7.41647610E-01  7.41647610E-01 -1.44685062E+00  7.23425310E-01  7.23425310E-01
 -1.44685062E+00  7.23425310E-01  7.23425310E-01  7.23425310E-01  7.23425310E-01
 -1.44685062E+00 -1.46507292E+00  7.23425310E-01  7.23425310E-01  7.05203010E-01
 -1.67827383E+00  7.05203010E-01  5.95869210E-01  5.95869210E-01  5.95869210E-01
  1.48511745E+00 -1.48693968E+00 -1.29560553E+00 -5.61246840E-01 -1.54160658E+00
 -1.56711780E+00 -4.70135340E-01 -1.71289620E+00 -1.18627173E+00  1.43045055E+00
 -5.28446700E-01  2.58756660E+00 -1.76756310E+00 -2.29600980E+00  2.51467740E+00
 -1.76756310E+00 -2.16845370E+00 -7.28892000E-01  2.53289970E+00 -1.22636079E+00
  2.44178820E+00  2.51467740E+00  2.51467740E+00 -2.15023140E+00 -2.15023140E+00
 -6.94269630E-01 -2.36889900E+00  2.46001050E+00 -2.36889900E+00  2.46001050E+00
 -1.39218372E+00  8.96537160E-01  8.96537160E-01 -2.29600980E+00  2.41445475E+00
  2.41445475E+00 -1.44685062E+00  8.23647960E-01  8.23647960E-01  2.40534360E+00
 -1.44685062E+00  7.23425310E-01  7.23425310E-01 -1.44685062E+00  7.41647610E-01
  7.41647610E-01 -1.44685062E+00  7.23425310E-01  7.23425310E-01 -1.44685062E+00
  7.23425310E-01  7.23425310E-01  7.23425310E-01  7.23425310E-01 -1.44685062E+00
 -1.46507292E+00  7.23425310E-01  7.23425310E-01  7.05203010E-01 -1.67827383E+00
  7.05203010E-01  5.95869210E-01  5.95869210E-01  5.95869210E-01  1.48511745E+00
 -1.48693968E+00 -1.29560553E+00 -5.61246840E-01 -1.54160658E+00 -1.56711780E+00
 -4.70135340E-01 -1.71289620E+00 -1.18627173E+00  1.43045055E+00 -5.28446700E-01
  2.58756660E+00 -1.76756310E+00 -2.29600980E+00  2.51467740E+00 -1.76756310E+00
 -2.16845370E+00 -7.28892000E-01  2.53289970E+00 -1.22636079E+00  2.44178820E+00
  2.51467740E+00  2.51467740E+00 -2.15023140E+00 -2.15023140E+00 -6.94269630E-01
 -2.36889900E+00  2.46001050E+00 -2.36889900E+00  2.46001050E+00 -1.39218372E+00
  8.96537160E-01  8.96537160E-01 -2.29600980E+00  2.41445475E+00  2.41445475E+00
 -1.44685062E+00  8.23647960E-01  8.23647960E-01  2.40534360E+00 -1.44685062E+00
  7.23425310E-01  7.23425310E-01 -1.44685062E+00  7.41647610E-01  7.41647610E-01
 -1.44685062E+00  7.23425310E-01  7.23425310E-01 -1.44685062E+00  7.23425310E-01
  7.23425310E-01  7.23425310E-01  7.23425310E-01 -1.44685062E+00 -1.46507292E+00
  7.23425310E-01  7.23425310E-01  7.05203010E-01 -1.67827383E+00  7.05203010E-01
  5.95869210E-01  5.95869210E-01  5.95869210E-01  1.48511745E+00 -1.48693968E+00
 -1.29560553E+00 -5.61246840E-01 -1.54160658E+00 -1.56711780E+00 -4.70135340E-01
 -1.71289620E+00 -1.18627173E+00  1.43045055E+00 -5.28446700E-01  2.58756660E+00
 -1.76756310E+00 -2.29600980E+00  2.51467740E+00 -1.76756310E+00 -2.16845370E+00
 -7.28892000E-01  2.53289970E+00 -1.22636079E+00  2.44178820E+00  2.51467740E+00
  2.51467740E+00 -2.15023140E+00 -2.15023140E+00 -6.94269630E-01 -2.36889900E+00
  2.46001050E+00 -2.36889900E+00  2.46001050E+00 -1.39218372E+00  8.96537160E-01
  8.96537160E-01 -2.29600980E+00  2.41445475E+00  2.41445475E+00 -1.44685062E+00
  8.23647960E-01  8.23647960E-01  2.40534360E+00 -1.44685062E+00  7.23425310E-01
  7.23425310E-01 -1.44685062E+00  7.41647610E-01  7.41647610E-01 -1.44685062E+00
  7.23425310E-01  7.23425310E-01 -1.44685062E+00  7.23425310E-01  7.23425310E-01
  7.23425310E-01  7.23425310E-01 -1.44685062E+00 -1.46507292E+00  7.23425310E-01
  7.23425310E-01  7.05203010E-01 -1.67827383E+00  7.05203010E-01  5.95869210E-01
  5.95869210E-01  5.95869210E-01  1.48511745E+00 -1.48693968E+00 -1.29560553E+00
 -5.61246840E-01 -1.54160658E+00 -1.56711780E+00 -4.70135340E-01 -1.71289620E+00
 -1.18627173E+00  1.43045055E+00 -5.28446700E-01  2.58756660E+00 -1.76756310E+00
 -2.29600980E+00  2.51467740E+00 -1.76756310E+00 -2.16845370E+00 -7.28892000E-01
  2.53289970E+00 -1.22636079E+00  2.44178820E+00  2.51467740E+00  2.51467740E+00
 -2.15023140E+00 -2.15023140E+00 -6.94269630E-01 -2.36889900E+00  2.46001050E+00
 -2.36889900E+00  2.46001050E+00 -1.39218372E+00  8.96537160E-01  8.96537160E-01
 -2.29600980E+00  2.41445475E+00  2.41445475E+00 -1.44685062E+00  8.23647960E-01
  8.23647960E-01  2.40534360E+00 -1.44685062E+00  7.23425310E-01  7.23425310E-01
 -1.44685062E+00  7.41647610E-01  7.41647610E-01 -1.44685062E+00  7.23425310E-01
  7.23425310E-01 -1.44685062E+00  7.23425310E-01  7.23425310E-01  7.23425310E-01
  7.23425310E-01 -1.44685062E+00 -1.46507292E+00  7.23425310E-01  7.23425310E-01
  7.05203010E-01 -1.67827383E+00  7.05203010E-01  5.95869210E-01  5.95869210E-01
  5.95869210E-01  1.48511745E+00 -1.48693968E+00 -1.29560553E+00 -5.61246840E-01
 -1.54160658E+00 -1.56711780E+00 -4.70135340E-01 -1.71289620E+00 -1.18627173E+00
  1.43045055E+00 -5.28446700E-01  2.58756660E+00 -1.76756310E+00 -2.29600980E+00
  2.51467740E+00 -1.76756310E+00 -2.16845370E+00 -7.28892000E-01  2.53289970E+00
 -1.22636079E+00  2.44178820E+00  2.51467740E+00  2.51467740E+00 -2.15023140E+00
 -2.15023140E+00 -6.94269630E-01 -2.36889900E+00  2.46001050E+00 -2.36889900E+00
  2.46001050E+00 -1.39218372E+00  8.96537160E-01  8.96537160E-01 -2.29600980E+00
  2.41445475E+00  2.41445475E+00 -1.44685062E+00  8.23647960E-01  8.23647960E-01
  2.40534360E+00 -1.44685062E+00  7.23425310E-01  7.23425310E-01 -1.44685062E+00
  7.41647610E-01  7.41647610E-01 -1.44685062E+00  7.23425310E-01  7.23425310E-01
 -1.44685062E+00  7.23425310E-01  7.23425310E-01  7.23425310E-01  7.23425310E-01
 -1.44685062E+00 -1.46507292E+00  7.23425310E-01  7.23425310E-01  7.05203010E-01
 -1.67827383E+00  7.05203010E-01  5.95869210E-01  5.95869210E-01  5.95869210E-01
  1.48511745E+00 -1.48693968E+00 -1.29560553E+00 -5.61246840E-01 -1.54160658E+00
 -1.56711780E+00 -4.70135340E-01 -1.71289620E+00 -1.18627173E+00  1.43045055E+00
 -5.28446700E-01  2.58756660E+00 -1.76756310E+00 -2.29600980E+00  2.51467740E+00
 -1.76756310E+00 -2.16845370E+00 -7.28892000E-01  2.53289970E+00 -1.22636079E+00
  2.44178820E+00  2.51467740E+00  2.51467740E+00 -2.15023140E+00 -2.15023140E+00
 -6.94269630E-01 -2.36889900E+00  2.46001050E+00 -2.36889900E+00  2.46001050E+00
 -1.39218372E+00  8.96537160E-01  8.96537160E-01 -2.29600980E+00  2.41445475E+00
  2.41445475E+00 -1.44685062E+00  8.23647960E-01  8.23647960E-01  2.40534360E+00
 -1.44685062E+00  7.23425310E-01  7.23425310E-01 -1.44685062E+00  7.41647610E-01
  7.41647610E-01 -1.44685062E+00  7.23425310E-01  7.23425310E-01 -1.44685062E+00
  7.23425310E-01  7.23425310E-01  7.23425310E-01  7.23425310E-01 -1.44685062E+00
 -1.46507292E+00  7.23425310E-01  7.23425310E-01  7.05203010E-01 -1.67827383E+00
  7.05203010E-01  5.95869210E-01  5.95869210E-01  5.95869210E-01  1.48511745E+00
 -1.48693968E+00 -1.29560553E+00 -5.61246840E-01 -1.54160658E+00 -1.56711780E+00
 -4.70135340E-01 -1.71289620E+00 -1.18627173E+00  1.43045055E+00 -5.28446700E-01
  2.58756660E+00 -1.76756310E+00 -2.29600980E+00  2.51467740E+00 -1.76756310E+00
 -2.16845370E+00 -7.28892000E-01  2.53289970E+00 -1.22636079E+00  2.44178820E+00
  2.51467740E+00  2.51467740E+00 -2.15023140E+00 -2.15023140E+00 -6.94269630E-01
 -2.36889900E+00  2.46001050E+00 -2.36889900E+00  2.46001050E+00 -1.39218372E+00
  8.96537160E-01  8.96537160E-01 -2.29600980E+00  2.41445475E+00  2.41445475E+00
 -1.44685062E+00  8.23647960E-01  8.23647960E-01  2.40534360E+00 -1.44685062E+00
  7.23425310E-01  7.23425310E-01 -1.44685062E+00  7.41647610E-01  7.41647610E-01
 -1.44685062E+00  7.23425310E-01  7.23425310E-01 -1.44685062E+00  7.23425310E-01
  7.23425310E-01  7.23425310E-01  7.23425310E-01 -1.44685062E+00 -1.46507292E+00
  7.23425310E-01  7.23425310E-01  7.05203010E-01 -1.67827383E+00  7.05203010E-01
  5.95869210E-01  5.95869210E-01  5.95869210E-01  1.48511745E+00 -1.48693968E+00
 -1.29560553E+00 -5.61246840E-01 -1.54160658E+00 -1.56711780E+00 -4.70135340E-01
 -1.71289620E+00 -1.18627173E+00  1.43045055E+00 -5.28446700E-01  2.58756660E+00
 -1.76756310E+00 -2.29600980E+00  2.51467740E+00 -1.76756310E+00 -2.16845370E+00
 -7.28892000E-01  2.53289970E+00 -1.22636079E+00  2.44178820E+00  2.51467740E+00
  2.51467740E+00 -2.15023140E+00 -2.15023140E+00 -6.94269630E-01 -2.36889900E+00
  2.46001050E+00 -2.36889900E+00  2.46001050E+00 -1.39218372E+00  8.96537160E-01
  8.96537160E-01 -2.29600980E+00  2.41445475E+00  2.41445475E+00 -1.44685062E+00
  8.23647960E-01  8.23647960E-01  2.40534360E+00 -1.44685062E+00  7.23425310E-01
  7.23425310E-01 -1.44685062E+00  7.41647610E-01  7.41647610E-01 -1.44685062E+00
  7.23425310E-01  7.23425310E-01 -1.44685062E+00  7.23425310E-01  7.23425310E-01
  7.23425310E-01  7.23425310E-01 -1.44685062E+00 -1.46507292E+00  7.23425310E-01
  7.23425310E-01  7.05203010E-01 -1.67827383E+00  7.05203010E-01  5.95869210E-01
  5.95869210E-01  5.95869210E-01  1.48511745E+00 -1.48693968E+00 -1.29560553E+00
 -5.61246840E-01 -1.54160658E+00 -1.56711780E+00 -4.70135340E-01 -1.71289620E+00
 -1.18627173E+00  1.43045055E+00 -5.28446700E-01  2.58756660E+00 -1.76756310E+00
 -2.29600980E+00  2.51467740E+00 -1.76756310E+00 -2.16845370E+00 -7.28892000E-01
  2.53289970E+00 -1.22636079E+00  2.44178820E+00  2.51467740E+00  2.51467740E+00
 -2.15023140E+00 -2.15023140E+00 -6.94269630E-01 -2.36889900E+00  2.46001050E+00
 -2.36889900E+00  2.46001050E+00 -1.39218372E+00  8.96537160E-01  8.96537160E-01
 -2.29600980E+00  2.41445475E+00  2.41445475E+00 -1.44685062E+00  8.23647960E-01
  8.23647960E-01  2.40534360E+00 -1.44685062E+00  7.23425310E-01  7.23425310E-01
 -1.44685062E+00  7.41647610E-01  7.41647610E-01 -1.44685062E+00  7.23425310E-01
  7.23425310E-01 -1.44685062E+00  7.23425310E-01  7.23425310E-01  7.23425310E-01
  7.23425310E-01 -1.44685062E+00 -1.46507292E+00  7.23425310E-01  7.23425310E-01
  7.05203010E-01 -1.67827383E+00  7.05203010E-01  5.95869210E-01  5.95869210E-01
  5.95869210E-01  1.48511745E+00 -1.48693968E+00 -1.29560553E+00 -5.61246840E-01
 -1.54160658E+00 -1.56711780E+00 -4.70135340E-01 -1.71289620E+00 -1.18627173E+00
  1.43045055E+00 -5.28446700E-01  2.58756660E+00 -1.76756310E+00 -2.29600980E+00
  2.51467740E+00 -1.76756310E+00 -2.16845370E+00 -7.28892000E-01  2.53289970E+00
 -1.22636079E+00  2.44178820E+00  2.51467740E+00  2.51467740E+00 -2.15023140E+00
 -2.15023140E+00 -6.94269630E-01 -2.36889900E+00  2.46001050E+00 -2.36889900E+00
  2.46001050E+00 -1.39218372E+00  8.96537160E-01  8.96537160E-01 -2.29600980E+00
  2.41445475E+00  2.41445475E+00 -1.44685062E+00  8.23647960E-01  8.23647960E-01
  2.40534360E+00 -1.44685062E+00  7.23425310E-01  7.23425310E-01 -1.44685062E+00
  7.41647610E-01  7.41647610E-01 -1.44685062E+00  7.23425310E-01  7.23425310E-01
 -1.44685062E+00  7.23425310E-01  7.23425310E-01  7.23425310E-01  7.23425310E-01
 -1.44685062E+00 -1.46507292E+00  7.23425310E-01  7.23425310E-01  7.05203010E-01
 -1.67827383E+00  7.05203010E-01  5.95869210E-01  5.95869210E-01  5.95869210E-01
  1.48511745E+00 -1.48693968E+00 -1.29560553E+00 -5.61246840E-01 -1.54160658E+00
 -1.56711780E+00 -4.70135340E-01 -1.71289620E+00 -1.18627173E+00  1.43045055E+00
 -5.28446700E-01  2.58756660E+00 -1.76756310E+00 -2.29600980E+00  2.51467740E+00
 -1.76756310E+00 -2.16845370E+00 -7.28892000E-01  2.53289970E+00 -1.22636079E+00
  2.44178820E+00  2.51467740E+00  2.51467740E+00 -2.15023140E+00 -2.15023140E+00
 -6.94269630E-01 -2.36889900E+00  2.46001050E+00 -2.36889900E+00  2.46001050E+00
 -1.39218372E+00  8.96537160E-01  8.96537160E-01 -2.29600980E+00  2.41445475E+00
  2.41445475E+00 -1.44685062E+00  8.23647960E-01  8.23647960E-01  2.40534360E+00
 -1.44685062E+00  7.23425310E-01  7.23425310E-01 -1.44685062E+00  7.41647610E-01
  7.41647610E-01 -1.44685062E+00  7.23425310E-01  7.23425310E-01 -1.44685062E+00
  7.23425310E-01  7.23425310E-01  7.23425310E-01  7.23425310E-01 -1.44685062E+00
 -1.46507292E+00  7.23425310E-01  7.23425310E-01  7.05203010E-01 -1.67827383E+00
  7.05203010E-01  5.95869210E-01  5.95869210E-01  5.95869210E-01  1.48511745E+00
 -1.48693968E+00 -1.29560553E+00 -5.61246840E-01 -1.54160658E+00 -1.56711780E+00
 -4.70135340E-01 -1.71289620E+00 -1.18627173E+00  1.43045055E+00 -5.28446700E-01
  2.58756660E+00 -1.76756310E+00 -2.29600980E+00  2.51467740E+00 -1.76756310E+00
 -2.16845370E+00 -7.28892000E-01  2.53289970E+00 -1.22636079E+00  2.44178820E+00
  2.51467740E+00  2.51467740E+00 -2.15023140E+00 -2.15023140E+00 -6.94269630E-01
 -2.36889900E+00  2.46001050E+00 -2.36889900E+00  2.46001050E+00 -1.39218372E+00
  8.96537160E-01  8.96537160E-01 -2.29600980E+00  2.41445475E+00  2.41445475E+00
 -1.44685062E+00  8.23647960E-01  8.23647960E-01  2.40534360E+00 -1.44685062E+00
  7.23425310E-01  7.23425310E-01 -1.44685062E+00  7.41647610E-01  7.41647610E-01
 -1.44685062E+00  7.23425310E-01  7.23425310E-01 -1.44685062E+00  7.23425310E-01
  7.23425310E-01  7.23425310E-01  7.23425310E-01 -1.44685062E+00 -1.46507292E+00
  7.23425310E-01  7.23425310E-01  7.05203010E-01 -1.67827383E+00  7.05203010E-01
  5.95869210E-01  5.95869210E-01  5.95869210E-01  1.48511745E+00 -1.48693968E+00
 -1.29560553E+00 -5.61246840E-01 -1.54160658E+00 -1.56711780E+00 -4.70135340E-01
 -1.71289620E+00 -1.18627173E+00  1.43045055E+00 -5.28446700E-01  2.58756660E+00
 -1.76756310E+00 -2.29600980E+00  2.51467740E+00 -1.76756310E+00 -2.16845370E+00
 -7.28892000E-01  2.53289970E+00 -1.22636079E+00  2.44178820E+00  2.51467740E+00
  2.51467740E+00 -2.15023140E+00 -2.15023140E+00 -6.94269630E-01 -2.36889900E+00
  2.46001050E+00 -2.36889900E+00  2.46001050E+00 -1.39218372E+00  8.96537160E-01
  8.96537160E-01 -2.29600980E+00  2.41445475E+00  2.41445475E+00 -1.44685062E+00
  8.23647960E-01  8.23647960E-01  2.40534360E+00 -1.44685062E+00  7.23425310E-01
  7.23425310E-01 -1.44685062E+00  7.41647610E-01  7.41647610E-01 -1.44685062E+00
  7.23425310E-01  7.23425310E-01 -1.44685062E+00  7.23425310E-01  7.23425310E-01
  7.23425310E-01  7.23425310E-01 -1.44685062E+00 -1.46507292E+00  7.23425310E-01
  7.23425310E-01  7.05203010E-01 -1.67827383E+00  7.05203010E-01  5.95869210E-01
  5.95869210E-01  5.95869210E-01  1.48511745E+00 -1.48693968E+00 -1.29560553E+00
 -5.61246840E-01 -1.54160658E+00 -1.56711780E+00 -4.70135340E-01 -1.71289620E+00
 -1.18627173E+00  1.43045055E+00 -5.28446700E-01  2.58756660E+00 -1.76756310E+00
 -2.29600980E+00  2.51467740E+00 -1.76756310E+00 -2.16845370E+00 -7.28892000E-01
  2.53289970E+00 -1.22636079E+00  2.44178820E+00  2.51467740E+00  2.51467740E+00
 -2.15023140E+00 -2.15023140E+00 -6.94269630E-01 -2.36889900E+00  2.46001050E+00
 -2.36889900E+00  2.46001050E+00 -1.39218372E+00  8.96537160E-01  8.96537160E-01
 -2.29600980E+00  2.41445475E+00  2.41445475E+00 -1.44685062E+00  8.23647960E-01
  8.23647960E-01  2.40534360E+00 -1.44685062E+00  7.23425310E-01  7.23425310E-01
 -1.44685062E+00  7.41647610E-01  7.41647610E-01 -1.44685062E+00  7.23425310E-01
  7.23425310E-01 -1.44685062E+00  7.23425310E-01  7.23425310E-01  7.23425310E-01
  7.23425310E-01 -1.44685062E+00 -1.46507292E+00  7.23425310E-01  7.23425310E-01
  7.05203010E-01 -1.67827383E+00  7.05203010E-01  5.95869210E-01  5.95869210E-01
  5.95869210E-01  1.48511745E+00 -1.48693968E+00 -1.29560553E+00 -5.61246840E-01
 -1.54160658E+00 -1.56711780E+00 -4.70135340E-01 -1.71289620E+00 -1.18627173E+00
  1.43045055E+00 -5.28446700E-01  2.58756660E+00 -1.76756310E+00 -2.29600980E+00
  2.51467740E+00 -1.76756310E+00 -2.16845370E+00 -7.28892000E-01  2.53289970E+00
 -1.22636079E+00  2.44178820E+00  2.51467740E+00  2.51467740E+00 -2.15023140E+00
 -2.15023140E+00 -6.94269630E-01 -2.36889900E+00  2.46001050E+00 -2.36889900E+00
  2.46001050E+00 -1.39218372E+00  8.96537160E-01  8.96537160E-01 -2.29600980E+00
  2.41445475E+00  2.41445475E+00 -1.44685062E+00  8.23647960E-01  8.23647960E-01
  2.40534360E+00 -1.44685062E+00  7.23425310E-01  7.23425310E-01 -1.44685062E+00
  7.41647610E-01  7.41647610E-01 -1.44685062E+00  7.23425310E-01  7.23425310E-01
 -1.44685062E+00  7.23425310E-01  7.23425310E-01  7.23425310E-01  7.23425310E-01
 -1.44685062E+00 -1.46507292E+00  7.23425310E-01  7.23425310E-01  7.05203010E-01
 -1.67827383E+00  7.05203010E-01  5.95869210E-01  5.95869210E-01  5.95869210E-01
  1.48511745E+00 -1.48693968E+00 -1.29560553E+00 -5.61246840E-01 -1.54160658E+00
 -1.56711780E+00 -4.70135340E-01 -1.71289620E+00 -1.18627173E+00  1.43045055E+00
 -5.28446700E-01  2.58756660E+00 -1.76756310E+00 -2.29600980E+00  2.51467740E+00
 -1.76756310E+00 -2.16845370E+00 -7.28892000E-01  2.53289970E+00 -1.22636079E+00
  2.44178820E+00  2.51467740E+00  2.51467740E+00 -2.15023140E+00 -2.15023140E+00
 -6.94269630E-01 -2.36889900E+00  2.46001050E+00 -2.36889900E+00  2.46001050E+00
 -1.39218372E+00  8.96537160E-01  8.96537160E-01 -2.29600980E+00  2.41445475E+00
  2.41445475E+00 -1.44685062E+00  8.23647960E-01  8.23647960E-01  2.40534360E+00
 -1.44685062E+00  7.23425310E-01  7.23425310E-01 -1.44685062E+00  7.41647610E-01
  7.41647610E-01 -1.44685062E+00  7.23425310E-01  7.23425310E-01 -1.44685062E+00
  7.23425310E-01  7.23425310E-01  7.23425310E-01  7.23425310E-01 -1.44685062E+00
 -1.46507292E+00  7.23425310E-01  7.23425310E-01  7.05203010E-01 -1.67827383E+00
  7.05203010E-01  5.95869210E-01  5.95869210E-01  5.95869210E-01  1.48511745E+00
 -1.48693968E+00 -1.29560553E+00 -5.61246840E-01 -1.54160658E+00 -1.56711780E+00
 -4.70135340E-01 -1.71289620E+00 -1.18627173E+00  1.43045055E+00 -5.28446700E-01
  2.58756660E+00 -1.76756310E+00 -2.29600980E+00  2.51467740E+00 -1.76756310E+00
 -2.16845370E+00 -7.28892000E-01  2.53289970E+00 -1.22636079E+00  2.44178820E+00
  2.51467740E+00  2.51467740E+00 -2.15023140E+00 -2.15023140E+00 -6.94269630E-01
 -2.36889900E+00  2.46001050E+00 -2.36889900E+00  2.46001050E+00 -1.39218372E+00
  8.96537160E-01  8.96537160E-01 -2.29600980E+00  2.41445475E+00  2.41445475E+00
 -1.44685062E+00  8.23647960E-01  8.23647960E-01  2.40534360E+00 -1.44685062E+00
  7.23425310E-01  7.23425310E-01 -1.44685062E+00  7.41647610E-01  7.41647610E-01
 -1.44685062E+00  7.23425310E-01  7.23425310E-01 -1.44685062E+00  7.23425310E-01
  7.23425310E-01  7.23425310E-01  7.23425310E-01 -1.44685062E+00 -1.46507292E+00
  7.23425310E-01  7.23425310E-01  7.05203010E-01 -1.67827383E+00  7.05203010E-01
  5.95869210E-01  5.95869210E-01  5.95869210E-01  1.48511745E+00 -1.48693968E+00
 -1.29560553E+00 -5.61246840E-01 -1.54160658E+00 -1.56711780E+00 -4.70135340E-01
 -1.71289620E+00 -1.18627173E+00  1.43045055E+00 -5.28446700E-01  2.58756660E+00
 -1.76756310E+00 -2.29600980E+00  2.51467740E+00 -1.76756310E+00 -2.16845370E+00
 -7.28892000E-01  2.53289970E+00 -1.22636079E+00  2.44178820E+00  2.51467740E+00
  2.51467740E+00 -2.15023140E+00 -2.15023140E+00 -6.94269630E-01 -2.36889900E+00
  2.46001050E+00 -2.36889900E+00  2.46001050E+00 -1.39218372E+00  8.96537160E-01
  8.96537160E-01 -2.29600980E+00  2.41445475E+00  2.41445475E+00 -1.44685062E+00
  8.23647960E-01  8.23647960E-01  2.40534360E+00 -1.44685062E+00  7.23425310E-01
  7.23425310E-01 -1.44685062E+00  7.41647610E-01  7.41647610E-01 -1.44685062E+00
  7.23425310E-01  7.23425310E-01 -1.44685062E+00  7.23425310E-01  7.23425310E-01
  7.23425310E-01  7.23425310E-01 -1.44685062E+00 -1.46507292E+00  7.23425310E-01
  7.23425310E-01  7.05203010E-01 -1.67827383E+00  7.05203010E-01  5.95869210E-01
  5.95869210E-01  5.95869210E-01  1.48511745E+00 -1.48693968E+00 -1.29560553E+00
 -5.61246840E-01 -1.54160658E+00 -1.56711780E+00 -4.70135340E-01 -1.71289620E+00
 -1.18627173E+00  1.43045055E+00 -5.28446700E-01  2.58756660E+00 -1.76756310E+00
 -2.29600980E+00  2.51467740E+00 -1.76756310E+00 -2.16845370E+00 -7.28892000E-01
  2.53289970E+00 -1.22636079E+00  2.44178820E+00  2.51467740E+00  2.51467740E+00
 -2.15023140E+00 -2.15023140E+00 -6.94269630E-01 -2.36889900E+00  2.46001050E+00
 -2.36889900E+00  2.46001050E+00 -1.39218372E+00  8.96537160E-01  8.96537160E-01
 -2.29600980E+00  2.41445475E+00  2.41445475E+00 -1.44685062E+00  8.23647960E-01
  8.23647960E-01  2.40534360E+00 -1.44685062E+00  7.23425310E-01  7.23425310E-01
 -1.44685062E+00  7.41647610E-01  7.41647610E-01 -1.44685062E+00  7.23425310E-01
  7.23425310E-01 -1.44685062E+00  7.23425310E-01  7.23425310E-01  7.23425310E-01
  7.23425310E-01 -1.44685062E+00 -1.46507292E+00  7.23425310E-01  7.23425310E-01
  7.05203010E-01 -1.67827383E+00  7.05203010E-01  5.95869210E-01  5.95869210E-01
  5.95869210E-01  1.48511745E+00 -1.48693968E+00 -1.29560553E+00 -5.61246840E-01
 -1.54160658E+00 -1.56711780E+00 -4.70135340E-01 -1.71289620E+00 -1.18627173E+00
  1.43045055E+00 -5.28446700E-01  2.58756660E+00 -1.76756310E+00 -2.29600980E+00
  2.51467740E+00 -1.76756310E+00 -2.16845370E+00 -7.28892000E-01  2.53289970E+00
 -1.22636079E+00  2.44178820E+00  2.51467740E+00  2.51467740E+00 -2.15023140E+00
 -2.15023140E+00 -6.94269630E-01 -2.36889900E+00  2.46001050E+00 -2.36889900E+00
  2.46001050E+00 -1.39218372E+00  8.96537160E-01  8.96537160E-01 -2.29600980E+00
  2.41445475E+00  2.41445475E+00 -1.44685062E+00  8.23647960E-01  8.23647960E-01
  2.40534360E+00 -1.44685062E+00  7.23425310E-01  7.23425310E-01 -1.44685062E+00
  7.41647610E-01  7.41647610E-01 -1.44685062E+00  7.23425310E-01  7.23425310E-01
 -1.44685062E+00  7.23425310E-01  7.23425310E-01  7.23425310E-01  7.23425310E-01
 -1.44685062E+00 -1.46507292E+00  7.23425310E-01  7.23425310E-01  7.05203010E-01
 -1.67827383E+00  7.05203010E-01  5.95869210E-01  5.95869210E-01  5.95869210E-01
  1.48511745E+00 -1.48693968E+00 -1.29560553E+00 -5.61246840E-01 -1.54160658E+00
 -1.56711780E+00 -4.70135340E-01 -1.71289620E+00 -1.18627173E+00  1.43045055E+00
 -5.28446700E-01  2.58756660E+00 -1.76756310E+00 -2.29600980E+00  2.51467740E+00
 -1.76756310E+00 -2.16845370E+00 -7.28892000E-01  2.53289970E+00 -1.22636079E+00
  2.44178820E+00  2.51467740E+00  2.51467740E+00 -2.15023140E+00 -2.15023140E+00
 -6.94269630E-01 -2.36889900E+00  2.46001050E+00 -2.36889900E+00  2.46001050E+00
 -1.39218372E+00  8.96537160E-01  8.96537160E-01 -2.29600980E+00  2.41445475E+00
  2.41445475E+00 -1.44685062E+00  8.23647960E-01  8.23647960E-01  2.40534360E+00
 -1.44685062E+00  7.23425310E-01  7.23425310E-01 -1.44685062E+00  7.41647610E-01
  7.41647610E-01 -1.44685062E+00  7.23425310E-01  7.23425310E-01 -1.44685062E+00
  7.23425310E-01  7.23425310E-01  7.23425310E-01  7.23425310E-01 -1.44685062E+00
 -1.46507292E+00  7.23425310E-01  7.23425310E-01  7.05203010E-01 -1.67827383E+00
  7.05203010E-01  5.95869210E-01  5.95869210E-01  5.95869210E-01  1.48511745E+00
 -1.48693968E+00 -1.29560553E+00 -5.61246840E-01 -1.54160658E+00 -1.56711780E+00
 -4.70135340E-01 -1.71289620E+00 -1.18627173E+00  1.43045055E+00 -5.28446700E-01
  2.58756660E+00 -1.76756310E+00 -2.29600980E+00  2.51467740E+00 -1.76756310E+00
 -2.16845370E+00 -7.28892000E-01  2.53289970E+00 -1.22636079E+00  2.44178820E+00
  2.51467740E+00  2.51467740E+00 -2.15023140E+00 -2.15023140E+00 -6.94269630E-01
 -2.36889900E+00  2.46001050E+00 -2.36889900E+00  2.46001050E+00 -1.39218372E+00
  8.96537160E-01  8.96537160E-01 -2.29600980E+00  2.41445475E+00  2.41445475E+00
 -1.44685062E+00  8.23647960E-01  8.23647960E-01  2.40534360E+00 -1.44685062E+00
  7.23425310E-01  7.23425310E-01 -1.44685062E+00  7.41647610E-01  7.41647610E-01
 -1.44685062E+00  7.23425310E-01  7.23425310E-01 -1.44685062E+00  7.23425310E-01
  7.23425310E-01  7.23425310E-01  7.23425310E-01 -1.44685062E+00 -1.46507292E+00
  7.23425310E-01  7.23425310E-01  7.05203010E-01 -1.67827383E+00  7.05203010E-01
  5.95869210E-01  5.95869210E-01  5.95869210E-01  1.48511745E+00 -1.48693968E+00
 -1.29560553E+00 -5.61246840E-01 -1.54160658E+00 -1.56711780E+00 -4.70135340E-01
 -1.71289620E+00 -1.18627173E+00  1.43045055E+00 -5.28446700E-01  2.58756660E+00
 -1.76756310E+00 -2.29600980E+00  2.51467740E+00 -1.76756310E+00 -2.16845370E+00
 -7.28892000E-01  2.53289970E+00 -1.22636079E+00  2.44178820E+00  2.51467740E+00
  2.51467740E+00 -2.15023140E+00 -2.15023140E+00 -6.94269630E-01 -2.36889900E+00
  2.46001050E+00 -2.36889900E+00  2.46001050E+00 -1.39218372E+00  8.96537160E-01
  8.96537160E-01 -2.29600980E+00  2.41445475E+00  2.41445475E+00 -1.44685062E+00
  8.23647960E-01  8.23647960E-01  2.40534360E+00 -1.44685062E+00  7.23425310E-01
  7.23425310E-01 -1.44685062E+00  7.41647610E-01  7.41647610E-01 -1.44685062E+00
  7.23425310E-01  7.23425310E-01 -1.44685062E+00  7.23425310E-01  7.23425310E-01
  7.23425310E-01  7.23425310E-01 -1.44685062E+00 -1.46507292E+00  7.23425310E-01
  7.23425310E-01  7.05203010E-01 -1.67827383E+00  7.05203010E-01  5.95869210E-01
  5.95869210E-01  5.95869210E-01  1.48511745E+00 -1.48693968E+00 -1.29560553E+00
 -5.61246840E-01 -1.54160658E+00 -1.56711780E+00 -4.70135340E-01 -1.71289620E+00
 -1.18627173E+00  1.43045055E+00 -5.28446700E-01  2.58756660E+00 -1.76756310E+00
 -2.29600980E+00  2.51467740E+00 -1.76756310E+00 -2.16845370E+00 -7.28892000E-01
  2.53289970E+00 -1.22636079E+00  2.44178820E+00  2.51467740E+00  2.51467740E+00
 -2.15023140E+00 -2.15023140E+00 -6.94269630E-01 -2.36889900E+00  2.46001050E+00
 -2.36889900E+00  2.46001050E+00 -1.39218372E+00  8.96537160E-01  8.96537160E-01
 -2.29600980E+00  2.41445475E+00  2.41445475E+00 -1.44685062E+00  8.23647960E-01
  8.23647960E-01  2.40534360E+00 -1.44685062E+00  7.23425310E-01  7.23425310E-01
 -1.44685062E+00  7.41647610E-01  7.41647610E-01 -1.44685062E+00  7.23425310E-01
  7.23425310E-01 -1.44685062E+00  7.23425310E-01  7.23425310E-01  7.23425310E-01
  7.23425310E-01 -1.44685062E+00 -1.46507292E+00  7.23425310E-01  7.23425310E-01
  7.05203010E-01 -1.67827383E+00  7.05203010E-01  5.95869210E-01  5.95869210E-01
  5.95869210E-01  1.48511745E+00 -1.48693968E+00 -1.29560553E+00 -5.61246840E-01
 -1.54160658E+00 -1.56711780E+00 -4.70135340E-01 -1.71289620E+00 -1.18627173E+00
  1.43045055E+00 -5.28446700E-01  2.58756660E+00 -1.76756310E+00 -2.29600980E+00
  2.51467740E+00 -1.76756310E+00 -2.16845370E+00 -7.28892000E-01  2.53289970E+00
 -1.22636079E+00  2.44178820E+00  2.51467740E+00  2.51467740E+00 -2.15023140E+00
 -2.15023140E+00 -6.94269630E-01 -2.36889900E+00  2.46001050E+00 -2.36889900E+00
  2.46001050E+00 -1.39218372E+00  8.96537160E-01  8.96537160E-01 -2.29600980E+00
  2.41445475E+00  2.41445475E+00 -1.44685062E+00  8.23647960E-01  8.23647960E-01
  2.40534360E+00 -1.44685062E+00  7.23425310E-01  7.23425310E-01 -1.44685062E+00
  7.41647610E-01  7.41647610E-01 -1.44685062E+00  7.23425310E-01  7.23425310E-01
 -1.44685062E+00  7.23425310E-01  7.23425310E-01  7.23425310E-01  7.23425310E-01
 -1.44685062E+00 -1.46507292E+00  7.23425310E-01  7.23425310E-01  7.05203010E-01
 -1.67827383E+00  7.05203010E-01  5.95869210E-01  5.95869210E-01  5.95869210E-01
  1.48511745E+00 -1.48693968E+00 -1.29560553E+00 -5.61246840E-01 -1.54160658E+00
 -1.56711780E+00 -4.70135340E-01 -1.71289620E+00 -1.18627173E+00  1.43045055E+00
 -5.28446700E-01  2.58756660E+00 -1.76756310E+00 -2.29600980E+00  2.51467740E+00
 -1.76756310E+00 -2.16845370E+00 -7.28892000E-01  2.53289970E+00 -1.22636079E+00
  2.44178820E+00  2.51467740E+00  2.51467740E+00 -2.15023140E+00 -2.15023140E+00
 -6.94269630E-01 -2.36889900E+00  2.46001050E+00 -2.36889900E+00  2.46001050E+00
 -1.39218372E+00  8.96537160E-01  8.96537160E-01 -2.29600980E+00  2.41445475E+00
  2.41445475E+00 -1.44685062E+00  8.23647960E-01  8.23647960E-01  2.40534360E+00
 -1.44685062E+00  7.23425310E-01  7.23425310E-01 -1.44685062E+00  7.41647610E-01
  7.41647610E-01 -1.44685062E+00  7.23425310E-01  7.23425310E-01 -1.44685062E+00
  7.23425310E-01  7.23425310E-01  7.23425310E-01  7.23425310E-01 -1.44685062E+00
 -1.46507292E+00  7.23425310E-01  7.23425310E-01  7.05203010E-01 -1.67827383E+00
  7.05203010E-01  5.95869210E-01  5.95869210E-01  5.95869210E-01  1.48511745E+00
 -1.48693968E+00 -1.29560553E+00 -5.61246840E-01 -1.54160658E+00 -1.56711780E+00
 -4.70135340E-01 -1.71289620E+00 -1.18627173E+00  1.43045055E+00 -5.28446700E-01
  2.58756660E+00 -1.76756310E+00 -2.29600980E+00  2.51467740E+00 -1.76756310E+00
 -2.16845370E+00 -7.28892000E-01  2.53289970E+00 -1.22636079E+00  2.44178820E+00
  2.51467740E+00  2.51467740E+00 -2.15023140E+00 -2.15023140E+00 -6.94269630E-01
 -2.36889900E+00  2.46001050E+00 -2.36889900E+00  2.46001050E+00 -1.39218372E+00
  8.96537160E-01  8.96537160E-01 -2.29600980E+00  2.41445475E+00  2.41445475E+00
 -1.44685062E+00  8.23647960E-01  8.23647960E-01  2.40534360E+00 -1.44685062E+00
  7.23425310E-01  7.23425310E-01 -1.44685062E+00  7.41647610E-01  7.41647610E-01
 -1.44685062E+00  7.23425310E-01  7.23425310E-01 -1.44685062E+00  7.23425310E-01
  7.23425310E-01  7.23425310E-01  7.23425310E-01 -1.44685062E+00 -1.46507292E+00
  7.23425310E-01  7.23425310E-01  7.05203010E-01 -1.67827383E+00  7.05203010E-01
  5.95869210E-01  5.95869210E-01  5.95869210E-01  1.48511745E+00 -1.48693968E+00
 -1.29560553E+00 -5.61246840E-01 -1.54160658E+00 -1.56711780E+00 -4.70135340E-01
 -1.71289620E+00 -1.18627173E+00  1.43045055E+00 -5.28446700E-01  2.58756660E+00
 -1.76756310E+00 -2.29600980E+00  2.51467740E+00 -1.76756310E+00 -2.16845370E+00
 -7.28892000E-01  2.53289970E+00 -1.22636079E+00  2.44178820E+00  2.51467740E+00
  2.51467740E+00 -2.15023140E+00 -2.15023140E+00 -6.94269630E-01 -2.36889900E+00
  2.46001050E+00 -2.36889900E+00  2.46001050E+00 -1.39218372E+00  8.96537160E-01
  8.96537160E-01 -2.29600980E+00  2.41445475E+00  2.41445475E+00 -1.44685062E+00
  8.23647960E-01  8.23647960E-01  2.40534360E+00 -1.44685062E+00  7.23425310E-01
  7.23425310E-01 -1.44685062E+00  7.41647610E-01  7.41647610E-01 -1.44685062E+00
  7.23425310E-01  7.23425310E-01 -1.44685062E+00  7.23425310E-01  7.23425310E-01
  7.23425310E-01  7.23425310E-01 -1.44685062E+00 -1.46507292E+00  7.23425310E-01
  7.23425310E-01  7.05203010E-01 -1.67827383E+00  7.05203010E-01  5.95869210E-01
  5.95869210E-01  5.95869210E-01  1.48511745E+00 -1.48693968E+00 -1.29560553E+00
 -5.61246840E-01 -1.54160658E+00 -1.56711780E+00 -4.70135340E-01 -1.71289620E+00
 -1.18627173E+00  1.43045055E+00 -5.28446700E-01  2.58756660E+00 -1.76756310E+00
 -2.29600980E+00  2.51467740E+00 -1.76756310E+00 -2.16845370E+00 -7.28892000E-01
  2.53289970E+00 -1.22636079E+00  2.44178820E+00  2.51467740E+00  2.51467740E+00
 -2.15023140E+00 -2.15023140E+00 -6.94269630E-01 -2.36889900E+00  2.46001050E+00
 -2.36889900E+00  2.46001050E+00 -1.39218372E+00  8.96537160E-01  8.96537160E-01
 -2.29600980E+00  2.41445475E+00  2.41445475E+00 -1.44685062E+00  8.23647960E-01
  8.23647960E-01  2.40534360E+00 -1.44685062E+00  7.23425310E-01  7.23425310E-01
 -1.44685062E+00  7.41647610E-01  7.41647610E-01 -1.44685062E+00  7.23425310E-01
  7.23425310E-01 -1.44685062E+00  7.23425310E-01  7.23425310E-01  7.23425310E-01
  7.23425310E-01 -1.44685062E+00 -1.46507292E+00  7.23425310E-01  7.23425310E-01
  7.05203010E-01 -1.67827383E+00  7.05203010E-01  5.95869210E-01  5.95869210E-01
  5.95869210E-01  1.48511745E+00 -1.48693968E+00 -1.29560553E+00 -5.61246840E-01
 -1.54160658E+00 -1.56711780E+00 -4.70135340E-01 -1.71289620E+00 -1.18627173E+00
  1.43045055E+00 -5.28446700E-01  2.58756660E+00 -1.76756310E+00 -2.29600980E+00
  2.51467740E+00 -1.76756310E+00 -2.16845370E+00 -7.28892000E-01  2.53289970E+00
 -1.22636079E+00  2.44178820E+00  2.51467740E+00  2.51467740E+00 -2.15023140E+00
 -2.15023140E+00 -6.94269630E-01 -2.36889900E+00  2.46001050E+00 -2.36889900E+00
  2.46001050E+00 -1.39218372E+00  8.96537160E-01  8.96537160E-01 -2.29600980E+00
  2.41445475E+00  2.41445475E+00 -1.44685062E+00  8.23647960E-01  8.23647960E-01
  2.40534360E+00 -1.44685062E+00  7.23425310E-01  7.23425310E-01 -1.44685062E+00
  7.41647610E-01  7.41647610E-01 -1.44685062E+00  7.23425310E-01  7.23425310E-01
 -1.44685062E+00  7.23425310E-01  7.23425310E-01  7.23425310E-01  7.23425310E-01
 -1.44685062E+00 -1.46507292E+00  7.23425310E-01  7.23425310E-01  7.05203010E-01
 -1.67827383E+00  7.05203010E-01  5.95869210E-01  5.95869210E-01  5.95869210E-01
  1.48511745E+00 -1.48693968E+00 -1.29560553E+00 -5.61246840E-01 -1.54160658E+00
 -1.56711780E+00 -4.70135340E-01 -1.71289620E+00 -1.18627173E+00  1.43045055E+00
 -5.28446700E-01  2.58756660E+00 -1.76756310E+00 -2.29600980E+00  2.51467740E+00
 -1.76756310E+00 -2.16845370E+00 -7.28892000E-01  2.53289970E+00 -1.22636079E+00
  2.44178820E+00  2.51467740E+00  2.51467740E+00 -2.15023140E+00 -2.15023140E+00
 -6.94269630E-01 -2.36889900E+00  2.46001050E+00 -2.36889900E+00  2.46001050E+00
 -1.39218372E+00  8.96537160E-01  8.96537160E-01 -2.29600980E+00  2.41445475E+00
  2.41445475E+00 -1.44685062E+00  8.23647960E-01  8.23647960E-01  2.40534360E+00
 -1.44685062E+00  7.23425310E-01  7.23425310E-01 -1.44685062E+00  7.41647610E-01
  7.41647610E-01 -1.44685062E+00  7.23425310E-01  7.23425310E-01 -1.44685062E+00
  7.23425310E-01  7.23425310E-01  7.23425310E-01  7.23425310E-01 -1.44685062E+00
 -1.46507292E+00  7.23425310E-01  7.23425310E-01  7.05203010E-01 -1.67827383E+00
  7.05203010E-01  5.95869210E-01  5.95869210E-01  5.95869210E-01  1.48511745E+00
 -1.48693968E+00 -1.29560553E+00 -5.61246840E-01 -1.54160658E+00 -1.56711780E+00
 -4.70135340E-01 -1.71289620E+00 -1.18627173E+00  1.43045055E+00 -5.28446700E-01
  2.58756660E+00 -1.76756310E+00 -2.29600980E+00  2.51467740E+00 -1.76756310E+00
 -2.16845370E+00 -7.28892000E-01  2.53289970E+00 -1.22636079E+00  2.44178820E+00
  2.51467740E+00  2.51467740E+00 -2.15023140E+00 -2.15023140E+00 -6.94269630E-01
 -2.36889900E+00  2.46001050E+00 -2.36889900E+00  2.46001050E+00 -1.39218372E+00
  8.96537160E-01  8.96537160E-01 -2.29600980E+00  2.41445475E+00  2.41445475E+00
 -1.44685062E+00  8.23647960E-01  8.23647960E-01  2.40534360E+00 -1.44685062E+00
  7.23425310E-01  7.23425310E-01 -1.44685062E+00  7.41647610E-01  7.41647610E-01
 -1.44685062E+00  7.23425310E-01  7.23425310E-01 -1.44685062E+00  7.23425310E-01
  7.23425310E-01  7.23425310E-01  7.23425310E-01 -1.44685062E+00 -1.46507292E+00
  7.23425310E-01  7.23425310E-01  7.05203010E-01 -1.67827383E+00  7.05203010E-01
  5.95869210E-01  5.95869210E-01  5.95869210E-01  1.48511745E+00 -1.48693968E+00
 -1.29560553E+00 -5.61246840E-01 -1.54160658E+00 -1.56711780E+00 -4.70135340E-01
 -1.71289620E+00 -1.18627173E+00  1.43045055E+00 -5.28446700E-01  2.58756660E+00
 -1.76756310E+00 -2.29600980E+00  2.51467740E+00 -1.76756310E+00 -2.16845370E+00
 -7.28892000E-01  2.53289970E+00 -1.22636079E+00  2.44178820E+00  2.51467740E+00
  2.51467740E+00 -2.15023140E+00 -2.15023140E+00 -6.94269630E-01 -2.36889900E+00
  2.46001050E+00 -2.36889900E+00  2.46001050E+00 -1.39218372E+00  8.96537160E-01
  8.96537160E-01 -2.29600980E+00  2.41445475E+00  2.41445475E+00 -1.44685062E+00
  8.23647960E-01  8.23647960E-01  2.40534360E+00 -1.44685062E+00  7.23425310E-01
  7.23425310E-01 -1.44685062E+00  7.41647610E-01  7.41647610E-01 -1.44685062E+00
  7.23425310E-01  7.23425310E-01 -1.44685062E+00  7.23425310E-01  7.23425310E-01
  7.23425310E-01  7.23425310E-01 -1.44685062E+00 -1.46507292E+00  7.23425310E-01
  7.23425310E-01  7.05203010E-01 -1.67827383E+00  7.05203010E-01  5.95869210E-01
  5.95869210E-01  5.95869210E-01  1.48511745E+00 -1.48693968E+00 -1.29560553E+00
 -5.61246840E-01 -1.54160658E+00 -1.56711780E+00 -4.70135340E-01 -1.71289620E+00
 -1.18627173E+00  1.43045055E+00 -5.28446700E-01  2.58756660E+00 -1.76756310E+00
 -2.29600980E+00  2.51467740E+00 -1.76756310E+00 -2.16845370E+00 -7.28892000E-01
  2.53289970E+00 -1.22636079E+00  2.44178820E+00  2.51467740E+00  2.51467740E+00
 -2.15023140E+00 -2.15023140E+00 -6.94269630E-01 -2.36889900E+00  2.46001050E+00
 -2.36889900E+00  2.46001050E+00 -1.39218372E+00  8.96537160E-01  8.96537160E-01
 -2.29600980E+00  2.41445475E+00  2.41445475E+00 -1.44685062E+00  8.23647960E-01
  8.23647960E-01  2.40534360E+00 -1.44685062E+00  7.23425310E-01  7.23425310E-01
 -1.44685062E+00  7.41647610E-01  7.41647610E-01 -1.44685062E+00  7.23425310E-01
  7.23425310E-01 -1.44685062E+00  7.23425310E-01  7.23425310E-01  7.23425310E-01
  7.23425310E-01 -1.44685062E+00 -1.46507292E+00  7.23425310E-01  7.23425310E-01
  7.05203010E-01 -1.67827383E+00  7.05203010E-01  5.95869210E-01  5.95869210E-01
  5.95869210E-01  1.48511745E+00 -1.48693968E+00 -1.29560553E+00 -5.61246840E-01
 -1.54160658E+00 -1.56711780E+00 -4.70135340E-01 -1.71289620E+00 -1.18627173E+00
  1.43045055E+00 -5.28446700E-01  2.58756660E+00 -1.76756310E+00 -2.29600980E+00
  2.51467740E+00 -1.76756310E+00 -2.16845370E+00 -7.28892000E-01  2.53289970E+00
 -1.22636079E+00  2.44178820E+00  2.51467740E+00  2.51467740E+00 -2.15023140E+00
 -2.15023140E+00 -6.94269630E-01 -2.36889900E+00  2.46001050E+00 -2.36889900E+00
  2.46001050E+00 -1.39218372E+00  8.96537160E-01  8.96537160E-01 -2.29600980E+00
  2.41445475E+00  2.41445475E+00 -1.44685062E+00  8.23647960E-01  8.23647960E-01
  2.40534360E+00 -1.44685062E+00  7.23425310E-01  7.23425310E-01 -1.44685062E+00
  7.41647610E-01  7.41647610E-01 -1.44685062E+00  7.23425310E-01  7.23425310E-01
 -1.44685062E+00  7.23425310E-01  7.23425310E-01  7.23425310E-01  7.23425310E-01
 -1.44685062E+00 -1.46507292E+00  7.23425310E-01  7.23425310E-01  7.05203010E-01
 -1.67827383E+00  7.05203010E-01  5.95869210E-01  5.95869210E-01  5.95869210E-01
  1.48511745E+00 -1.48693968E+00 -1.29560553E+00 -5.61246840E-01 -1.54160658E+00
 -1.56711780E+00 -4.70135340E-01 -1.71289620E+00 -1.18627173E+00  1.43045055E+00
 -5.28446700E-01  2.58756660E+00 -1.76756310E+00 -2.29600980E+00  2.51467740E+00
 -1.76756310E+00 -2.16845370E+00 -7.28892000E-01  2.53289970E+00 -1.22636079E+00
  2.44178820E+00  2.51467740E+00  2.51467740E+00 -2.15023140E+00 -2.15023140E+00
 -6.94269630E-01 -2.36889900E+00  2.46001050E+00 -2.36889900E+00  2.46001050E+00
 -1.39218372E+00  8.96537160E-01  8.96537160E-01 -2.29600980E+00  2.41445475E+00
  2.41445475E+00 -1.44685062E+00  8.23647960E-01  8.23647960E-01  2.40534360E+00
 -1.44685062E+00  7.23425310E-01  7.23425310E-01 -1.44685062E+00  7.41647610E-01
  7.41647610E-01 -1.44685062E+00  7.23425310E-01  7.23425310E-01 -1.44685062E+00
  7.23425310E-01  7.23425310E-01  7.23425310E-01  7.23425310E-01 -1.44685062E+00
 -1.46507292E+00  7.23425310E-01  7.23425310E-01  7.05203010E-01 -1.67827383E+00
  7.05203010E-01  5.95869210E-01  5.95869210E-01  5.95869210E-01  1.48511745E+00
 -1.48693968E+00 -1.29560553E+00 -5.61246840E-01 -1.54160658E+00 -1.56711780E+00
 -4.70135340E-01 -1.71289620E+00 -1.18627173E+00  1.43045055E+00 -5.28446700E-01
  2.58756660E+00 -1.76756310E+00 -2.29600980E+00  2.51467740E+00 -1.76756310E+00
 -2.16845370E+00 -7.28892000E-01  2.53289970E+00 -1.22636079E+00  2.44178820E+00
  2.51467740E+00  2.51467740E+00 -2.15023140E+00 -2.15023140E+00 -6.94269630E-01
 -2.36889900E+00  2.46001050E+00 -2.36889900E+00  2.46001050E+00 -1.39218372E+00
  8.96537160E-01  8.96537160E-01 -2.29600980E+00  2.41445475E+00  2.41445475E+00
 -1.44685062E+00  8.23647960E-01  8.23647960E-01  2.40534360E+00 -1.44685062E+00
  7.23425310E-01  7.23425310E-01 -1.44685062E+00  7.41647610E-01  7.41647610E-01
 -1.44685062E+00  7.23425310E-01  7.23425310E-01 -1.44685062E+00  7.23425310E-01
  7.23425310E-01  7.23425310E-01  7.23425310E-01 -1.44685062E+00 -1.46507292E+00
  7.23425310E-01  7.23425310E-01  7.05203010E-01 -1.67827383E+00  7.05203010E-01
  5.95869210E-01  5.95869210E-01  5.95869210E-01  1.48511745E+00 -1.48693968E+00
 -1.29560553E+00 -5.61246840E-01 -1.54160658E+00 -1.56711780E+00 -4.70135340E-01
 -1.71289620E+00 -1.18627173E+00  1.43045055E+00 -5.28446700E-01  2.58756660E+00
 -1.76756310E+00 -2.29600980E+00  2.51467740E+00 -1.76756310E+00 -2.16845370E+00
 -7.28892000E-01  2.53289970E+00 -1.22636079E+00  2.44178820E+00  2.51467740E+00
  2.51467740E+00 -2.15023140E+00 -2.15023140E+00 -6.94269630E-01 -2.36889900E+00
  2.46001050E+00 -2.36889900E+00  2.46001050E+00 -1.39218372E+00  8.96537160E-01
  8.96537160E-01 -2.29600980E+00  2.41445475E+00  2.41445475E+00 -1.44685062E+00
  8.23647960E-01  8.23647960E-01  2.40534360E+00 -1.44685062E+00  7.23425310E-01
  7.23425310E-01 -1.44685062E+00  7.41647610E-01  7.41647610E-01 -1.44685062E+00
  7.23425310E-01  7.23425310E-01 -1.44685062E+00  7.23425310E-01  7.23425310E-01
  7.23425310E-01  7.23425310E-01 -1.44685062E+00 -1.46507292E+00  7.23425310E-01
  7.23425310E-01  7.05203010E-01 -1.67827383E+00  7.05203010E-01  5.95869210E-01
  5.95869210E-01  5.95869210E-01  1.48511745E+00 -1.48693968E+00 -1.29560553E+00
 -5.61246840E-01 -1.54160658E+00 -1.56711780E+00 -4.70135340E-01 -1.71289620E+00
 -1.18627173E+00  1.43045055E+00 -5.28446700E-01  2.58756660E+00 -1.76756310E+00
 -2.29600980E+00  2.51467740E+00 -1.76756310E+00 -2.16845370E+00 -7.28892000E-01
  2.53289970E+00 -1.22636079E+00  2.44178820E+00  2.51467740E+00  2.51467740E+00
 -2.15023140E+00 -2.15023140E+00 -6.94269630E-01 -2.36889900E+00  2.46001050E+00
 -2.36889900E+00  2.46001050E+00 -1.39218372E+00  8.96537160E-01  8.96537160E-01
 -2.29600980E+00  2.41445475E+00  2.41445475E+00 -1.44685062E+00  8.23647960E-01
  8.23647960E-01  2.40534360E+00 -1.44685062E+00  7.23425310E-01  7.23425310E-01
 -1.44685062E+00  7.41647610E-01  7.41647610E-01 -1.44685062E+00  7.23425310E-01
  7.23425310E-01 -1.44685062E+00  7.23425310E-01  7.23425310E-01  7.23425310E-01
  7.23425310E-01 -1.44685062E+00 -1.46507292E+00  7.23425310E-01  7.23425310E-01
  7.05203010E-01 -1.67827383E+00  7.05203010E-01  5.95869210E-01  5.95869210E-01
  5.95869210E-01  1.48511745E+00 -1.48693968E+00 -1.29560553E+00 -5.61246840E-01
 -1.54160658E+00 -1.56711780E+00 -4.70135340E-01 -1.71289620E+00 -1.18627173E+00
  1.43045055E+00 -5.28446700E-01  2.58756660E+00 -1.76756310E+00 -2.29600980E+00
  2.51467740E+00 -1.76756310E+00 -2.16845370E+00 -7.28892000E-01  2.53289970E+00
 -1.22636079E+00  2.44178820E+00  2.51467740E+00  2.51467740E+00 -2.15023140E+00
 -2.15023140E+00 -6.94269630E-01 -2.36889900E+00  2.46001050E+00 -2.36889900E+00
  2.46001050E+00 -1.39218372E+00  8.96537160E-01  8.96537160E-01 -2.29600980E+00
  2.41445475E+00  2.41445475E+00 -1.44685062E+00  8.23647960E-01  8.23647960E-01
  2.40534360E+00 -1.44685062E+00  7.23425310E-01  7.23425310E-01 -1.44685062E+00
  7.41647610E-01  7.41647610E-01 -1.44685062E+00  7.23425310E-01  7.23425310E-01
 -1.44685062E+00  7.23425310E-01  7.23425310E-01  7.23425310E-01  7.23425310E-01
 -1.44685062E+00 -1.46507292E+00  7.23425310E-01  7.23425310E-01  7.05203010E-01
 -1.67827383E+00  7.05203010E-01  5.95869210E-01  5.95869210E-01  5.95869210E-01
  1.48511745E+00 -1.48693968E+00 -1.29560553E+00 -5.61246840E-01 -1.54160658E+00
 -1.56711780E+00 -4.70135340E-01 -1.71289620E+00 -1.18627173E+00  1.43045055E+00
 -5.28446700E-01  2.58756660E+00 -1.76756310E+00 -2.29600980E+00  2.51467740E+00
 -1.76756310E+00 -2.16845370E+00 -7.28892000E-01  2.53289970E+00 -1.22636079E+00
  2.44178820E+00  2.51467740E+00  2.51467740E+00 -2.15023140E+00 -2.15023140E+00
 -6.94269630E-01 -2.36889900E+00  2.46001050E+00 -2.36889900E+00  2.46001050E+00
 -1.39218372E+00  8.96537160E-01  8.96537160E-01 -2.29600980E+00  2.41445475E+00
  2.41445475E+00 -1.44685062E+00  8.23647960E-01  8.23647960E-01  2.40534360E+00
 -1.44685062E+00  7.23425310E-01  7.23425310E-01 -1.44685062E+00  7.41647610E-01
  7.41647610E-01 -1.44685062E+00  7.23425310E-01  7.23425310E-01 -1.44685062E+00
  7.23425310E-01  7.23425310E-01  7.23425310E-01  7.23425310E-01 -1.44685062E+00
 -1.46507292E+00  7.23425310E-01  7.23425310E-01  7.05203010E-01 -1.67827383E+00
  7.05203010E-01  5.95869210E-01  5.95869210E-01  5.95869210E-01  1.48511745E+00
 -1.48693968E+00 -1.29560553E+00 -5.61246840E-01 -1.54160658E+00 -1.56711780E+00
 -4.70135340E-01 -1.71289620E+00 -1.18627173E+00  1.43045055E+00 -5.28446700E-01
  2.58756660E+00 -1.76756310E+00 -2.29600980E+00  2.51467740E+00 -1.76756310E+00
 -2.16845370E+00 -7.28892000E-01  2.53289970E+00 -1.22636079E+00  2.44178820E+00
  2.51467740E+00  2.51467740E+00 -2.15023140E+00 -2.15023140E+00 -6.94269630E-01
 -2.36889900E+00  2.46001050E+00 -2.36889900E+00  2.46001050E+00 -1.39218372E+00
  8.96537160E-01  8.96537160E-01 -2.29600980E+00  2.41445475E+00  2.41445475E+00
 -1.44685062E+00  8.23647960E-01  8.23647960E-01  2.40534360E+00 -1.44685062E+00
  7.23425310E-01  7.23425310E-01 -1.44685062E+00  7.41647610E-01  7.41647610E-01
 -1.44685062E+00  7.23425310E-01  7.23425310E-01 -1.44685062E+00  7.23425310E-01
  7.23425310E-01  7.23425310E-01  7.23425310E-01 -1.44685062E+00 -1.46507292E+00
  7.23425310E-01  7.23425310E-01  7.05203010E-01 -1.67827383E+00  7.05203010E-01
  5.95869210E-01  5.95869210E-01  5.95869210E-01  1.48511745E+00 -1.48693968E+00
 -1.29560553E+00 -5.61246840E-01 -1.54160658E+00 -1.56711780E+00 -4.70135340E-01
 -1.71289620E+00 -1.18627173E+00  1.43045055E+00 -5.28446700E-01  2.58756660E+00
 -1.76756310E+00 -2.29600980E+00  2.51467740E+00 -1.76756310E+00 -2.16845370E+00
 -7.28892000E-01  2.53289970E+00 -1.22636079E+00  2.44178820E+00  2.51467740E+00
  2.51467740E+00 -2.15023140E+00 -2.15023140E+00 -6.94269630E-01 -2.36889900E+00
  2.46001050E+00 -2.36889900E+00  2.46001050E+00 -1.39218372E+00  8.96537160E-01
  8.96537160E-01 -2.29600980E+00  2.41445475E+00  2.41445475E+00 -1.44685062E+00
  8.23647960E-01  8.23647960E-01  2.40534360E+00 -1.44685062E+00  7.23425310E-01
  7.23425310E-01 -1.44685062E+00  7.41647610E-01  7.41647610E-01 -1.44685062E+00
  7.23425310E-01  7.23425310E-01 -1.44685062E+00  7.23425310E-01  7.23425310E-01
  7.23425310E-01  7.23425310E-01 -1.44685062E+00 -1.46507292E+00  7.23425310E-01
  7.23425310E-01  7.05203010E-01 -1.67827383E+00  7.05203010E-01  5.95869210E-01
  5.95869210E-01  5.95869210E-01  1.48511745E+00 -1.48693968E+00 -1.29560553E+00
 -5.61246840E-01 -1.54160658E+00 -1.56711780E+00 -4.70135340E-01 -1.71289620E+00
 -1.18627173E+00  1.43045055E+00 -5.28446700E-01  2.58756660E+00 -1.76756310E+00
 -2.29600980E+00  2.51467740E+00 -1.76756310E+00 -2.16845370E+00 -7.28892000E-01
  2.53289970E+00 -1.22636079E+00  2.44178820E+00  2.51467740E+00  2.51467740E+00
 -2.15023140E+00 -2.15023140E+00 -6.94269630E-01 -2.36889900E+00  2.46001050E+00
 -2.36889900E+00  2.46001050E+00 -1.39218372E+00  8.96537160E-01  8.96537160E-01
 -2.29600980E+00  2.41445475E+00  2.41445475E+00 -1.44685062E+00  8.23647960E-01
  8.23647960E-01  2.40534360E+00 -1.44685062E+00  7.23425310E-01  7.23425310E-01
 -1.44685062E+00  7.41647610E-01  7.41647610E-01 -1.44685062E+00  7.23425310E-01
  7.23425310E-01 -1.44685062E+00  7.23425310E-01  7.23425310E-01  7.23425310E-01
  7.23425310E-01 -1.44685062E+00 -1.46507292E+00  7.23425310E-01  7.23425310E-01
  7.05203010E-01 -1.67827383E+00  7.05203010E-01  5.95869210E-01  5.95869210E-01
  5.95869210E-01  1.48511745E+00 -1.48693968E+00 -1.29560553E+00 -5.61246840E-01
 -1.54160658E+00 -1.56711780E+00 -4.70135340E-01 -1.71289620E+00 -1.18627173E+00
  1.43045055E+00 -5.28446700E-01  2.58756660E+00 -1.76756310E+00 -2.29600980E+00
  2.51467740E+00 -1.76756310E+00 -2.16845370E+00 -7.28892000E-01  2.53289970E+00
 -1.22636079E+00  2.44178820E+00  2.51467740E+00  2.51467740E+00 -2.15023140E+00
 -2.15023140E+00 -6.94269630E-01 -2.36889900E+00  2.46001050E+00 -2.36889900E+00
  2.46001050E+00 -1.39218372E+00  8.96537160E-01  8.96537160E-01 -2.29600980E+00
  2.41445475E+00  2.41445475E+00 -1.44685062E+00  8.23647960E-01  8.23647960E-01
  2.40534360E+00 -1.44685062E+00  7.23425310E-01  7.23425310E-01 -1.44685062E+00
  7.41647610E-01  7.41647610E-01 -1.44685062E+00  7.23425310E-01  7.23425310E-01
 -1.44685062E+00  7.23425310E-01  7.23425310E-01  7.23425310E-01  7.23425310E-01
 -1.44685062E+00 -1.46507292E+00  7.23425310E-01  7.23425310E-01  7.05203010E-01
 -1.67827383E+00  7.05203010E-01  5.95869210E-01  5.95869210E-01  5.95869210E-01
  1.48511745E+00 -1.48693968E+00 -1.29560553E+00 -5.61246840E-01 -1.54160658E+00
 -1.56711780E+00 -4.70135340E-01 -1.71289620E+00 -1.18627173E+00  1.43045055E+00
 -5.28446700E-01  2.58756660E+00 -1.76756310E+00 -2.29600980E+00  2.51467740E+00
 -1.76756310E+00 -2.16845370E+00 -7.28892000E-01  2.53289970E+00 -1.22636079E+00
  2.44178820E+00  2.51467740E+00  2.51467740E+00 -2.15023140E+00 -2.15023140E+00
 -6.94269630E-01 -2.36889900E+00  2.46001050E+00 -2.36889900E+00  2.46001050E+00
 -1.39218372E+00  8.96537160E-01  8.96537160E-01 -2.29600980E+00  2.41445475E+00
  2.41445475E+00 -1.44685062E+00  8.23647960E-01  8.23647960E-01  2.40534360E+00
 -1.44685062E+00  7.23425310E-01  7.23425310E-01 -1.44685062E+00  7.41647610E-01
  7.41647610E-01 -1.44685062E+00  7.23425310E-01  7.23425310E-01 -1.44685062E+00
  7.23425310E-01  7.23425310E-01  7.23425310E-01  7.23425310E-01 -1.44685062E+00
 -1.46507292E+00  7.23425310E-01  7.23425310E-01  7.05203010E-01 -1.67827383E+00
  7.05203010E-01  5.95869210E-01  5.95869210E-01  5.95869210E-01  1.48511745E+00
 -1.48693968E+00 -1.29560553E+00 -5.61246840E-01 -1.54160658E+00 -1.56711780E+00
 -4.70135340E-01 -1.71289620E+00 -1.18627173E+00  1.43045055E+00 -5.28446700E-01
  2.58756660E+00 -1.76756310E+00 -2.29600980E+00  2.51467740E+00 -1.76756310E+00
 -2.16845370E+00 -7.28892000E-01  2.53289970E+00 -1.22636079E+00  2.44178820E+00
  2.51467740E+00  2.51467740E+00 -2.15023140E+00 -2.15023140E+00 -6.94269630E-01
 -2.36889900E+00  2.46001050E+00 -2.36889900E+00  2.46001050E+00 -1.39218372E+00
  8.96537160E-01  8.96537160E-01 -2.29600980E+00  2.41445475E+00  2.41445475E+00
 -1.44685062E+00  8.23647960E-01  8.23647960E-01  2.40534360E+00 -1.44685062E+00
  7.23425310E-01  7.23425310E-01 -1.44685062E+00  7.41647610E-01  7.41647610E-01
 -1.44685062E+00  7.23425310E-01  7.23425310E-01 -1.44685062E+00  7.23425310E-01
  7.23425310E-01  7.23425310E-01  7.23425310E-01 -1.44685062E+00 -1.46507292E+00
  7.23425310E-01  7.23425310E-01  7.05203010E-01 -1.67827383E+00  7.05203010E-01
  5.95869210E-01  5.95869210E-01  5.95869210E-01  1.48511745E+00 -1.48693968E+00
 -1.29560553E+00 -5.61246840E-01 -1.54160658E+00 -1.56711780E+00 -4.70135340E-01
 -1.71289620E+00 -1.18627173E+00  1.43045055E+00 -5.28446700E-01  2.58756660E+00
 -1.76756310E+00 -2.29600980E+00  2.51467740E+00 -1.76756310E+00 -2.16845370E+00
 -7.28892000E-01  2.53289970E+00 -1.22636079E+00  2.44178820E+00  2.51467740E+00
  2.51467740E+00 -2.15023140E+00 -2.15023140E+00 -6.94269630E-01 -2.36889900E+00
  2.46001050E+00 -2.36889900E+00  2.46001050E+00 -1.39218372E+00  8.96537160E-01
  8.96537160E-01 -2.29600980E+00  2.41445475E+00  2.41445475E+00 -1.44685062E+00
  8.23647960E-01  8.23647960E-01  2.40534360E+00 -1.44685062E+00  7.23425310E-01
  7.23425310E-01 -1.44685062E+00  7.41647610E-01  7.41647610E-01 -1.44685062E+00
  7.23425310E-01  7.23425310E-01 -1.44685062E+00  7.23425310E-01  7.23425310E-01
  7.23425310E-01  7.23425310E-01 -1.44685062E+00 -1.46507292E+00  7.23425310E-01
  7.23425310E-01  7.05203010E-01 -1.67827383E+00  7.05203010E-01  5.95869210E-01
  5.95869210E-01  5.95869210E-01  1.48511745E+00 -1.48693968E+00 -1.29560553E+00
 -5.61246840E-01 -1.54160658E+00 -1.56711780E+00 -4.70135340E-01 -1.71289620E+00
 -1.18627173E+00  1.43045055E+00 -5.28446700E-01  2.58756660E+00 -1.76756310E+00
 -2.29600980E+00  2.51467740E+00 -1.76756310E+00 -2.16845370E+00 -7.28892000E-01
  2.53289970E+00 -1.22636079E+00  2.44178820E+00  2.51467740E+00  2.51467740E+00
 -2.15023140E+00 -2.15023140E+00 -6.94269630E-01 -2.36889900E+00  2.46001050E+00
 -2.36889900E+00  2.46001050E+00 -1.39218372E+00  8.96537160E-01  8.96537160E-01
 -2.29600980E+00  2.41445475E+00  2.41445475E+00 -1.44685062E+00  8.23647960E-01
  8.23647960E-01  2.40534360E+00 -1.44685062E+00  7.23425310E-01  7.23425310E-01
 -1.44685062E+00  7.41647610E-01  7.41647610E-01 -1.44685062E+00  7.23425310E-01
  7.23425310E-01 -1.44685062E+00  7.23425310E-01  7.23425310E-01  7.23425310E-01
  7.23425310E-01 -1.44685062E+00 -1.46507292E+00  7.23425310E-01  7.23425310E-01
  7.05203010E-01 -1.67827383E+00  7.05203010E-01  5.95869210E-01  5.95869210E-01
  5.95869210E-01  1.48511745E+00 -1.48693968E+00 -1.29560553E+00 -5.61246840E-01
 -1.54160658E+00 -1.56711780E+00 -4.70135340E-01 -1.71289620E+00 -1.18627173E+00
  1.43045055E+00 -5.28446700E-01  2.58756660E+00 -1.76756310E+00 -2.29600980E+00
  2.51467740E+00 -1.76756310E+00 -2.16845370E+00 -7.28892000E-01  2.53289970E+00
 -1.22636079E+00  2.44178820E+00  2.51467740E+00  2.51467740E+00 -2.15023140E+00
 -2.15023140E+00 -6.94269630E-01 -2.36889900E+00  2.46001050E+00 -2.36889900E+00
  2.46001050E+00 -1.39218372E+00  8.96537160E-01  8.96537160E-01 -2.29600980E+00
  2.41445475E+00  2.41445475E+00 -1.44685062E+00  8.23647960E-01  8.23647960E-01
  2.40534360E+00 -1.44685062E+00  7.23425310E-01  7.23425310E-01 -1.44685062E+00
  7.41647610E-01  7.41647610E-01 -1.44685062E+00  7.23425310E-01  7.23425310E-01
 -1.44685062E+00  7.23425310E-01  7.23425310E-01  7.23425310E-01  7.23425310E-01
 -1.44685062E+00 -1.46507292E+00  7.23425310E-01  7.23425310E-01  7.05203010E-01
 -1.67827383E+00  7.05203010E-01  5.95869210E-01  5.95869210E-01  5.95869210E-01
  1.48511745E+00 -1.48693968E+00 -1.29560553E+00 -5.61246840E-01 -1.54160658E+00
 -1.56711780E+00 -4.70135340E-01 -1.71289620E+00 -1.18627173E+00  1.43045055E+00
 -5.28446700E-01  2.58756660E+00 -1.76756310E+00 -2.29600980E+00  2.51467740E+00
 -1.76756310E+00 -2.16845370E+00 -7.28892000E-01  2.53289970E+00 -1.22636079E+00
  2.44178820E+00  2.51467740E+00  2.51467740E+00 -2.15023140E+00 -2.15023140E+00
 -6.94269630E-01 -2.36889900E+00  2.46001050E+00 -2.36889900E+00  2.46001050E+00
 -1.39218372E+00  8.96537160E-01  8.96537160E-01 -2.29600980E+00  2.41445475E+00
  2.41445475E+00 -1.44685062E+00  8.23647960E-01  8.23647960E-01  2.40534360E+00
 -1.44685062E+00  7.23425310E-01  7.23425310E-01 -1.44685062E+00  7.41647610E-01
  7.41647610E-01 -1.44685062E+00  7.23425310E-01  7.23425310E-01 -1.44685062E+00
  7.23425310E-01  7.23425310E-01  7.23425310E-01  7.23425310E-01 -1.44685062E+00
 -1.46507292E+00  7.23425310E-01  7.23425310E-01  7.05203010E-01 -1.67827383E+00
  7.05203010E-01  5.95869210E-01  5.95869210E-01  5.95869210E-01  1.48511745E+00
 -1.48693968E+00 -1.29560553E+00 -5.61246840E-01 -1.54160658E+00 -1.56711780E+00
 -4.70135340E-01 -1.71289620E+00 -1.18627173E+00  1.43045055E+00 -5.28446700E-01
  2.58756660E+00 -1.76756310E+00 -2.29600980E+00  2.51467740E+00 -1.76756310E+00
 -2.16845370E+00 -7.28892000E-01  2.53289970E+00 -1.22636079E+00  2.44178820E+00
  2.51467740E+00  2.51467740E+00 -2.15023140E+00 -2.15023140E+00 -6.94269630E-01
 -2.36889900E+00  2.46001050E+00 -2.36889900E+00  2.46001050E+00 -1.39218372E+00
  8.96537160E-01  8.96537160E-01 -2.29600980E+00  2.41445475E+00  2.41445475E+00
 -1.44685062E+00  8.23647960E-01  8.23647960E-01  2.40534360E+00 -1.44685062E+00
  7.23425310E-01  7.23425310E-01 -1.44685062E+00  7.41647610E-01  7.41647610E-01
 -1.44685062E+00  7.23425310E-01  7.23425310E-01 -1.44685062E+00  7.23425310E-01
  7.23425310E-01  7.23425310E-01  7.23425310E-01 -1.44685062E+00 -1.46507292E+00
  7.23425310E-01  7.23425310E-01  7.05203010E-01 -1.67827383E+00  7.05203010E-01
  5.95869210E-01  5.95869210E-01  5.95869210E-01  1.48511745E+00 -1.48693968E+00
 -1.29560553E+00 -5.61246840E-01 -1.54160658E+00 -1.56711780E+00 -4.70135340E-01
 -1.71289620E+00 -1.18627173E+00  1.43045055E+00 -5.28446700E-01  2.58756660E+00
 -1.76756310E+00 -2.29600980E+00  2.51467740E+00 -1.76756310E+00 -2.16845370E+00
 -7.28892000E-01  2.53289970E+00 -1.22636079E+00  2.44178820E+00  2.51467740E+00
  2.51467740E+00 -2.15023140E+00 -2.15023140E+00 -6.94269630E-01 -2.36889900E+00
  2.46001050E+00 -2.36889900E+00  2.46001050E+00 -1.39218372E+00  8.96537160E-01
  8.96537160E-01 -2.29600980E+00  2.41445475E+00  2.41445475E+00 -1.44685062E+00
  8.23647960E-01  8.23647960E-01  2.40534360E+00 -1.44685062E+00  7.23425310E-01
  7.23425310E-01 -1.44685062E+00  7.41647610E-01  7.41647610E-01 -1.44685062E+00
  7.23425310E-01  7.23425310E-01 -1.44685062E+00  7.23425310E-01  7.23425310E-01
  7.23425310E-01  7.23425310E-01 -1.44685062E+00 -1.46507292E+00  7.23425310E-01
  7.23425310E-01  7.05203010E-01 -1.67827383E+00  7.05203010E-01  5.95869210E-01
  5.95869210E-01  5.95869210E-01  1.48511745E+00 -1.48693968E+00 -1.29560553E+00
 -5.61246840E-01 -1.54160658E+00 -1.56711780E+00 -4.70135340E-01 -1.71289620E+00
 -1.18627173E+00  1.43045055E+00 -5.28446700E-01  2.58756660E+00 -1.76756310E+00
 -2.29600980E+00  2.51467740E+00 -1.76756310E+00 -2.16845370E+00 -7.28892000E-01
  2.53289970E+00 -1.22636079E+00  2.44178820E+00  2.51467740E+00  2.51467740E+00
 -2.15023140E+00 -2.15023140E+00 -6.94269630E-01 -2.36889900E+00  2.46001050E+00
 -2.36889900E+00  2.46001050E+00 -1.39218372E+00  8.96537160E-01  8.96537160E-01
 -2.29600980E+00  2.41445475E+00  2.41445475E+00 -1.44685062E+00  8.23647960E-01
  8.23647960E-01  2.40534360E+00 -1.44685062E+00  7.23425310E-01  7.23425310E-01
 -1.44685062E+00  7.41647610E-01  7.41647610E-01 -1.44685062E+00  7.23425310E-01
  7.23425310E-01 -1.44685062E+00  7.23425310E-01  7.23425310E-01  7.23425310E-01
  7.23425310E-01 -1.44685062E+00 -1.46507292E+00  7.23425310E-01  7.23425310E-01
  7.05203010E-01 -1.67827383E+00  7.05203010E-01  5.95869210E-01  5.95869210E-01
  5.95869210E-01  1.48511745E+00 -1.48693968E+00 -1.29560553E+00 -5.61246840E-01
 -1.54160658E+00 -1.56711780E+00 -4.70135340E-01 -1.71289620E+00 -1.18627173E+00
  1.43045055E+00 -5.28446700E-01  2.58756660E+00 -1.76756310E+00 -2.29600980E+00
  2.51467740E+00 -1.76756310E+00 -2.16845370E+00 -7.28892000E-01  2.53289970E+00
 -1.22636079E+00  2.44178820E+00  2.51467740E+00  2.51467740E+00 -2.15023140E+00
 -2.15023140E+00 -6.94269630E-01 -2.36889900E+00  2.46001050E+00 -2.36889900E+00
  2.46001050E+00 -1.39218372E+00  8.96537160E-01  8.96537160E-01 -2.29600980E+00
  2.41445475E+00  2.41445475E+00 -1.44685062E+00  8.23647960E-01  8.23647960E-01
  2.40534360E+00 -1.44685062E+00  7.23425310E-01  7.23425310E-01 -1.44685062E+00
  7.41647610E-01  7.41647610E-01 -1.44685062E+00  7.23425310E-01  7.23425310E-01
 -1.44685062E+00  7.23425310E-01  7.23425310E-01  7.23425310E-01  7.23425310E-01
 -1.44685062E+00 -1.46507292E+00  7.23425310E-01  7.23425310E-01  7.05203010E-01
 -1.67827383E+00  7.05203010E-01  5.95869210E-01  5.95869210E-01  5.95869210E-01
  1.48511745E+00 -1.48693968E+00 -1.29560553E+00 -5.61246840E-01 -1.54160658E+00
 -1.56711780E+00 -4.70135340E-01 -1.71289620E+00 -1.18627173E+00  1.43045055E+00
 -5.28446700E-01  2.58756660E+00 -1.76756310E+00 -2.29600980E+00  2.51467740E+00
 -1.76756310E+00 -2.16845370E+00 -7.28892000E-01  2.53289970E+00 -1.22636079E+00
  2.44178820E+00  2.51467740E+00  2.51467740E+00 -2.15023140E+00 -2.15023140E+00
 -6.94269630E-01 -2.36889900E+00  2.46001050E+00 -2.36889900E+00  2.46001050E+00
 -1.39218372E+00  8.96537160E-01  8.96537160E-01 -2.29600980E+00  2.41445475E+00
  2.41445475E+00 -1.44685062E+00  8.23647960E-01  8.23647960E-01  2.40534360E+00
 -1.44685062E+00  7.23425310E-01  7.23425310E-01 -1.44685062E+00  7.41647610E-01
  7.41647610E-01 -1.44685062E+00  7.23425310E-01  7.23425310E-01 -1.44685062E+00
  7.23425310E-01  7.23425310E-01  7.23425310E-01  7.23425310E-01 -1.44685062E+00
 -1.46507292E+00  7.23425310E-01  7.23425310E-01  7.05203010E-01 -1.67827383E+00
  7.05203010E-01  5.95869210E-01  5.95869210E-01  5.95869210E-01  1.48511745E+00
 -1.48693968E+00 -1.29560553E+00 -5.61246840E-01 -1.54160658E+00 -1.56711780E+00
 -4.70135340E-01 -1.71289620E+00 -1.18627173E+00  1.43045055E+00 -5.28446700E-01
  2.58756660E+00 -1.76756310E+00 -2.29600980E+00  2.51467740E+00 -1.76756310E+00
 -2.16845370E+00 -7.28892000E-01  2.53289970E+00 -1.22636079E+00  2.44178820E+00
  2.51467740E+00  2.51467740E+00 -2.15023140E+00 -2.15023140E+00 -6.94269630E-01
 -2.36889900E+00  2.46001050E+00 -2.36889900E+00  2.46001050E+00 -1.39218372E+00
  8.96537160E-01  8.96537160E-01 -2.29600980E+00  2.41445475E+00  2.41445475E+00
 -1.44685062E+00  8.23647960E-01  8.23647960E-01  2.40534360E+00 -1.44685062E+00
  7.23425310E-01  7.23425310E-01 -1.44685062E+00  7.41647610E-01  7.41647610E-01
 -1.44685062E+00  7.23425310E-01  7.23425310E-01 -1.44685062E+00  7.23425310E-01
  7.23425310E-01  7.23425310E-01  7.23425310E-01 -1.44685062E+00 -1.46507292E+00
  7.23425310E-01  7.23425310E-01  7.05203010E-01 -1.67827383E+00  7.05203010E-01
  5.95869210E-01  5.95869210E-01  5.95869210E-01  1.48511745E+00 -1.48693968E+00
 -1.29560553E+00 -5.61246840E-01 -1.54160658E+00 -1.56711780E+00 -4.70135340E-01
 -1.71289620E+00 -1.18627173E+00  1.43045055E+00 -5.28446700E-01  2.58756660E+00
 -1.76756310E+00 -2.29600980E+00  2.51467740E+00 -1.76756310E+00 -2.16845370E+00
 -7.28892000E-01  2.53289970E+00 -1.22636079E+00  2.44178820E+00  2.51467740E+00
  2.51467740E+00 -2.15023140E+00 -2.15023140E+00 -6.94269630E-01 -2.36889900E+00
  2.46001050E+00 -2.36889900E+00  2.46001050E+00 -1.39218372E+00  8.96537160E-01
  8.96537160E-01 -2.29600980E+00  2.41445475E+00  2.41445475E+00 -1.44685062E+00
  8.23647960E-01  8.23647960E-01  2.40534360E+00 -1.44685062E+00  7.23425310E-01
  7.23425310E-01 -1.44685062E+00  7.41647610E-01  7.41647610E-01 -1.44685062E+00
  7.23425310E-01  7.23425310E-01 -1.44685062E+00  7.23425310E-01  7.23425310E-01
  7.23425310E-01  7.23425310E-01 -1.44685062E+00 -1.46507292E+00  7.23425310E-01
  7.23425310E-01  7.05203010E-01 -1.67827383E+00  7.05203010E-01  5.95869210E-01
  5.95869210E-01  5.95869210E-01  1.48511745E+00 -1.48693968E+00 -1.29560553E+00
 -5.61246840E-01 -1.54160658E+00 -1.56711780E+00 -4.70135340E-01 -1.71289620E+00
 -1.18627173E+00  1.43045055E+00 -5.28446700E-01  2.58756660E+00 -1.76756310E+00
 -2.29600980E+00  2.51467740E+00 -1.76756310E+00 -2.16845370E+00 -7.28892000E-01
  2.53289970E+00 -1.22636079E+00  2.44178820E+00  2.51467740E+00  2.51467740E+00
 -2.15023140E+00 -2.15023140E+00 -6.94269630E-01 -2.36889900E+00  2.46001050E+00
 -2.36889900E+00  2.46001050E+00 -1.39218372E+00  8.96537160E-01  8.96537160E-01
 -2.29600980E+00  2.41445475E+00  2.41445475E+00 -1.44685062E+00  8.23647960E-01
  8.23647960E-01  2.40534360E+00 -1.44685062E+00  7.23425310E-01  7.23425310E-01
 -1.44685062E+00  7.41647610E-01  7.41647610E-01 -1.44685062E+00  7.23425310E-01
  7.23425310E-01 -1.44685062E+00  7.23425310E-01  7.23425310E-01  7.23425310E-01
  7.23425310E-01 -1.44685062E+00 -1.46507292E+00  7.23425310E-01  7.23425310E-01
  7.05203010E-01 -1.67827383E+00  7.05203010E-01  5.95869210E-01  5.95869210E-01
  5.95869210E-01  1.48511745E+00 -1.48693968E+00 -1.29560553E+00 -5.61246840E-01
 -1.54160658E+00 -1.56711780E+00 -4.70135340E-01 -1.71289620E+00 -1.18627173E+00
  1.43045055E+00 -5.28446700E-01  2.58756660E+00 -1.76756310E+00 -2.29600980E+00
  2.51467740E+00 -1.76756310E+00 -2.16845370E+00 -7.28892000E-01  2.53289970E+00
 -1.22636079E+00  2.44178820E+00  2.51467740E+00  2.51467740E+00 -2.15023140E+00
 -2.15023140E+00 -6.94269630E-01 -2.36889900E+00  2.46001050E+00 -2.36889900E+00
  2.46001050E+00 -1.39218372E+00  8.96537160E-01  8.96537160E-01 -2.29600980E+00
  2.41445475E+00  2.41445475E+00 -1.44685062E+00  8.23647960E-01  8.23647960E-01
  2.40534360E+00 -1.44685062E+00  7.23425310E-01  7.23425310E-01 -1.44685062E+00
  7.41647610E-01  7.41647610E-01 -1.44685062E+00  7.23425310E-01  7.23425310E-01
 -1.44685062E+00  7.23425310E-01  7.23425310E-01  7.23425310E-01  7.23425310E-01
 -1.44685062E+00 -1.46507292E+00  7.23425310E-01  7.23425310E-01  7.05203010E-01
 -1.67827383E+00  7.05203010E-01  5.95869210E-01  5.95869210E-01  5.95869210E-01
  1.48511745E+00 -1.48693968E+00 -1.29560553E+00 -5.61246840E-01 -1.54160658E+00
 -1.56711780E+00 -4.70135340E-01 -1.71289620E+00 -1.18627173E+00  1.43045055E+00
 -5.28446700E-01  2.58756660E+00 -1.76756310E+00 -2.29600980E+00  2.51467740E+00
 -1.76756310E+00 -2.16845370E+00 -7.28892000E-01  2.53289970E+00 -1.22636079E+00
  2.44178820E+00  2.51467740E+00  2.51467740E+00 -2.15023140E+00 -2.15023140E+00
 -6.94269630E-01 -2.36889900E+00  2.46001050E+00 -2.36889900E+00  2.46001050E+00
 -1.39218372E+00  8.96537160E-01  8.96537160E-01 -2.29600980E+00  2.41445475E+00
  2.41445475E+00 -1.44685062E+00  8.23647960E-01  8.23647960E-01  2.40534360E+00
 -1.44685062E+00  7.23425310E-01  7.23425310E-01 -1.44685062E+00  7.41647610E-01
  7.41647610E-01 -1.44685062E+00  7.23425310E-01  7.23425310E-01 -1.44685062E+00
  7.23425310E-01  7.23425310E-01  7.23425310E-01  7.23425310E-01 -1.44685062E+00
 -1.46507292E+00  7.23425310E-01  7.23425310E-01  7.05203010E-01 -1.67827383E+00
  7.05203010E-01  5.95869210E-01  5.95869210E-01  5.95869210E-01  1.48511745E+00
 -1.48693968E+00 -1.29560553E+00 -5.61246840E-01 -1.54160658E+00 -1.56711780E+00
 -4.70135340E-01 -1.71289620E+00 -1.18627173E+00  1.43045055E+00 -5.28446700E-01
  2.58756660E+00 -1.76756310E+00 -2.29600980E+00  2.51467740E+00 -1.76756310E+00
 -2.16845370E+00 -7.28892000E-01  2.53289970E+00 -1.22636079E+00  2.44178820E+00
  2.51467740E+00  2.51467740E+00 -2.15023140E+00 -2.15023140E+00 -6.94269630E-01
 -2.36889900E+00  2.46001050E+00 -2.36889900E+00  2.46001050E+00 -1.39218372E+00
  8.96537160E-01  8.96537160E-01 -2.29600980E+00  2.41445475E+00  2.41445475E+00
 -1.44685062E+00  8.23647960E-01  8.23647960E-01  2.40534360E+00 -1.44685062E+00
  7.23425310E-01  7.23425310E-01 -1.44685062E+00  7.41647610E-01  7.41647610E-01
 -1.44685062E+00  7.23425310E-01  7.23425310E-01 -1.44685062E+00  7.23425310E-01
  7.23425310E-01  7.23425310E-01  7.23425310E-01 -1.44685062E+00 -1.46507292E+00
  7.23425310E-01  7.23425310E-01  7.05203010E-01 -1.67827383E+00  7.05203010E-01
  5.95869210E-01  5.95869210E-01  5.95869210E-01  1.48511745E+00 -1.48693968E+00
 -1.29560553E+00 -5.61246840E-01 -1.54160658E+00 -1.56711780E+00 -4.70135340E-01
 -1.71289620E+00 -1.18627173E+00  1.43045055E+00 -5.28446700E-01  2.58756660E+00
 -1.76756310E+00 -2.29600980E+00  2.51467740E+00 -1.76756310E+00 -2.16845370E+00
 -7.28892000E-01  2.53289970E+00 -1.22636079E+00  2.44178820E+00  2.51467740E+00
  2.51467740E+00 -2.15023140E+00 -2.15023140E+00 -6.94269630E-01 -2.36889900E+00
  2.46001050E+00 -2.36889900E+00  2.46001050E+00 -1.39218372E+00  8.96537160E-01
  8.96537160E-01 -2.29600980E+00  2.41445475E+00  2.41445475E+00 -1.44685062E+00
  8.23647960E-01  8.23647960E-01  2.40534360E+00 -1.44685062E+00  7.23425310E-01
  7.23425310E-01 -1.44685062E+00  7.41647610E-01  7.41647610E-01 -1.44685062E+00
  7.23425310E-01  7.23425310E-01 -1.44685062E+00  7.23425310E-01  7.23425310E-01
  7.23425310E-01  7.23425310E-01 -1.44685062E+00 -1.46507292E+00  7.23425310E-01
  7.23425310E-01  7.05203010E-01 -1.67827383E+00  7.05203010E-01  5.95869210E-01
  5.95869210E-01  5.95869210E-01  1.48511745E+00 -1.48693968E+00 -1.29560553E+00
 -5.61246840E-01 -1.54160658E+00 -1.56711780E+00 -4.70135340E-01 -1.71289620E+00
 -1.18627173E+00  1.43045055E+00 -5.28446700E-01  2.58756660E+00 -1.76756310E+00
 -2.29600980E+00  2.51467740E+00 -1.76756310E+00 -2.16845370E+00 -7.28892000E-01
  2.53289970E+00 -1.22636079E+00  2.44178820E+00  2.51467740E+00  2.51467740E+00
 -2.15023140E+00 -2.15023140E+00 -6.94269630E-01 -2.36889900E+00  2.46001050E+00
 -2.36889900E+00  2.46001050E+00 -1.39218372E+00  8.96537160E-01  8.96537160E-01
 -2.29600980E+00  2.41445475E+00  2.41445475E+00 -1.44685062E+00  8.23647960E-01
  8.23647960E-01  2.40534360E+00 -1.44685062E+00  7.23425310E-01  7.23425310E-01
 -1.44685062E+00  7.41647610E-01  7.41647610E-01 -1.44685062E+00  7.23425310E-01
  7.23425310E-01 -1.44685062E+00  7.23425310E-01  7.23425310E-01  7.23425310E-01
  7.23425310E-01 -1.44685062E+00 -1.46507292E+00  7.23425310E-01  7.23425310E-01
  7.05203010E-01 -1.67827383E+00  7.05203010E-01  5.95869210E-01  5.95869210E-01
  5.95869210E-01  1.48511745E+00 -1.48693968E+00 -1.29560553E+00 -5.61246840E-01
 -1.54160658E+00 -1.56711780E+00 -4.70135340E-01 -1.71289620E+00 -1.18627173E+00
  1.43045055E+00 -5.28446700E-01  2.58756660E+00 -1.76756310E+00 -2.29600980E+00
  2.51467740E+00 -1.76756310E+00 -2.16845370E+00 -7.28892000E-01  2.53289970E+00
 -1.22636079E+00  2.44178820E+00  2.51467740E+00  2.51467740E+00 -2.15023140E+00
 -2.15023140E+00 -6.94269630E-01 -2.36889900E+00  2.46001050E+00 -2.36889900E+00
  2.46001050E+00 -1.39218372E+00  8.96537160E-01  8.96537160E-01 -2.29600980E+00
  2.41445475E+00  2.41445475E+00 -1.44685062E+00  8.23647960E-01  8.23647960E-01
  2.40534360E+00 -1.44685062E+00  7.23425310E-01  7.23425310E-01 -1.44685062E+00
  7.41647610E-01  7.41647610E-01 -1.44685062E+00  7.23425310E-01  7.23425310E-01
 -1.44685062E+00  7.23425310E-01  7.23425310E-01  7.23425310E-01  7.23425310E-01
 -1.44685062E+00 -1.46507292E+00  7.23425310E-01  7.23425310E-01  7.05203010E-01
 -1.67827383E+00  7.05203010E-01  5.95869210E-01  5.95869210E-01  5.95869210E-01
  1.48511745E+00 -1.48693968E+00 -1.29560553E+00 -5.61246840E-01 -1.54160658E+00
 -1.56711780E+00 -4.70135340E-01 -1.71289620E+00 -1.18627173E+00  1.43045055E+00
 -5.28446700E-01  2.58756660E+00 -1.76756310E+00 -2.29600980E+00  2.51467740E+00
 -1.76756310E+00 -2.16845370E+00 -7.28892000E-01  2.53289970E+00 -1.22636079E+00
  2.44178820E+00  2.51467740E+00  2.51467740E+00 -2.15023140E+00 -2.15023140E+00
 -6.94269630E-01 -2.36889900E+00  2.46001050E+00 -2.36889900E+00  2.46001050E+00
 -1.39218372E+00  8.96537160E-01  8.96537160E-01 -2.29600980E+00  2.41445475E+00
  2.41445475E+00 -1.44685062E+00  8.23647960E-01  8.23647960E-01  2.40534360E+00
 -1.44685062E+00  7.23425310E-01  7.23425310E-01 -1.44685062E+00  7.41647610E-01
  7.41647610E-01 -1.44685062E+00  7.23425310E-01  7.23425310E-01 -1.44685062E+00
  7.23425310E-01  7.23425310E-01  7.23425310E-01  7.23425310E-01 -1.44685062E+00
 -1.46507292E+00  7.23425310E-01  7.23425310E-01  7.05203010E-01 -1.67827383E+00
  7.05203010E-01  5.95869210E-01  5.95869210E-01  5.95869210E-01  1.48511745E+00
 -1.48693968E+00 -1.29560553E+00 -5.61246840E-01 -1.54160658E+00 -1.56711780E+00
 -4.70135340E-01 -1.71289620E+00 -1.18627173E+00  1.43045055E+00 -5.28446700E-01
  2.58756660E+00 -1.76756310E+00 -2.29600980E+00  2.51467740E+00 -1.76756310E+00
 -2.16845370E+00 -7.28892000E-01  2.53289970E+00 -1.22636079E+00  2.44178820E+00
  2.51467740E+00  2.51467740E+00 -2.15023140E+00 -2.15023140E+00 -6.94269630E-01
 -2.36889900E+00  2.46001050E+00 -2.36889900E+00  2.46001050E+00 -1.39218372E+00
  8.96537160E-01  8.96537160E-01 -2.29600980E+00  2.41445475E+00  2.41445475E+00
 -1.44685062E+00  8.23647960E-01  8.23647960E-01  2.40534360E+00 -1.44685062E+00
  7.23425310E-01  7.23425310E-01 -1.44685062E+00  7.41647610E-01  7.41647610E-01
 -1.44685062E+00  7.23425310E-01  7.23425310E-01 -1.44685062E+00  7.23425310E-01
  7.23425310E-01  7.23425310E-01  7.23425310E-01 -1.44685062E+00 -1.46507292E+00
  7.23425310E-01  7.23425310E-01  7.05203010E-01 -1.67827383E+00  7.05203010E-01
  5.95869210E-01  5.95869210E-01  5.95869210E-01  1.48511745E+00 -1.48693968E+00
 -1.29560553E+00 -5.61246840E-01 -1.54160658E+00 -1.56711780E+00 -4.70135340E-01
 -1.71289620E+00 -1.18627173E+00  1.43045055E+00 -5.28446700E-01  2.58756660E+00
 -1.76756310E+00 -2.29600980E+00  2.51467740E+00 -1.76756310E+00 -2.16845370E+00
 -7.28892000E-01  2.53289970E+00 -1.22636079E+00  2.44178820E+00  2.51467740E+00
  2.51467740E+00 -2.15023140E+00 -2.15023140E+00 -6.94269630E-01 -2.36889900E+00
  2.46001050E+00 -2.36889900E+00  2.46001050E+00 -1.39218372E+00  8.96537160E-01
  8.96537160E-01 -2.29600980E+00  2.41445475E+00  2.41445475E+00 -1.44685062E+00
  8.23647960E-01  8.23647960E-01  2.40534360E+00 -1.44685062E+00  7.23425310E-01
  7.23425310E-01 -1.44685062E+00  7.41647610E-01  7.41647610E-01 -1.44685062E+00
  7.23425310E-01  7.23425310E-01 -1.44685062E+00  7.23425310E-01  7.23425310E-01
  7.23425310E-01  7.23425310E-01 -1.44685062E+00 -1.46507292E+00  7.23425310E-01
  7.23425310E-01  7.05203010E-01 -1.67827383E+00  7.05203010E-01  5.95869210E-01
  5.95869210E-01  5.95869210E-01  1.48511745E+00 -1.48693968E+00 -1.29560553E+00
 -5.61246840E-01 -1.54160658E+00 -1.56711780E+00 -4.70135340E-01 -1.71289620E+00
 -1.18627173E+00  1.43045055E+00 -5.28446700E-01  2.58756660E+00 -1.76756310E+00
 -2.29600980E+00  2.51467740E+00 -1.76756310E+00 -2.16845370E+00 -7.28892000E-01
  2.53289970E+00 -1.22636079E+00  2.44178820E+00  2.51467740E+00  2.51467740E+00
 -2.15023140E+00 -2.15023140E+00 -6.94269630E-01 -2.36889900E+00  2.46001050E+00
 -2.36889900E+00  2.46001050E+00 -1.39218372E+00  8.96537160E-01  8.96537160E-01
 -2.29600980E+00  2.41445475E+00  2.41445475E+00 -1.44685062E+00  8.23647960E-01
  8.23647960E-01  2.40534360E+00 -1.44685062E+00  7.23425310E-01  7.23425310E-01
 -1.44685062E+00  7.41647610E-01  7.41647610E-01 -1.44685062E+00  7.23425310E-01
  7.23425310E-01 -1.44685062E+00  7.23425310E-01  7.23425310E-01  7.23425310E-01
  7.23425310E-01 -1.44685062E+00 -1.46507292E+00  7.23425310E-01  7.23425310E-01
  7.05203010E-01 -1.67827383E+00  7.05203010E-01  5.95869210E-01  5.95869210E-01
  5.95869210E-01  1.48511745E+00 -1.48693968E+00 -1.29560553E+00 -5.61246840E-01
 -1.54160658E+00 -1.56711780E+00 -4.70135340E-01 -1.71289620E+00 -1.18627173E+00
  1.43045055E+00 -5.28446700E-01  2.58756660E+00 -1.76756310E+00 -2.29600980E+00
  2.51467740E+00 -1.76756310E+00 -2.16845370E+00 -7.28892000E-01  2.53289970E+00
 -1.22636079E+00  2.44178820E+00  2.51467740E+00  2.51467740E+00 -2.15023140E+00
 -2.15023140E+00 -6.94269630E-01 -2.36889900E+00  2.46001050E+00 -2.36889900E+00
  2.46001050E+00 -1.39218372E+00  8.96537160E-01  8.96537160E-01 -2.29600980E+00
  2.41445475E+00  2.41445475E+00 -1.44685062E+00  8.23647960E-01  8.23647960E-01
  2.40534360E+00 -1.44685062E+00  7.23425310E-01  7.23425310E-01 -1.44685062E+00
  7.41647610E-01  7.41647610E-01 -1.44685062E+00  7.23425310E-01  7.23425310E-01
 -1.44685062E+00  7.23425310E-01  7.23425310E-01  7.23425310E-01  7.23425310E-01
 -1.44685062E+00 -1.46507292E+00  7.23425310E-01  7.23425310E-01  7.05203010E-01
 -1.67827383E+00  7.05203010E-01  5.95869210E-01  5.95869210E-01  5.95869210E-01
  1.48511745E+00 -1.48693968E+00 -1.29560553E+00 -5.61246840E-01 -1.54160658E+00
 -1.56711780E+00 -4.70135340E-01 -1.71289620E+00 -1.18627173E+00  1.43045055E+00
 -5.28446700E-01  2.58756660E+00 -1.76756310E+00 -2.29600980E+00  2.51467740E+00
 -1.76756310E+00 -2.16845370E+00 -7.28892000E-01  2.53289970E+00 -1.22636079E+00
  2.44178820E+00  2.51467740E+00  2.51467740E+00 -2.15023140E+00 -2.15023140E+00
 -6.94269630E-01 -2.36889900E+00  2.46001050E+00 -2.36889900E+00  2.46001050E+00
 -1.39218372E+00  8.96537160E-01  8.96537160E-01 -2.29600980E+00  2.41445475E+00
  2.41445475E+00 -1.44685062E+00  8.23647960E-01  8.23647960E-01  2.40534360E+00
 -1.44685062E+00  7.23425310E-01  7.23425310E-01 -1.44685062E+00  7.41647610E-01
  7.41647610E-01 -1.44685062E+00  7.23425310E-01  7.23425310E-01 -1.44685062E+00
  7.23425310E-01  7.23425310E-01  7.23425310E-01  7.23425310E-01 -1.44685062E+00
 -1.46507292E+00  7.23425310E-01  7.23425310E-01  7.05203010E-01 -1.67827383E+00
  7.05203010E-01  5.95869210E-01  5.95869210E-01  5.95869210E-01  1.48511745E+00
 -1.48693968E+00 -1.29560553E+00 -5.61246840E-01 -1.54160658E+00 -1.56711780E+00
 -4.70135340E-01 -1.71289620E+00 -1.18627173E+00  1.43045055E+00 -5.28446700E-01
  2.58756660E+00 -1.76756310E+00 -2.29600980E+00  2.51467740E+00 -1.76756310E+00
 -2.16845370E+00 -7.28892000E-01  2.53289970E+00 -1.22636079E+00  2.44178820E+00
  2.51467740E+00  2.51467740E+00 -2.15023140E+00 -2.15023140E+00 -6.94269630E-01
 -2.36889900E+00  2.46001050E+00 -2.36889900E+00  2.46001050E+00 -1.39218372E+00
  8.96537160E-01  8.96537160E-01 -2.29600980E+00  2.41445475E+00  2.41445475E+00
 -1.44685062E+00  8.23647960E-01  8.23647960E-01  2.40534360E+00 -1.44685062E+00
  7.23425310E-01  7.23425310E-01 -1.44685062E+00  7.41647610E-01  7.41647610E-01
 -1.44685062E+00  7.23425310E-01  7.23425310E-01 -1.44685062E+00  7.23425310E-01
  7.23425310E-01  7.23425310E-01  7.23425310E-01 -1.44685062E+00 -1.46507292E+00
  7.23425310E-01  7.23425310E-01  7.05203010E-01 -1.67827383E+00  7.05203010E-01
  5.95869210E-01  5.95869210E-01  5.95869210E-01  1.48511745E+00 -1.48693968E+00
 -1.29560553E+00 -5.61246840E-01 -1.54160658E+00 -1.56711780E+00 -4.70135340E-01
 -1.71289620E+00 -1.18627173E+00  1.43045055E+00 -5.28446700E-01  2.58756660E+00
 -1.76756310E+00 -2.29600980E+00  2.51467740E+00 -1.76756310E+00 -2.16845370E+00
 -7.28892000E-01  2.53289970E+00 -1.22636079E+00  2.44178820E+00  2.51467740E+00
  2.51467740E+00 -2.15023140E+00 -2.15023140E+00 -6.94269630E-01 -2.36889900E+00
  2.46001050E+00 -2.36889900E+00  2.46001050E+00 -1.39218372E+00  8.96537160E-01
  8.96537160E-01 -2.29600980E+00  2.41445475E+00  2.41445475E+00 -1.44685062E+00
  8.23647960E-01  8.23647960E-01  2.40534360E+00 -1.44685062E+00  7.23425310E-01
  7.23425310E-01 -1.44685062E+00  7.41647610E-01  7.41647610E-01 -1.44685062E+00
  7.23425310E-01  7.23425310E-01 -1.44685062E+00  7.23425310E-01  7.23425310E-01
  7.23425310E-01  7.23425310E-01 -1.44685062E+00 -1.46507292E+00  7.23425310E-01
  7.23425310E-01  7.05203010E-01 -1.67827383E+00  7.05203010E-01  5.95869210E-01
  5.95869210E-01  5.95869210E-01
%FLAG ATOMIC_NUMBER                                                             
%FORMAT(10I8)                                                                   
      16       6       6       6       6       6       6       6       6      16
       6       1       6       6       1       6       6       6       1       6
       1       1       1       6       6       6       6       1       6       1
       6       1       1       6       1       1       6       1       1       1
       6       1       1       6       1       1       6       1       1       6
       1       1       1       1       6       6       1       1       1       6
       1       1       1       1      16       6       6       6       6       6
       6       6       6      16       6       1       6       6       1       6
       6       6       1       6       1       1       1       6       6       6
       6       1       6       1       6       1       1       6       1       1
       6       1       1       1       6       1       1       6       1       1
       6       1       1       6       1       1       1       1       6       6
       1       1       1       6       1       1       1       1      16       6
       6       6       6       6       6       6       6      16       6       1
       6       6       1       6       6       6       1       6       1       1
       1       6       6       6       6       1       6       1       6       1
       1       6       1       1       6       1       1       1       6       1
       1       6       1       1       6       1       1       6       1       1
       1       1       6       6       1       1       1       6       1       1
       1       1      16       6       6       6       6       6       6       6
       6      16       6       1       6       6       1       6       6       6
       1       6       1       1       1       6       6       6       6       1
       6       1       6       1       1       6       1       1       6       1
       1       1       6       1       1       6       1       1       6       1
       1       6       1       1       1       1       6       6       1       1
       1       6       1       1       1       1      16       6       6       6
       6       6       6       6       6      16       6       1       6       6
       1       6       6       6       1       6       1       1       1       6
       6       6       6       1       6       1       6       1       1       6
       1       1       6       1       1       1       6       1       1       6
       1       1       6       1       1       6       1       1       1       1
       6       6       1       1       1       6       1       1       1       1
      16       6       6       6       6       6       6       6       6      16
       6       1       6       6       1       6       6       6       1       6
       1       1       1       6       6       6       6       1       6       1
       6       1       1       6       1       1       6       1       1       1
       6       1       1       6       1       1       6       1       1       6
       1       1       1       1       6       6       1       1       1       6
       1       1       1       1      16       6       6       6       6       6
       6       6       6      16       6       1       6       6       1       6
       6       6       1       6       1       1       1       6       6       6
       6       1       6       1       6       1       1       6       1       1
       6       1       1       1       6       1       1       6       1       1
       6       1       1       6       1       1       1       1       6       6
       1       1       1       6       1       1       1       1      16       6
       6       6       6       6       6       6       6      16       6       1
       6       6       1       6       6       6       1       6       1       1
       1       6       6       6       6       1       6       1       6       1
       1       6       1       1       6       1       1       1       6       1
       1       6       1       1       6       1       1       6       1       1
       1       1       6       6       1       1       1       6       1       1
       1       1      16       6       6       6       6       6       6       6
       6      16       6       1       6       6       1       6       6       6
       1       6       1       1       1       6       6       6       6       1
       6       1       6       1       1       6       1       1       6       1
       1       1       6       1       1       6       1       1       6       1
       1       6       1       1       1       1       6       6       1       1
       1       6       1       1       1       1      16       6       6       6
       6       6       6       6       6      16       6       1       6       6
       1       6       6       6       1       6       1       1       1       6
       6       6       6       1       6       1       6       1       1       6
       1       1       6       1       1       1       6       1       1       6
       1       1       6       1       1       6       1       1       1       1
       6       6       1       1       1       6       1       1       1       1
      16       6       6       6       6       6       6       6       6      16
       6       1       6       6       1       6       6       6       1       6
       1       1       1       6       6       6       6       1       6       1
       6       1       1       6       1       1       6       1       1       1
       6       1       1       6       1       1       6       1       1       6
       1       1       1       1       6       6       1       1       1       6
       1       1       1       1      16       6       6       6       6       6
       6       6       6      16       6       1       6       6       1       6
       6       6       1       6       1       1       1       6       6       6
       6       1       6       1       6       1       1       6       1       1
       6       1       1       1       6       1       1       6       1       1
       6       1       1       6       1       1       1       1       6       6
       1       1       1       6       1       1       1       1      16       6
       6       6       6       6       6       6       6      16       6       1
       6       6       1       6       6       6       1       6       1       1
       1       6       6       6       6       1       6       1       6       1
       1       6       1       1       6       1       1       1       6       1
       1       6       1       1       6       1       1       6       1       1
       1       1       6       6       1       1       1       6       1       1
       1       1      16       6       6       6       6       6       6       6
       6      16       6       1       6       6       1       6       6       6
       1       6       1       1       1       6       6       6       6       1
       6       1       6       1       1       6       1       1       6       1
       1       1       6       1       1       6       1       1       6       1
       1       6       1       1       1       1       6       6       1       1
       1       6       1       1       1       1      16       6       6       6
       6       6       6       6       6      16       6       1       6       6
       1       6       6       6       1       6       1       1       1       6
       6       6       6       1       6       1       6       1       1       6
       1       1       6       1       1       1       6       1       1       6
       1       1       6       1       1       6       1       1       1       1
       6       6       1       1       1       6       1       1       1       1
      16       6       6       6       6       6       6       6       6      16
       6       1       6       6       1       6       6       6       1       6
       1       1       1       6       6       6       6       1       6       1
       6       1       1       6       1       1       6       1       1       1
       6       1       1       6       1       1       6       1       1       6
       1       1       1       1       6       6       1       1       1       6
       1       1       1       1      16       6       6       6       6       6
       6       6       6      16       6       1       6       6       1       6
       6       6       1       6       1       1       1       6       6       6
       6       1       6       1       6       1       1       6       1       1
       6       1       1       1       6       1       1       6       1       1
       6       1       1       6       1       1       1       1       6       6
       1       1       1       6       1       1       1       1      16       6
       6       6       6       6       6       6       6      16       6       1
       6       6       1       6       6       6       1       6       1       1
       1       6       6       6       6       1       6       1       6       1
       1       6       1       1       6       1       1       1       6       1
       1       6       1       1       6       1       1       6       1       1
       1       1       6       6       1       1       1       6       1       1
       1       1      16       6       6       6       6       6       6       6
       6      16       6       1       6       6       1       6       6       6
       1       6       1       1       1       6       6       6       6       1
       6       1       6       1       1       6       1       1       6       1
       1       1       6       1       1       6       1       1       6       1
       1       6       1       1       1       1       6       6       1       1
       1       6       1       1       1       1      16       6       6       6
       6       6       6       6       6      16       6       1       6       6
       1       6       6       6       1       6       1       1       1       6
       6       6       6       1       6       1       6       1       1       6
       1       1       6       1       1       1       6       1       1       6
       1       1       6       1       1       6       1       1       1       1
       6       6       1       1       1       6       1       1       1       1
      16       6       6       6       6       6       6       6       6      16
       6       1       6       6       1       6       6       6       1       6
       1       1       1       6       6       6       6       1       6       1
       6       1       1       6       1       1       6       1       1       1
       6       1       1       6       1       1       6       1       1       6
       1       1       1       1       6       6       1       1       1       6
       1       1       1       1      16       6       6       6       6       6
       6       6       6      16       6       1       6       6       1       6
       6       6       1       6       1       1       1       6       6       6
       6       1       6       1       6       1       1       6       1       1
       6       1       1       1       6       1       1       6       1       1
       6       1       1       6       1       1       1       1       6       6
       1       1       1       6       1       1       1       1      16       6
       6       6       6       6       6       6       6      16       6       1
       6       6       1       6       6       6       1       6       1       1
       1       6       6       6       6       1       6       1       6       1
       1       6       1       1       6       1       1       1       6       1
       1       6       1       1       6       1       1       6       1       1
       1       1       6       6       1       1       1       6       1       1
       1       1      16       6       6       6       6       6       6       6
       6      16       6       1       6       6       1       6       6       6
       1       6       1       1       1       6       6       6       6       1
       6       1       6       1       1       6       1       1       6       1
       1       1       6       1       1       6       1       1       6       1
       1       6       1       1       1       1       6       6       1       1
       1       6       1       1       1       1      16       6       6       6
       6       6       6       6       6      16       6       1       6       6
       1       6       6       6       1       6       1       1       1       6
       6       6       6       1       6       1       6       1       1       6
       1       1       6       1       1       1       6       1       1       6
       1       1       6       1       1       6       1       1       1       1
       6       6       1       1       1       6       1       1       1       1
      16       6       6       6       6       6       6       6       6      16
       6       1       6       6       1       6       6       6       1       6
       1       1       1       6       6       6       6       1       6       1
       6       1       1       6       1       1       6       1       1       1
       6       1       1       6       1       1       6       1       1       6
       1       1       1       1       6       6       1       1       1       6
       1       1       1       1      16       6       6       6       6       6
       6       6       6      16       6       1       6       6       1       6
       6       6       1       6       1       1       1       6       6       6
       6       1       6       1       6       1       1       6       1       1
       6       1       1       1       6       1       1       6       1       1
       6       1       1       6       1       1       1       1       6       6
       1       1       1       6       1       1       1       1      16       6
       6       6       6       6       6       6       6      16       6       1
       6       6       1       6       6       6       1       6       1       1
       1       6       6       6       6       1       6       1       6       1
       1       6       1       1       6       1       1       1       6       1
       1       6       1       1       6       1       1       6       1       1
       1       1       6       6       1       1       1       6       1       1
       1       1      16       6       6       6       6       6       6       6
       6      16       6       1       6       6       1       6       6       6
       1       6       1       1       1       6       6       6       6       1
       6       1       6       1       1       6       1       1       6       1
       1       1       6       1       1       6       1       1       6       1
       1       6       1       1       1       1       6       6       1       1
       1       6       1       1       1       1      16       6       6       6
       6       6       6       6       6      16       6       1       6       6
       1       6       6       6       1       6       1       1       1       6
       6       6       6       1       6       1       6       1       1       6
       1       1       6       1       1       1       6       1       1       6
       1       1       6       1       1       6       1       1       1       1
       6       6       1       1       1       6       1       1       1       1
      16       6       6       6       6       6       6       6       6      16
       6       1       6       6       1       6       6       6       1       6
       1       1       1       6       6       6       6       1       6       1
       6       1       1       6       1       1       6       1       1       1
       6       1       1       6       1       1       6       1       1       6
       1       1       1       1       6       6       1       1       1       6
       1       1       1       1      16       6       6       6       6       6
       6       6       6      16       6       1       6       6       1       6
       6       6       1       6       1       1       1       6       6       6
       6       1       6       1       6       1       1       6       1       1
       6       1       1       1       6       1       1       6       1       1
       6       1       1       6       1       1       1       1       6       6
       1       1       1       6       1       1       1       1      16       6
       6       6       6       6       6       6       6      16       6       1
       6       6       1       6       6       6       1       6       1       1
       1       6       6       6       6       1       6       1       6       1
       1       6       1       1       6       1       1       1       6       1
       1       6       1       1       6       1       1       6       1       1
       1       1       6       6       1       1       1       6       1       1
       1       1      16       6       6       6       6       6       6       6
       6      16       6       1       6       6       1       6       6       6
       1       6       1       1       1       6       6       6       6       1
       6       1       6       1       1       6       1       1       6       1
       1       1       6       1       1       6       1       1       6       1
       1       6       1       1       1       1       6       6       1       1
       1       6       1       1       1       1      16       6       6       6
       6       6       6       6       6      16       6       1       6       6
       1       6       6       6       1       6       1       1       1       6
       6       6       6       1       6       1       6       1       1       6
       1       1       6       1       1       1       6       1       1       6
       1       1       6       1       1       6       1       1       1       1
       6       6       1       1       1       6       1       1       1       1
      16       6       6       6       6       6       6       6       6      16
       6       1       6       6       1       6       6       6       1       6
       1       1       1       6       6       6       6       1       6       1
       6       1       1       6       1       1       6       1       1       1
       6       1       1       6       1       1       6       1       1       6
       1       1       1       1       6       6       1       1       1       6
       1       1       1       1      16       6       6       6       6       6
       6       6       6      16       6       1       6       6       1       6
       6       6       1       6       1       1       1       6       6       6
       6       1       6       1       6       1       1       6       1       1
       6       1       1       1       6       1       1       6       1       1
       6       1       1       6       1       1       1       1       6       6
       1       1       1       6       1       1       1       1      16       6
       6       6       6       6       6       6       6      16       6       1
       6       6       1       6       6       6       1       6       1       1
       1       6       6       6       6       1       6       1       6       1
       1       6       1       1       6       1       1       1       6       1
       1       6       1       1       6       1       1       6       1       1
       1       1       6       6       1       1       1       6       1       1
       1       1      16       6       6       6       6       6       6       6
       6      16       6       1       6       6       1       6       6       6
       1       6       1       1       1       6       6       6       6       1
       6       1       6       1       1       6       1       1       6       1
       1       1       6       1       1       6       1       1       6       1
       1       6       1       1       1       1       6       6       1       1
       1       6       1       1       1       1      16       6       6       6
       6       6       6       6       6      16       6       1       6       6
       1       6       6       6       1       6       1       1       1       6
       6       6       6       1       6       1       6       1       1       6
       1       1       6       1       1       1       6       1       1       6
       1       1       6       1       1       6       1       1       1       1
       6       6       1       1       1       6       1       1       1       1
      16       6       6       6       6       6       6       6       6      16
       6       1       6       6       1       6       6       6       1       6
       1       1       1       6       6       6       6       1       6       1
       6       1       1       6       1       1       6       1       1       1
       6       1       1       6       1       1       6       1       1       6
       1       1       1       1       6       6       1       1       1       6
       1       1       1       1      16       6       6       6       6       6
       6       6       6      16       6       1       6       6       1       6
       6       6       1       6       1       1       1       6       6       6
       6       1       6       1       6       1       1       6       1       1
       6       1       1       1       6       1       1       6       1       1
       6       1       1       6       1       1       1       1       6       6
       1       1       1       6       1       1       1       1      16       6
       6       6       6       6       6       6       6      16       6       1
       6       6       1       6       6       6       1       6       1       1
       1       6       6       6       6       1       6       1       6       1
       1       6       1       1       6       1       1       1       6       1
       1       6       1       1       6       1       1       6       1       1
       1       1       6       6       1       1       1       6       1       1
       1       1      16       6       6       6       6       6       6       6
       6      16       6       1       6       6       1       6       6       6
       1       6       1       1       1       6       6       6       6       1
       6       1       6       1       1       6       1       1       6       1
       1       1       6       1       1       6       1       1       6       1
       1       6       1       1       1       1       6       6       1       1
       1       6       1       1       1       1      16       6       6       6
       6       6       6       6       6      16       6       1       6       6
       1       6       6       6       1       6       1       1       1       6
       6       6       6       1       6       1       6       1       1       6
       1       1       6       1       1       1       6       1       1       6
       1       1       6       1       1       6       1       1       1       1
       6       6       1       1       1       6       1       1       1       1
      16       6       6       6       6       6       6       6       6      16
       6       1       6       6       1       6       6       6       1       6
       1       1       1       6       6       6       6       1       6       1
       6       1       1       6       1       1       6       1       1       1
       6       1       1       6       1       1       6       1       1       6
       1       1       1       1       6       6       1       1       1       6
       1       1       1       1      16       6       6       6       6       6
       6       6       6      16       6       1       6       6       1       6
       6       6       1       6       1       1       1       6       6       6
       6       1       6       1       6       1       1       6       1       1
       6       1       1       1       6       1       1       6       1       1
       6       1       1       6       1       1       1       1       6       6
       1       1       1       6       1       1       1       1      16       6
       6       6       6       6       6       6       6      16       6       1
       6       6       1       6       6       6       1       6       1       1
       1       6       6       6       6       1       6       1       6       1
       1       6       1       1       6       1       1       1       6       1
       1       6       1       1       6       1       1       6       1       1
       1       1       6       6       1       1       1       6       1       1
       1       1      16       6       6       6       6       6       6       6
       6      16       6       1       6       6       1       6       6       6
       1       6       1       1       1       6       6       6       6       1
       6       1       6       1       1       6       1       1       6       1
       1       1       6       1       1       6       1       1       6       1
       1       6       1       1       1       1       6       6       1       1
       1       6       1       1       1       1      16       6       6       6
       6       6       6       6       6      16       6       1       6       6
       1       6       6       6       1       6       1       1       1       6
       6       6       6       1       6       1       6       1       1       6
       1       1       6       1       1       1       6       1       1       6
       1       1       6       1       1       6       1       1       1       1
       6       6       1       1       1       6       1       1       1       1
      16       6       6       6       6       6       6       6       6      16
       6       1       6       6       1       6       6       6       1       6
       1       1       1       6       6       6       6       1       6       1
       6       1       1       6       1       1       6       1       1       1
       6       1       1       6       1       1       6       1       1       6
       1       1       1       1       6       6       1       1       1       6
       1       1       1       1      16       6       6       6       6       6
       6       6       6      16       6       1       6       6       1       6
       6       6       1       6       1       1       1       6       6       6
       6       1       6       1       6       1       1       6       1       1
       6       1       1       1       6       1       1       6       1       1
       6       1       1       6       1       1       1       1       6       6
       1       1       1       6       1       1       1       1      16       6
       6       6       6       6       6       6       6      16       6       1
       6       6       1       6       6       6       1       6       1       1
       1       6       6       6       6       1       6       1       6       1
       1       6       1       1       6       1       1       1       6       1
       1       6       1       1       6       1       1       6       1       1
       1       1       6       6       1       1       1       6       1       1
       1       1      16       6       6       6       6       6       6       6
       6      16       6       1       6       6       1       6       6       6
       1       6       1       1       1       6       6       6       6       1
       6       1       6       1       1       6       1       1       6       1
       1       1       6       1       1       6       1       1       6       1
       1       6       1       1       1       1       6       6       1       1
       1       6       1       1       1       1      16       6       6       6
       6       6       6       6       6      16       6       1       6       6
       1       6       6       6       1       6       1       1       1       6
       6       6       6       1       6       1       6       1       1       6
       1       1       6       1       1       1       6       1       1       6
       1       1       6       1       1       6       1       1       1       1
       6       6       1       1       1       6       1       1       1       1
      16       6       6       6       6       6       6       6       6      16
       6       1       6       6       1       6       6       6       1       6
       1       1       1       6       6       6       6       1       6       1
       6       1       1       6       1       1       6       1       1       1
       6       1       1       6       1       1       6       1       1       6
       1       1       1       1       6       6       1       1       1       6
       1       1       1       1      16       6       6       6       6       6
       6       6       6      16       6       1       6       6       1       6
       6       6       1       6       1       1       1       6       6       6
       6       1       6       1       6       1       1       6       1       1
       6       1       1       1       6       1       1       6       1       1
       6       1       1       6       1       1       1       1       6       6
       1       1       1       6       1       1       1       1      16       6
       6       6       6       6       6       6       6      16       6       1
       6       6       1       6       6       6       1       6       1       1
       1       6       6       6       6       1       6       1       6       1
       1       6       1       1       6       1       1       1       6       1
       1       6       1       1       6       1       1       6       1       1
       1       1       6       6       1       1       1       6       1       1
       1       1      16       6       6       6       6       6       6       6
       6      16       6       1       6       6       1       6       6       6
       1       6       1       1       1       6       6       6       6       1
       6       1       6       1       1       6       1       1       6       1
       1       1       6       1       1       6       1       1       6       1
       1       6       1       1       1       1       6       6       1       1
       1       6       1       1       1       1      16       6       6       6
       6       6       6       6       6      16       6       1       6       6
       1       6       6       6       1       6       1       1       1       6
       6       6       6       1       6       1       6       1       1       6
       1       1       6       1       1       1       6       1       1       6
       1       1       6       1       1       6       1       1       1       1
       6       6       1       1       1       6       1       1       1       1
      16       6       6       6       6       6       6       6       6      16
       6       1       6       6       1       6       6       6       1       6
       1       1       1       6       6       6       6       1       6       1
       6       1       1       6       1       1       6       1       1       1
       6       1       1       6       1       1       6       1       1       6
       1       1       1       1       6       6       1       1       1       6
       1       1       1       1      16       6       6       6       6       6
       6       6       6      16       6       1       6       6       1       6
       6       6       1       6       1       1       1       6       6       6
       6       1       6       1       6       1       1       6       1       1
       6       1       1       1       6       1       1       6       1       1
       6       1       1       6       1       1       1       1       6       6
       1       1       1       6       1       1       1       1      16       6
       6       6       6       6       6       6       6      16       6       1
       6       6       1       6       6       6       1       6       1       1
       1       6       6       6       6       1       6       1       6       1
       1       6       1       1       6       1       1       1       6       1
       1       6       1       1       6       1       1       6       1       1
       1       1       6       6       1       1       1       6       1       1
       1       1      16       6       6       6       6       6       6       6
       6      16       6       1       6       6       1       6       6       6
       1       6       1       1       1       6       6       6       6       1
       6       1       6       1       1       6       1       1       6       1
       1       1       6       1       1       6       1       1       6       1
       1       6       1       1       1       1       6       6       1       1
       1       6       1       1       1       1      16       6       6       6
       6       6       6       6       6      16       6       1       6       6
       1       6       6       6       1       6       1       1       1       6
       6       6       6       1       6       1       6       1       1       6
       1       1       6       1       1       1       6       1       1       6
       1       1       6       1       1       6       1       1       1       1
       6       6       1       1       1       6       1       1       1       1
      16       6       6       6       6       6       6       6       6      16
       6       1       6       6       1       6       6       6       1       6
       1       1       1       6       6       6       6       1       6       1
       6       1       1       6       1       1       6       1       1       1
       6       1       1       6       1       1       6       1       1       6
       1       1       1       1       6       6       1       1       1       6
       1       1       1       1      16       6       6       6       6       6
       6       6       6      16       6       1       6       6       1       6
       6       6       1       6       1       1       1       6       6       6
       6       1       6       1       6       1       1       6       1       1
       6       1       1       1       6       1       1       6       1       1
       6       1       1       6       1       1       1       1       6       6
       1       1       1       6       1       1       1       1      16       6
       6       6       6       6       6       6       6      16       6       1
       6       6       1       6       6       6       1       6       1       1
       1       6       6       6       6       1       6       1       6       1
       1       6       1       1       6       1       1       1       6       1
       1       6       1       1       6       1       1       6       1       1
       1       1       6       6       1       1       1       6       1       1
       1       1      16       6       6       6       6       6       6       6
       6      16       6       1       6       6       1       6       6       6
       1       6       1       1       1       6       6       6       6       1
       6       1       6       1       1       6       1       1       6       1
       1       1       6       1       1       6       1       1       6       1
       1       6       1       1       1       1       6       6       1       1
       1       6       1       1       1       1      16       6       6       6
       6       6       6       6       6      16       6       1       6       6
       1       6       6       6       1       6       1       1       1       6
       6       6       6       1       6       1       6       1       1       6
       1       1       6       1       1       1       6       1       1       6
       1       1       6       1       1       6       1       1       1       1
       6       6       1       1       1       6       1       1       1       1
      16       6       6       6       6       6       6       6       6      16
       6       1       6       6       1       6       6       6       1       6
       1       1       1       6       6       6       6       1       6       1
       6       1       1       6       1       1       6       1       1       1
       6       1       1       6       1       1       6       1       1       6
       1       1       1       1       6       6       1       1       1       6
       1       1       1       1      16       6       6       6       6       6
       6       6       6      16       6       1       6       6       1       6
       6       6       1       6       1       1       1       6       6       6
       6       1       6       1       6       1       1       6       1       1
       6       1       1       1       6       1       1       6       1       1
       6       1       1       6       1       1       1       1       6       6
       1       1       1       6       1       1       1       1      16       6
       6       6       6       6       6       6       6      16       6       1
       6       6       1       6       6       6       1       6       1       1
       1       6       6       6       6       1       6       1       6       1
       1       6       1       1       6       1       1       1       6       1
       1       6       1       1       6       1       1       6       1       1
       1       1       6       6       1       1       1       6       1       1
       1       1      16       6       6       6       6       6       6       6
       6      16       6       1       6       6       1       6       6       6
       1       6       1       1       1       6       6       6       6       1
       6       1       6       1       1       6       1       1       6       1
       1       1       6       1       1       6       1       1       6       1
       1       6       1       1       1       1       6       6       1       1
       1       6       1       1       1       1      16       6       6       6
       6       6       6       6       6      16       6       1       6       6
       1       6       6       6       1       6       1       1       1       6
       6       6       6       1       6       1       6       1       1       6
       1       1       6       1       1       1       6       1       1       6
       1       1       6       1       1       6       1       1       1       1
       6       6       1       1       1       6       1       1       1       1
      16       6       6       6       6       6       6       6       6      16
       6       1       6       6       1       6       6       6       1       6
       1       1       1       6       6       6       6       1       6       1
       6       1       1       6       1       1       6       1       1       1
       6       1       1       6       1       1       6       1       1       6
       1       1       1       1       6       6       1       1       1       6
       1       1       1       1      16       6       6       6       6       6
       6       6       6      16       6       1       6       6       1       6
       6       6       1       6       1       1       1       6       6       6
       6       1       6       1       6       1       1       6       1       1
       6       1       1       1       6       1       1       6       1       1
       6       1       1       6       1       1       1       1       6       6
       1       1       1       6       1       1       1       1      16       6
       6       6       6       6       6       6       6      16       6       1
       6       6       1       6       6       6       1       6       1       1
       1       6       6       6       6       1       6       1       6       1
       1       6       1       1       6       1       1       1       6       1
       1       6       1       1       6       1       1       6       1       1
       1       1       6       6       1       1       1       6       1       1
       1       1      16       6       6       6       6       6       6       6
       6      16       6       1       6       6       1       6       6       6
       1       6       1       1       1       6       6       6       6       1
       6       1       6       1       1       6       1       1       6       1
       1       1       6       1       1       6       1       1       6       1
       1       6       1       1       1       1       6       6       1       1
       1       6       1       1       1       1      16       6       6       6
       6       6       6       6       6      16       6       1       6       6
       1       6       6       6       1       6       1       1       1       6
       6       6       6       1       6       1       6       1       1       6
       1       1       6       1       1       1       6       1       1       6
       1       1       6       1       1       6       1       1       1       1
       6       6       1       1       1       6       1       1       1       1
      16       6       6       6       6       6       6       6       6      16
       6       1       6       6       1       6       6       6       1       6
       1       1       1       6       6       6       6       1       6       1
       6       1       1       6       1       1       6       1       1       1
       6       1       1       6       1       1       6       1       1       6
       1       1       1       1       6       6       1       1       1       6
       1       1       1       1      16       6       6       6       6       6
       6       6       6      16       6       1       6       6       1       6
       6       6       1       6       1       1       1       6       6       6
       6       1       6       1       6       1       1       6       1       1
       6       1       1       1       6       1       1       6       1       1
       6       1       1       6       1       1       1       1       6       6
       1       1       1       6       1       1       1       1      16       6
       6       6       6       6       6       6       6      16       6       1
       6       6       1       6       6       6       1       6       1       1
       1       6       6       6       6       1       6       1       6       1
       1       6       1       1       6       1       1       1       6       1
       1       6       1       1       6       1       1       6       1       1
       1       1       6       6       1       1       1       6       1       1
       1       1      16       6       6       6       6       6       6       6
       6      16       6       1       6       6       1       6       6       6
       1       6       1       1       1       6       6       6       6       1
       6       1       6       1       1       6       1       1       6       1
       1       1       6       1       1       6       1       1       6       1
       1       6       1       1       1       1       6       6       1       1
       1       6       1       1       1       1      16       6       6       6
       6       6       6       6       6      16       6       1       6       6
       1       6       6       6       1       6       1       1       1       6
       6       6       6       1       6       1       6       1       1       6
       1       1       6       1       1       1       6       1       1       6
       1       1       6       1       1       6       1       1       1       1
       6       6       1       1       1       6       1       1       1       1
      16       6       6       6       6       6       6       6       6      16
       6       1       6       6       1       6       6       6       1       6
       1       1       1       6       6       6       6       1       6       1
       6       1       1       6       1       1       6       1       1       1
       6       1       1       6       1       1       6       1       1       6
       1       1       1       1       6       6       1       1       1       6
       1       1       1       1      16       6       6       6       6       6
       6       6       6      16       6       1       6       6       1       6
       6       6       1       6       1       1       1       6       6       6
       6       1       6       1       6       1       1       6       1       1
       6       1       1       1       6       1       1       6       1       1
       6       1       1       6       1       1       1       1       6       6
       1       1       1       6       1       1       1       1      16       6
       6       6       6       6       6       6       6      16       6       1
       6       6       1       6       6       6       1       6       1       1
       1       6       6       6       6       1       6       1       6       1
       1       6       1       1       6       1       1       1       6       1
       1       6       1       1       6       1       1       6       1       1
       1       1       6       6       1       1       1       6       1       1
       1       1      16       6       6       6       6       6       6       6
       6      16       6       1       6       6       1       6       6       6
       1       6       1       1       1       6       6       6       6       1
       6       1       6       1       1       6       1       1       6       1
       1       1       6       1       1       6       1       1       6       1
       1       6       1       1       1       1       6       6       1       1
       1       6       1       1       1       1      16       6       6       6
       6       6       6       6       6      16       6       1       6       6
       1       6       6       6       1       6       1       1       1       6
       6       6       6       1       6       1       6       1       1       6
       1       1       6       1       1       1       6       1       1       6
       1       1       6       1       1       6       1       1       1       1
       6       6       1       1       1       6       1       1       1       1
      16       6       6       6       6       6       6       6       6      16
       6       1       6       6       1       6       6       6       1       6
       1       1       1       6       6       6       6       1       6       1
       6       1       1       6       1       1       6       1       1       1
       6       1       1       6       1       1       6       1       1       6
       1       1       1       1       6       6       1       1       1       6
       1       1       1       1      16       6       6       6       6       6
       6       6       6      16       6       1       6       6       1       6
       6       6       1       6       1       1       1       6       6       6
       6       1       6       1       6       1       1       6       1       1
       6       1       1       1       6       1       1       6       1       1
       6       1       1       6       1       1       1       1       6       6
       1       1       1       6       1       1       1       1      16       6
       6       6       6       6       6       6       6      16       6       1
       6       6       1       6       6       6       1       6       1       1
       1       6       6       6       6       1       6       1       6       1
       1       6       1       1       6       1       1       1       6       1
       1       6       1       1       6       1       1       6       1       1
       1       1       6       6       1       1       1       6       1       1
       1       1      16       6       6       6       6       6       6       6
       6      16       6       1       6       6       1       6       6       6
       1       6       1       1       1       6       6       6       6       1
       6       1       6       1       1       6       1       1       6       1
       1       1       6       1       1       6       1       1       6       1
       1       6       1       1       1       1       6       6       1       1
       1       6       1       1       1       1      16       6       6       6
       6       6       6       6       6      16       6       1       6       6
       1       6       6       6       1       6       1       1       1       6
       6       6       6       1       6       1       6       1       1       6
       1       1       6       1       1       1       6       1       1       6
       1       1       6       1       1       6       1       1       1       1
       6       6       1       1       1       6       1       1       1       1
      16       6       6       6       6       6       6       6       6      16
       6       1       6       6       1       6       6       6       1       6
       1       1       1       6       6       6       6       1       6       1
       6       1       1       6       1       1       6       1       1       1
       6       1       1       6       1       1       6       1       1       6
       1       1       1       1       6       6       1       1       1       6
       1       1       1       1      16       6       6       6       6       6
       6       6       6      16       6       1       6       6       1       6
       6       6       1       6       1       1       1       6       6       6
       6       1       6       1       6       1       1       6       1       1
       6       1       1       1       6       1       1       6       1       1
       6       1       1       6       1       1       1       1       6       6
       1       1       1       6       1       1       1       1      16       6
       6       6       6       6       6       6       6      16       6       1
       6       6       1       6       6       6       1       6       1       1
       1       6       6       6       6       1       6       1       6       1
       1       6       1       1       6       1       1       1       6       1
       1       6       1       1       6       1       1       6       1       1
       1       1       6       6       1       1       1       6       1       1
       1       1      16       6       6       6       6       6       6       6
       6      16       6       1       6       6       1       6       6       6
       1       6       1       1       1       6       6       6       6       1
       6       1       6       1       1       6       1       1       6       1
       1       1       6       1       1       6       1       1       6       1
       1       6       1       1       1       1       6       6       1       1
       1       6       1       1       1       1      16       6       6       6
       6       6       6       6       6      16       6       1       6       6
       1       6       6       6       1       6       1       1       1       6
       6       6       6       1       6       1       6       1       1       6
       1       1       6       1       1       1       6       1       1       6
       1       1       6       1       1       6       1       1       1       1
       6       6       1       1       1       6       1       1       1       1
      16       6       6       6       6       6       6       6       6      16
       6       1       6       6       1       6       6       6       1       6
       1       1       1       6       6       6       6       1       6       1
       6       1       1       6       1       1       6       1       1       1
       6       1       1       6       1       1       6       1       1       6
       1       1       1       1       6       6       1       1       1       6
       1       1       1       1      16       6       6       6       6       6
       6       6       6      16       6       1       6       6       1       6
       6       6       1       6       1       1       1       6       6       6
       6       1       6       1       6       1       1       6       1       1
       6       1       1       1       6       1       1       6       1       1
       6       1       1       6       1       1       1       1       6       6
       1       1       1       6       1       1       1       1      16       6
       6       6       6       6       6       6       6      16       6       1
       6       6       1       6       6       6       1       6       1       1
       1       6       6       6       6       1       6       1       6       1
       1       6       1       1       6       1       1       1       6       1
       1       6       1       1       6       1       1       6       1       1
       1       1       6       6       1       1       1       6       1       1
       1       1      16       6       6       6       6       6       6       6
       6      16       6       1       6       6       1       6       6       6
       1       6       1       1       1       6       6       6       6       1
       6       1       6       1       1       6       1       1       6       1
       1       1       6       1       1       6       1       1       6       1
       1       6       1       1       1       1       6       6       1       1
       1       6       1       1       1       1      16       6       6       6
       6       6       6       6       6      16       6       1       6       6
       1       6       6       6       1       6       1       1       1       6
       6       6       6       1       6       1       6       1       1       6
       1       1       6       1       1       1       6       1       1       6
       1       1       6       1       1       6       1       1       1       1
       6       6       1       1       1       6       1       1       1       1
      16       6       6       6       6       6       6       6       6      16
       6       1       6       6       1       6       6       6       1       6
       1       1       1       6       6       6       6       1       6       1
       6       1       1       6       1       1       6       1       1       1
       6       1       1       6       1       1       6       1       1       6
       1       1       1       1       6       6       1       1       1       6
       1       1       1       1      16       6       6       6       6       6
       6       6       6      16       6       1       6       6       1       6
       6       6       1       6       1       1       1       6       6       6
       6       1       6       1       6       1       1       6       1       1
       6       1       1       1       6       1       1       6       1       1
       6       1       1       6       1       1       1       1       6       6
       1       1       1       6       1       1       1       1      16       6
       6       6       6       6       6       6       6      16       6       1
       6       6       1       6       6       6       1       6       1       1
       1       6       6       6       6       1       6       1       6       1
       1       6       1       1       6       1       1       1       6       1
       1       6       1       1       6       1       1       6       1       1
       1       1       6       6       1       1       1       6       1       1
       1       1      16       6       6       6       6       6       6       6
       6      16       6       1       6       6       1       6       6       6
       1       6       1       1       1       6       6       6       6       1
       6       1       6       1       1       6       1       1       6       1
       1       1       6       1       1       6       1       1       6       1
       1       6       1       1       1       1       6       6       1       1
       1       6       1       1       1       1      16       6       6       6
       6       6       6       6       6      16       6       1       6       6
       1       6       6       6       1       6       1       1       1       6
       6       6       6       1       6       1       6       1       1       6
       1       1       6       1       1       1       6       1       1       6
       1       1       6       1       1       6       1       1       1       1
       6       6       1       1       1       6       1       1       1       1
      16       6       6       6       6       6       6       6       6      16
       6       1       6       6       1       6       6       6       1       6
       1       1       1       6       6       6       6       1       6       1
       6       1       1       6       1       1       6       1       1       1
       6       1       1       6       1       1       6       1       1       6
       1       1       1       1       6       6       1       1       1       6
       1       1       1       1      16       6       6       6       6       6
       6       6       6      16       6       1       6       6       1       6
       6       6       1       6       1       1       1       6       6       6
       6       1       6       1       6       1       1       6       1       1
       6       1       1       1       6       1       1       6       1       1
       6       1       1       6       1       1       1       1       6       6
       1       1       1       6       1       1       1       1      16       6
       6       6       6       6       6       6       6      16       6       1
       6       6       1       6       6       6       1       6       1       1
       1       6       6       6       6       1       6       1       6       1
       1       6       1       1       6       1       1       1       6       1
       1       6       1       1       6       1       1       6       1       1
       1       1       6       6       1       1       1       6       1       1
       1       1      16       6       6       6       6       6       6       6
       6      16       6       1       6       6       1       6       6       6
       1       6       1       1       1       6       6       6       6       1
       6       1       6       1       1       6       1       1       6       1
       1       1       6       1       1       6       1       1       6       1
       1       6       1       1       1       1       6       6       1       1
       1       6       1       1       1       1      16       6       6       6
       6       6       6       6       6      16       6       1       6       6
       1       6       6       6       1       6       1       1       1       6
       6       6       6       1       6       1       6       1       1       6
       1       1       6       1       1       1       6       1       1       6
       1       1       6       1       1       6       1       1       1       1
       6       6       1       1       1       6       1       1       1       1
      16       6       6       6       6       6       6       6       6      16
       6       1       6       6       1       6       6       6       1       6
       1       1       1       6       6       6       6       1       6       1
       6       1       1       6       1       1       6       1       1       1
       6       1       1       6       1       1       6       1       1       6
       1       1       1       1       6       6       1       1       1       6
       1       1       1       1      16       6       6       6       6       6
       6       6       6      16       6       1       6       6       1       6
       6       6       1       6       1       1       1       6       6       6
       6       1       6       1       6       1       1       6       1       1
       6       1       1       1       6       1       1       6       1       1
       6       1       1       6       1       1       1       1       6       6
       1       1       1       6       1       1       1       1      16       6
       6       6       6       6       6       6       6      16       6       1
       6       6       1       6       6       6       1       6       1       1
       1       6       6       6       6       1       6       1       6       1
       1       6       1       1       6       1       1       1       6       1
       1       6       1       1       6       1       1       6       1       1
       1       1       6       6       1       1       1       6       1       1
       1       1      16       6       6       6       6       6       6       6
       6      16       6       1       6       6       1       6       6       6
       1       6       1       1       1       6       6       6       6       1
       6       1       6       1       1       6       1       1       6       1
       1       1       6       1       1       6       1       1       6       1
       1       6       1       1       1       1       6       6       1       1
       1       6       1       1       1       1      16       6       6       6
       6       6       6       6       6      16       6       1       6       6
       1       6       6       6       1       6       1       1       1       6
       6       6       6       1       6       1       6       1       1       6
       1       1       6       1       1       1       6       1       1       6
       1       1       6       1       1       6       1       1       1       1
       6       6       1       1       1       6       1       1       1       1
      16       6       6       6       6       6       6       6       6      16
       6       1       6       6       1       6       6       6       1       6
       1       1       1       6       6       6       6       1       6       1
       6       1       1       6       1       1       6       1       1       1
       6       1       1       6       1       1       6       1       1       6
       1       1       1       1       6       6       1       1       1       6
       1       1       1       1      16       6       6       6       6       6
       6       6       6      16       6       1       6       6       1       6
       6       6       1       6       1       1       1       6       6       6
       6       1       6       1       6       1       1       6       1       1
       6       1       1       1       6       1       1       6       1       1
       6       1       1       6       1       1       1       1       6       6
       1       1       1       6       1       1       1       1      16       6
       6       6       6       6       6       6       6      16       6       1
       6       6       1       6       6       6       1       6       1       1
       1       6       6       6       6       1       6       1       6       1
       1       6       1       1       6       1       1       1       6       1
       1       6       1       1       6       1       1       6       1       1
       1       1       6       6       1       1       1       6       1       1
       1       1      16       6       6       6       6       6       6       6
       6      16       6       1       6       6       1       6       6       6
       1       6       1       1       1       6       6       6       6       1
       6       1       6       1       1       6       1       1       6       1
       1       1       6       1       1       6       1       1       6       1
       1       6       1       1       1       1       6       6       1       1
       1       6       1       1       1       1      16       6       6       6
       6       6       6       6       6      16       6       1       6       6
       1       6       6       6       1       6       1       1       1       6
       6       6       6       1       6       1       6       1       1       6
       1       1       6       1       1       1       6       1       1       6
       1       1       6       1       1       6       1       1       1       1
       6       6       1       1       1       6       1       1       1       1
      16       6       6       6       6       6       6       6       6      16
       6       1       6       6       1       6       6       6       1       6
       1       1       1       6       6       6       6       1       6       1
       6       1       1       6       1       1       6       1       1       1
       6       1       1       6       1       1       6       1       1       6
       1       1       1       1       6       6       1       1       1       6
       1       1       1       1      16       6       6       6       6       6
       6       6       6      16       6       1       6       6       1       6
       6       6       1       6       1       1       1       6       6       6
       6       1       6       1       6       1       1       6       1       1
       6       1       1       1       6       1       1       6       1       1
       6       1       1       6       1       1       1       1       6       6
       1       1       1       6       1       1       1       1      16       6
       6       6       6       6       6       6       6      16       6       1
       6       6       1       6       6       6       1       6       1       1
       1       6       6       6       6       1       6       1       6       1
       1       6       1       1       6       1       1       1       6       1
       1       6       1       1       6       1       1       6       1       1
       1       1       6       6       1       1       1       6       1       1
       1       1      16       6       6       6       6       6       6       6
       6      16       6       1       6       6       1       6       6       6
       1       6       1       1       1       6       6       6       6       1
       6       1       6       1       1       6       1       1       6       1
       1       1       6       1       1       6       1       1       6       1
       1       6       1       1       1       1       6       6       1       1
       1       6       1       1       1       1      16       6       6       6
       6       6       6       6       6      16       6       1       6       6
       1       6       6       6       1       6       1       1       1       6
       6       6       6       1       6       1       6       1       1       6
       1       1       6       1       1       1       6       1       1       6
       1       1       6       1       1       6       1       1       1       1
       6       6       1       1       1       6       1       1       1       1
      16       6       6       6       6       6       6       6       6      16
       6       1       6       6       1       6       6       6       1       6
       1       1       1       6       6       6       6       1       6       1
       6       1       1       6       1       1       6       1       1       1
       6       1       1       6       1       1       6       1       1       6
       1       1       1       1       6       6       1       1       1       6
       1       1       1       1      16       6       6       6       6       6
       6       6       6      16       6       1       6       6       1       6
       6       6       1       6       1       1       1       6       6       6
       6       1       6       1       6       1       1       6       1       1
       6       1       1       1       6       1       1       6       1       1
       6       1       1       6       1       1       1       1       6       6
       1       1       1       6       1       1       1       1      16       6
       6       6       6       6       6       6       6      16       6       1
       6       6       1       6       6       6       1       6       1       1
       1       6       6       6       6       1       6       1       6       1
       1       6       1       1       6       1       1       1       6       1
       1       6       1       1       6       1       1       6       1       1
       1       1       6       6       1       1       1       6       1       1
       1       1      16       6       6       6       6       6       6       6
       6      16       6       1       6       6       1       6       6       6
       1       6       1       1       1       6       6       6       6       1
       6       1       6       1       1       6       1       1       6       1
       1       1       6       1       1       6       1       1       6       1
       1       6       1       1       1       1       6       6       1       1
       1       6       1       1       1       1      16       6       6       6
       6       6       6       6       6      16       6       1       6       6
       1       6       6       6       1       6       1       1       1       6
       6       6       6       1       6       1       6       1       1       6
       1       1       6       1       1       1       6       1       1       6
       1       1       6       1       1       6       1       1       1       1
       6       6       1       1       1       6       1       1       1       1
      16       6       6       6       6       6       6       6       6      16
       6       1       6       6       1       6       6       6       1       6
       1       1       1       6       6       6       6       1       6       1
       6       1       1       6       1       1       6       1       1       1
       6       1       1       6       1       1       6       1       1       6
       1       1       1       1       6       6       1       1       1       6
       1       1       1       1      16       6       6       6       6       6
       6       6       6      16       6       1       6       6       1       6
       6       6       1       6       1       1       1       6       6       6
       6       1       6       1       6       1       1       6       1       1
       6       1       1       1       6       1       1       6       1       1
       6       1       1       6       1       1       1       1       6       6
       1       1       1       6       1       1       1       1      16       6
       6       6       6       6       6       6       6      16       6       1
       6       6       1       6       6       6       1       6       1       1
       1       6       6       6       6       1       6       1       6       1
       1       6       1       1       6       1       1       1       6       1
       1       6       1       1       6       1       1       6       1       1
       1       1       6       6       1       1       1       6       1       1
       1       1      16       6       6       6       6       6       6       6
       6      16       6       1       6       6       1       6       6       6
       1       6       1       1       1       6       6       6       6       1
       6       1       6       1       1       6       1       1       6       1
       1       1       6       1       1       6       1       1       6       1
       1       6       1       1       1       1       6       6       1       1
       1       6       1       1       1       1      16       6       6       6
       6       6       6       6       6      16       6       1       6       6
       1       6       6       6       1       6       1       1       1       6
       6       6       6       1       6       1       6       1       1       6
       1       1       6       1       1       1       6       1       1       6
       1       1       6       1       1       6       1       1       1       1
       6       6       1       1       1       6       1       1       1       1
      16       6       6       6       6       6       6       6       6      16
       6       1       6       6       1       6       6       6       1       6
       1       1       1       6       6       6       6       1       6       1
       6       1       1       6       1       1       6       1       1       1
       6       1       1       6       1       1       6       1       1       6
       1       1       1       1       6       6       1       1       1       6
       1       1       1       1      16       6       6       6       6       6
       6       6       6      16       6       1       6       6       1       6
       6       6       1       6       1       1       1       6       6       6
       6       1       6       1       6       1       1       6       1       1
       6       1       1       1       6       1       1       6       1       1
       6       1       1       6       1       1       1       1       6       6
       1       1       1       6       1       1       1       1      16       6
       6       6       6       6       6       6       6      16       6       1
       6       6       1       6       6       6       1       6       1       1
       1       6       6       6       6       1       6       1       6       1
       1       6       1       1       6       1       1       1       6       1
       1       6       1       1       6       1       1       6       1       1
       1       1       6       6       1       1       1       6       1       1
       1       1      16       6       6       6       6       6       6       6
       6      16       6       1       6       6       1       6       6       6
       1       6       1       1       1       6       6       6       6       1
       6       1       6       1       1       6       1       1       6       1
       1       1       6       1       1       6       1       1       6       1
       1       6       1       1       1       1       6       6       1       1
       1       6       1       1       1       1      16       6       6       6
       6       6       6       6       6      16       6       1       6       6
       1       6       6       6       1       6       1       1       1       6
       6       6       6       1       6       1       6       1       1       6
       1       1       6       1       1       1       6       1       1       6
       1       1       6       1       1       6       1       1       1       1
       6       6       1       1       1       6       1       1       1       1
      16       6       6       6       6       6       6       6       6      16
       6       1       6       6       1       6       6       6       1       6
       1       1       1       6       6       6       6       1       6       1
       6       1       1       6       1       1       6       1       1       1
       6       1       1       6       1       1       6       1       1       6
       1       1       1       1       6       6       1       1       1       6
       1       1       1       1      16       6       6       6       6       6
       6       6       6      16       6       1       6       6       1       6
       6       6       1       6       1       1       1       6       6       6
       6       1       6       1       6       1       1       6       1       1
       6       1       1       1       6       1       1       6       1       1
       6       1       1       6       1       1       1       1       6       6
       1       1       1       6       1       1       1       1      16       6
       6       6       6       6       6       6       6      16       6       1
       6       6       1       6       6       6       1       6       1       1
       1       6       6       6       6       1       6       1       6       1
       1       6       1       1       6       1       1       1       6       1
       1       6       1       1       6       1       1       6       1       1
       1       1       6       6       1       1       1       6       1       1
       1       1      16       6       6       6       6       6       6       6
       6      16       6       1       6       6       1       6       6       6
       1       6       1       1       1       6       6       6       6       1
       6       1       6       1       1       6       1       1       6       1
       1       1       6       1       1       6       1       1       6       1
       1       6       1       1       1       1       6       6       1       1
       1       6       1       1       1       1      16       6       6       6
       6       6       6       6       6      16       6       1       6       6
       1       6       6       6       1       6       1       1       1       6
       6       6       6       1       6       1       6       1       1       6
       1       1       6       1       1       1       6       1       1       6
       1       1       6       1       1       6       1       1       1       1
       6       6       1       1       1       6       1       1       1       1
      16       6       6       6       6       6       6       6       6      16
       6       1       6       6       1       6       6       6       1       6
       1       1       1       6       6       6       6       1       6       1
       6       1       1       6       1       1       6       1       1       1
       6       1       1       6       1       1       6       1       1       6
       1       1       1       1       6       6       1       1       1       6
       1       1       1       1      16       6       6       6       6       6
       6       6       6      16       6       1       6       6       1       6
       6       6       1       6       1       1       1       6       6       6
       6       1       6       1       6       1       1       6       1       1
       6       1       1       1       6       1       1       6       1       1
       6       1       1       6       1       1       1       1       6       6
       1       1       1       6       1       1       1       1      16       6
       6       6       6       6       6       6       6      16       6       1
       6       6       1       6       6       6       1       6       1       1
       1       6       6       6       6       1       6       1       6       1
       1       6       1       1       6       1       1       1       6       1
       1       6       1       1       6       1       1       6       1       1
       1       1       6       6       1       1       1       6       1       1
       1       1      16       6       6       6       6       6       6       6
       6      16       6       1       6       6       1       6       6       6
       1       6       1       1       1       6       6       6       6       1
       6       1       6       1       1       6       1       1       6       1
       1       1       6       1       1       6       1       1       6       1
       1       6       1       1       1       1       6       6       1       1
       1       6       1       1       1       1      16       6       6       6
       6       6       6       6       6      16       6       1       6       6
       1       6       6       6       1       6       1       1       1       6
       6       6       6       1       6       1       6       1       1       6
       1       1       6       1       1       1       6       1       1       6
       1       1       6       1       1       6       1       1       1       1
       6       6       1       1       1       6       1       1       1       1
      16       6       6       6       6       6       6       6       6      16
       6       1       6       6       1       6       6       6       1       6
       1       1       1       6       6       6       6       1       6       1
       6       1       1       6       1       1       6       1       1       1
       6       1       1       6       1       1       6       1       1       6
       1       1       1       1       6       6       1       1       1       6
       1       1       1       1      16       6       6       6       6       6
       6       6       6      16       6       1       6       6       1       6
       6       6       1       6       1       1       1       6       6       6
       6       1       6       1       6       1       1       6       1       1
       6       1       1       1       6       1       1       6       1       1
       6       1       1       6       1       1       1       1       6       6
       1       1       1       6       1       1       1       1      16       6
       6       6       6       6       6       6       6      16       6       1
       6       6       1       6       6       6       1       6       1       1
       1       6       6       6       6       1       6       1       6       1
       1       6       1       1       6       1       1       1       6       1
       1       6       1       1       6       1       1       6       1       1
       1       1       6       6       1       1       1       6       1       1
       1       1      16       6       6       6       6       6       6       6
       6      16       6       1       6       6       1       6       6       6
       1       6       1       1       1       6       6       6       6       1
       6       1       6       1       1       6       1       1       6       1
       1       1       6       1       1       6       1       1       6       1
       1       6       1       1       1       1       6       6       1       1
       1       6       1       1       1       1      16       6       6       6
       6       6       6       6       6      16       6       1       6       6
       1       6       6       6       1       6       1       1       1       6
       6       6       6       1       6       1       6       1       1       6
       1       1       6       1       1       1       6       1       1       6
       1       1       6       1       1       6       1       1       1       1
       6       6       1       1       1       6       1       1       1       1
      16       6       6       6       6       6       6       6       6      16
       6       1       6       6       1       6       6       6       1       6
       1       1       1       6       6       6       6       1       6       1
       6       1       1       6       1       1       6       1       1       1
       6       1       1       6       1       1       6       1       1       6
       1       1       1       1       6       6       1       1       1       6
       1       1       1       1      16       6       6       6       6       6
       6       6       6      16       6       1       6       6       1       6
       6       6       1       6       1       1       1       6       6       6
       6       1       6       1       6       1       1       6       1       1
       6       1       1       1       6       1       1       6       1       1
       6       1       1       6       1       1       1       1       6       6
       1       1       1       6       1       1       1       1      16       6
       6       6       6       6       6       6       6      16       6       1
       6       6       1       6       6       6       1       6       1       1
       1       6       6       6       6       1       6       1       6       1
       1       6       1       1       6       1       1       1       6       1
       1       6       1       1       6       1       1       6       1       1
       1       1       6       6       1       1       1       6       1       1
       1       1      16       6       6       6       6       6       6       6
       6      16       6       1       6       6       1       6       6       6
       1       6       1       1       1       6       6       6       6       1
       6       1       6       1       1       6       1       1       6       1
       1       1       6       1       1       6       1       1       6       1
       1       6       1       1       1       1       6       6       1       1
       1       6       1       1       1       1      16       6       6       6
       6       6       6       6       6      16       6       1       6       6
       1       6       6       6       1       6       1       1       1       6
       6       6       6       1       6       1       6       1       1       6
       1       1       6       1       1       1       6       1       1       6
       1       1       6       1       1       6       1       1       1       1
       6       6       1       1       1       6       1       1       1       1
      16       6       6       6       6       6       6       6       6      16
       6       1       6       6       1       6       6       6       1       6
       1       1       1       6       6       6       6       1       6       1
       6       1       1       6       1       1       6       1       1       1
       6       1       1       6       1       1       6       1       1       6
       1       1       1       1       6       6       1       1       1       6
       1       1       1       1      16       6       6       6       6       6
       6       6       6      16       6       1       6       6       1       6
       6       6       1       6       1       1       1       6       6       6
       6       1       6       1       6       1       1       6       1       1
       6       1       1       1       6       1       1       6       1       1
       6       1       1       6       1       1       1       1       6       6
       1       1       1       6       1       1       1       1      16       6
       6       6       6       6       6       6       6      16       6       1
       6       6       1       6       6       6       1       6       1       1
       1       6       6       6       6       1       6       1       6       1
       1       6       1       1       6       1       1       1       6       1
       1       6       1       1       6       1       1       6       1       1
       1       1       6       6       1       1       1       6       1       1
       1       1      16       6       6       6       6       6       6       6
       6      16       6       1       6       6       1       6       6       6
       1       6       1       1       1       6       6       6       6       1
       6       1       6       1       1       6       1       1       6       1
       1       1       6       1       1       6       1       1       6       1
       1       6       1       1       1       1       6       6       1       1
       1       6       1       1       1       1      16       6       6       6
       6       6       6       6       6      16       6       1       6       6
       1       6       6       6       1       6       1       1       1       6
       6       6       6       1       6       1       6       1       1       6
       1       1       6       1       1       1       6       1       1       6
       1       1       6       1       1       6       1       1       1       1
       6       6       1       1       1       6       1       1       1       1
      16       6       6       6       6       6       6       6       6      16
       6       1       6       6       1       6       6       6       1       6
       1       1       1       6       6       6       6       1       6       1
       6       1       1       6       1       1       6       1       1       1
       6       1       1       6       1       1       6       1       1       6
       1       1       1       1       6       6       1       1       1       6
       1       1       1       1      16       6       6       6       6       6
       6       6       6      16       6       1       6       6       1       6
       6       6       1       6       1       1       1       6       6       6
       6       1       6       1       6       1       1       6       1       1
       6       1       1       1       6       1       1       6       1       1
       6       1       1       6       1       1       1       1       6       6
       1       1       1       6       1       1       1       1      16       6
       6       6       6       6       6       6       6      16       6       1
       6       6       1       6       6       6       1       6       1       1
       1       6       6       6       6       1       6       1       6       1
       1       6       1       1       6       1       1       1       6       1
       1       6       1       1       6       1       1       6       1       1
       1       1       6       6       1       1       1       6       1       1
       1       1      16       6       6       6       6       6       6       6
       6      16       6       1       6       6       1       6       6       6
       1       6       1       1       1       6       6       6       6       1
       6       1       6       1       1       6       1       1       6       1
       1       1       6       1       1       6       1       1       6       1
       1       6       1       1       1       1       6       6       1       1
       1       6       1       1       1       1      16       6       6       6
       6       6       6       6       6      16       6       1       6       6
       1       6       6       6       1       6       1       1       1       6
       6       6       6       1       6       1       6       1       1       6
       1       1       6       1       1       1       6       1       1       6
       1       1       6       1       1       6       1       1       1       1
       6       6       1       1       1       6       1       1       1       1
      16       6       6       6       6       6       6       6       6      16
       6       1       6       6       1       6       6       6       1       6
       1       1       1       6       6       6       6       1       6       1
       6       1       1       6       1       1       6       1       1       1
       6       1       1       6       1       1       6       1       1       6
       1       1       1       1       6       6       1       1       1       6
       1       1       1       1      16       6       6       6       6       6
       6       6       6      16       6       1       6       6       1       6
       6       6       1       6       1       1       1       6       6       6
       6       1       6       1       6       1       1       6       1       1
       6       1       1       1       6       1       1       6       1       1
       6       1       1       6       1       1       1       1       6       6
       1       1       1       6       1       1       1       1      16       6
       6       6       6       6       6       6       6      16       6       1
       6       6       1       6       6       6       1       6       1       1
       1       6       6       6       6       1       6       1       6       1
       1       6       1       1       6       1       1       1       6       1
       1       6       1       1       6       1       1       6       1       1
       1       1       6       6       1       1       1       6       1       1
       1       1      16       6       6       6       6       6       6       6
       6      16       6       1       6       6       1       6       6       6
       1       6       1       1       1       6       6       6       6       1
       6       1       6       1       1       6       1       1       6       1
       1       1       6       1       1       6       1       1       6       1
       1       6       1       1       1       1       6       6       1       1
       1       6       1       1       1       1      16       6       6       6
       6       6       6       6       6      16       6       1       6       6
       1       6       6       6       1       6       1       1       1       6
       6       6       6       1       6       1       6       1       1       6
       1       1       6       1       1       1       6       1       1       6
       1       1       6       1       1       6       1       1       1       1
       6       6       1       1       1       6       1       1       1       1
      16       6       6       6       6       6       6       6       6      16
       6       1       6       6       1       6       6       6       1       6
       1       1       1       6       6       6       6       1       6       1
       6       1       1       6       1       1       6       1       1       1
       6       1       1       6       1       1       6       1       1       6
       1       1       1       1       6       6       1       1       1       6
       1       1       1       1      16       6       6       6       6       6
       6       6       6      16       6       1       6       6       1       6
       6       6       1       6       1       1       1       6       6       6
       6       1       6       1       6       1       1       6       1       1
       6       1       1       1       6       1       1       6       1       1
       6       1       1       6       1       1       1       1       6       6
       1       1       1       6       1       1       1       1      16       6
       6       6       6       6       6       6       6      16       6       1
       6       6       1       6       6       6       1       6       1       1
       1       6       6       6       6       1       6       1       6       1
       1       6       1       1       6       1       1       1       6       1
       1       6       1       1       6       1       1       6       1       1
       1       1       6       6       1       1       1       6       1       1
       1       1      16       6       6       6       6       6       6       6
       6      16       6       1       6       6       1       6       6       6
       1       6       1       1       1       6       6       6       6       1
       6       1       6       1       1       6       1       1       6       1
       1       1       6       1       1       6       1       1       6       1
       1       6       1       1       1       1       6       6       1       1
       1       6       1       1       1       1      16       6       6       6
       6       6       6       6       6      16       6       1       6       6
       1       6       6       6       1       6       1       1       1       6
       6       6       6       1       6       1       6       1       1       6
       1       1       6       1       1       1       6       1       1       6
       1       1       6       1       1       6       1       1       1       1
       6       6       1       1       1       6       1       1       1       1
      16       6       6       6       6       6       6       6       6      16
       6       1       6       6       1       6       6       6       1       6
       1       1       1       6       6       6       6       1       6       1
       6       1       1       6       1       1       6       1       1       1
       6       1       1       6       1       1       6       1       1       6
       1       1       1       1       6       6       1       1       1       6
       1       1       1       1      16       6       6       6       6       6
       6       6       6      16       6       1       6       6       1       6
       6       6       1       6       1       1       1       6       6       6
       6       1       6       1       6       1       1       6       1       1
       6       1       1       1       6       1       1       6       1       1
       6       1       1       6       1       1       1       1       6       6
       1       1       1       6       1       1       1       1      16       6
       6       6       6       6       6       6       6      16       6       1
       6       6       1       6       6       6       1       6       1       1
       1       6       6       6       6       1       6       1       6       1
       1       6       1       1       6       1       1       1       6       1
       1       6       1       1       6       1       1       6       1       1
       1       1       6       6       1       1       1       6       1       1
       1       1      16       6       6       6       6       6       6       6
       6      16       6       1       6       6       1       6       6       6
       1       6       1       1       1       6       6       6       6       1
       6       1       6       1       1       6       1       1       6       1
       1       1       6       1       1       6       1       1       6       1
       1       6       1       1       1       1       6       6       1       1
       1       6       1       1       1       1      16       6       6       6
       6       6       6       6       6      16       6       1       6       6
       1       6       6       6       1       6       1       1       1       6
       6       6       6       1       6       1       6       1       1       6
       1       1       6       1       1       1       6       1       1       6
       1       1       6       1       1       6       1       1       1       1
       6       6       1       1       1       6       1       1       1       1
      16       6       6       6       6       6       6       6       6      16
       6       1       6       6       1       6       6       6       1       6
       1       1       1       6       6       6       6       1       6       1
       6       1       1       6       1       1       6       1       1       1
       6       1       1       6       1       1       6       1       1       6
       1       1       1       1       6       6       1       1       1       6
       1       1       1       1      16       6       6       6       6       6
       6       6       6      16       6       1       6       6       1       6
       6       6       1       6       1       1       1       6       6       6
       6       1       6       1       6       1       1       6       1       1
       6       1       1       1       6       1       1       6       1       1
       6       1       1       6       1       1       1       1       6       6
       1       1       1       6       1       1       1       1      16       6
       6       6       6       6       6       6       6      16       6       1
       6       6       1       6       6       6       1       6       1       1
       1       6       6       6       6       1       6       1       6       1
       1       6       1       1       6       1       1       1       6       1
       1       6       1       1       6       1       1       6       1       1
       1       1       6       6       1       1       1       6       1       1
       1       1      16       6       6       6       6       6       6       6
       6      16       6       1       6       6       1       6       6       6
       1       6       1       1       1       6       6       6       6       1
       6       1       6       1       1       6       1       1       6       1
       1       1       6       1       1       6       1       1       6       1
       1       6       1       1       1       1       6       6       1       1
       1       6       1       1       1       1      16       6       6       6
       6       6       6       6       6      16       6       1       6       6
       1       6       6       6       1       6       1       1       1       6
       6       6       6       1       6       1       6       1       1       6
       1       1       6       1       1       1       6       1       1       6
       1       1       6       1       1       6       1       1       1       1
       6       6       1       1       1       6       1       1       1       1
      16       6       6       6       6       6       6       6       6      16
       6       1       6       6       1       6       6       6       1       6
       1       1       1       6       6       6       6       1       6       1
       6       1       1       6       1       1       6       1       1       1
       6       1       1       6       1       1       6       1       1       6
       1       1       1       1       6       6       1       1       1       6
       1       1       1       1      16       6       6       6       6       6
       6       6       6      16       6       1       6       6       1       6
       6       6       1       6       1       1       1       6       6       6
       6       1       6       1       6       1       1       6       1       1
       6       1       1       1       6       1       1       6       1       1
       6       1       1       6       1       1       1       1       6       6
       1       1       1       6       1       1       1       1      16       6
       6       6       6       6       6       6       6      16       6       1
       6       6       1       6       6       6       1       6       1       1
       1       6       6       6       6       1       6       1       6       1
       1       6       1       1       6       1       1       1       6       1
       1       6       1       1       6       1       1       6       1       1
       1       1       6       6       1       1       1       6       1       1
       1       1      16       6       6       6       6       6       6       6
       6      16       6       1       6       6       1       6       6       6
       1       6       1       1       1       6       6       6       6       1
       6       1       6       1       1       6       1       1       6       1
       1       1       6       1       1       6       1       1       6       1
       1       6       1       1       1       1       6       6       1       1
       1       6       1       1       1       1      16       6       6       6
       6       6       6       6       6      16       6       1       6       6
       1       6       6       6       1       6       1       1       1       6
       6       6       6       1       6       1       6       1       1       6
       1       1       6       1       1       1       6       1       1       6
       1       1       6       1       1       6       1       1       1       1
       6       6       1       1       1       6       1       1       1       1
      16       6       6       6       6       6       6       6       6      16
       6       1       6       6       1       6       6       6       1       6
       1       1       1       6       6       6       6       1       6       1
       6       1       1       6       1       1       6       1       1       1
       6       1       1       6       1       1       6       1       1       6
       1       1       1       1       6       6       1       1       1       6
       1       1       1       1      16       6       6       6       6       6
       6       6       6      16       6       1       6       6       1       6
       6       6       1       6       1       1       1       6       6       6
       6       1       6       1       6       1       1       6       1       1
       6       1       1       1       6       1       1       6       1       1
       6       1       1       6       1       1       1       1       6       6
       1       1       1       6       1       1       1       1      16       6
       6       6       6       6       6       6       6      16       6       1
       6       6       1       6       6       6       1       6       1       1
       1       6       6       6       6       1       6       1       6       1
       1       6       1       1       6       1       1       1       6       1
       1       6       1       1       6       1       1       6       1       1
       1       1       6       6       1       1       1       6       1       1
       1       1      16       6       6       6       6       6       6       6
       6      16       6       1       6       6       1       6       6       6
       1       6       1       1       1       6       6       6       6       1
       6       1       6       1       1       6       1       1       6       1
       1       1       6       1       1       6       1       1       6       1
       1       6       1       1       1       1       6       6       1       1
       1       6       1       1       1       1      16       6       6       6
       6       6       6       6       6      16       6       1       6       6
       1       6       6       6       1       6       1       1       1       6
       6       6       6       1       6       1       6       1       1       6
       1       1       6       1       1       1       6       1       1       6
       1       1       6       1       1       6       1       1       1       1
       6       6       1       1       1       6       1       1       1       1
      16       6       6       6       6       6       6       6       6      16
       6       1       6       6       1       6       6       6       1       6
       1       1       1       6       6       6       6       1       6       1
       6       1       1       6       1       1       6       1       1       1
       6       1       1       6       1       1       6       1       1       6
       1       1       1       1       6       6       1       1       1       6
       1       1       1       1      16       6       6       6       6       6
       6       6       6      16       6       1       6       6       1       6
       6       6       1       6       1       1       1       6       6       6
       6       1       6       1       6       1       1       6       1       1
       6       1       1       1       6       1       1       6       1       1
       6       1       1       6       1       1       1       1       6       6
       1       1       1       6       1       1       1       1      16       6
       6       6       6       6       6       6       6      16       6       1
       6       6       1       6       6       6       1       6       1       1
       1       6       6       6       6       1       6       1       6       1
       1       6       1       1       6       1       1       1       6       1
       1       6       1       1       6       1       1       6       1       1
       1       1       6       6       1       1       1       6       1       1
       1       1      16       6       6       6       6       6       6       6
       6      16       6       1       6       6       1       6       6       6
       1       6       1       1       1       6       6       6       6       1
       6       1       6       1       1       6       1       1       6       1
       1       1       6       1       1       6       1       1       6       1
       1       6       1       1       1       1       6       6       1       1
       1       6       1       1       1       1      16       6       6       6
       6       6       6       6       6      16       6       1       6       6
       1       6       6       6       1       6       1       1       1       6
       6       6       6       1       6       1       6       1       1       6
       1       1       6       1       1       1       6       1       1       6
       1       1       6       1       1       6       1       1       1       1
       6       6       1       1       1       6       1       1       1       1
      16       6       6       6       6       6       6       6       6      16
       6       1       6       6       1       6       6       6       1       6
       1       1       1       6       6       6       6       1       6       1
       6       1       1       6       1       1       6       1       1       1
       6       1       1       6       1       1       6       1       1       6
       1       1       1       1       6       6       1       1       1       6
       1       1       1       1      16       6       6       6       6       6
       6       6       6      16       6       1       6       6       1       6
       6       6       1       6       1       1       1       6       6       6
       6       1       6       1       6       1       1       6       1       1
       6       1       1       1       6       1       1       6       1       1
       6       1       1       6       1       1       1       1       6       6
       1       1       1       6       1       1       1       1      16       6
       6       6       6       6       6       6       6      16       6       1
       6       6       1       6       6       6       1       6       1       1
       1       6       6       6       6       1       6       1       6       1
       1       6       1       1       6       1       1       1       6       1
       1       6       1       1       6       1       1       6       1       1
       1       1       6       6       1       1       1       6       1       1
       1       1      16       6       6       6       6       6       6       6
       6      16       6       1       6       6       1       6       6       6
       1       6       1       1       1       6       6       6       6       1
       6       1       6       1       1       6       1       1       6       1
       1       1       6       1       1       6       1       1       6       1
       1       6       1       1       1       1       6       6       1       1
       1       6       1       1       1       1      16       6       6       6
       6       6       6       6       6      16       6       1       6       6
       1       6       6       6       1       6       1       1       1       6
       6       6       6       1       6       1       6       1       1       6
       1       1       6       1       1       1       6       1       1       6
       1       1       6       1       1       6       1       1       1       1
       6       6       1       1       1       6       1       1       1       1
      16       6       6       6       6       6       6       6       6      16
       6       1       6       6       1       6       6       6       1       6
       1       1       1       6       6       6       6       1       6       1
       6       1       1       6       1       1       6       1       1       1
       6       1       1       6       1       1       6       1       1       6
       1       1       1       1       6       6       1       1       1       6
       1       1       1       1      16       6       6       6       6       6
       6       6       6      16       6       1       6       6       1       6
       6       6       1       6       1       1       1       6       6       6
       6       1       6       1       6       1       1       6       1       1
       6       1       1       1       6       1       1       6       1       1
       6       1       1       6       1       1       1       1       6       6
       1       1       1       6       1       1       1       1      16       6
       6       6       6       6       6       6       6      16       6       1
       6       6       1       6       6       6       1       6       1       1
       1       6       6       6       6       1       6       1       6       1
       1       6       1       1       6       1       1       1       6       1
       1       6       1       1       6       1       1       6       1       1
       1       1       6       6       1       1       1       6       1       1
       1       1      16       6       6       6       6       6       6       6
       6      16       6       1       6       6       1       6       6       6
       1       6       1       1       1       6       6       6       6       1
       6       1       6       1       1       6       1       1       6       1
       1       1       6       1       1       6       1       1       6       1
       1       6       1       1       1       1       6       6       1       1
       1       6       1       1       1       1      16       6       6       6
       6       6       6       6       6      16       6       1       6       6
       1       6       6       6       1       6       1       1       1       6
       6       6       6       1       6       1       6       1       1       6
       1       1       6       1       1       1       6       1       1       6
       1       1       6       1       1       6       1       1       1       1
       6       6       1       1       1       6       1       1       1       1
      16       6       6       6       6       6       6       6       6      16
       6       1       6       6       1       6       6       6       1       6
       1       1       1       6       6       6       6       1       6       1
       6       1       1       6       1       1       6       1       1       1
       6       1       1       6       1       1       6       1       1       6
       1       1       1       1       6       6       1       1       1       6
       1       1       1       1      16       6       6       6       6       6
       6       6       6      16       6       1       6       6       1       6
       6       6       1       6       1       1       1       6       6       6
       6       1       6       1       6       1       1       6       1       1
       6       1       1       1       6       1       1       6       1       1
       6       1       1       6       1       1       1       1       6       6
       1       1       1       6       1       1       1       1      16       6
       6       6       6       6       6       6       6      16       6       1
       6       6       1       6       6       6       1       6       1       1
       1       6       6       6       6       1       6       1       6       1
       1       6       1       1       6       1       1       1       6       1
       1       6       1       1       6       1       1       6       1       1
       1       1       6       6       1       1       1       6       1       1
       1       1      16       6       6       6       6       6       6       6
       6      16       6       1       6       6       1       6       6       6
       1       6       1       1       1       6       6       6       6       1
       6       1       6       1       1       6       1       1       6       1
       1       1       6       1       1       6       1       1       6       1
       1       6       1       1       1       1       6       6       1       1
       1       6       1       1       1       1      16       6       6       6
       6       6       6       6       6      16       6       1       6       6
       1       6       6       6       1       6       1       1       1       6
       6       6       6       1       6       1       6       1       1       6
       1       1       6       1       1       1       6       1       1       6
       1       1       6       1       1       6       1       1       1       1
       6       6       1       1       1       6       1       1       1       1
      16       6       6       6       6       6       6       6       6      16
       6       1       6       6       1       6       6       6       1       6
       1       1       1       6       6       6       6       1       6       1
       6       1       1       6       1       1       6       1       1       1
       6       1       1       6       1       1       6       1       1       6
       1       1       1       1       6       6       1       1       1       6
       1       1       1       1      16       6       6       6       6       6
       6       6       6      16       6       1       6       6       1       6
       6       6       1       6       1       1       1       6       6       6
       6       1       6       1       6       1       1       6       1       1
       6       1       1       1       6       1       1       6       1       1
       6       1       1       6       1       1       1       1       6       6
       1       1       1       6       1       1       1       1      16       6
       6       6       6       6       6       6       6      16       6       1
       6       6       1       6       6       6       1       6       1       1
       1       6       6       6       6       1       6       1       6       1
       1       6       1       1       6       1       1       1       6       1
       1       6       1       1       6       1       1       6       1       1
       1       1       6       6       1       1       1       6       1       1
       1       1      16       6       6       6       6       6       6       6
       6      16       6       1       6       6       1       6       6       6
       1       6       1       1       1       6       6       6       6       1
       6       1       6       1       1       6       1       1       6       1
       1       1       6       1       1       6       1       1       6       1
       1       6       1       1       1       1       6       6       1       1
       1       6       1       1       1       1      16       6       6       6
       6       6       6       6       6      16       6       1       6       6
       1       6       6       6       1       6       1       1       1       6
       6       6       6       1       6       1       6       1       1       6
       1       1       6       1       1       1       6       1       1       6
       1       1       6       1       1       6       1       1       1       1
       6       6       1       1       1       6       1       1       1       1
      16       6       6       6       6       6       6       6       6      16
       6       1       6       6       1       6       6       6       1       6
       1       1       1       6       6       6       6       1       6       1
       6       1       1       6       1       1       6       1       1       1
       6       1       1       6       1       1       6       1       1       6
       1       1       1       1       6       6       1       1       1       6
       1       1       1       1      16       6       6       6       6       6
       6       6       6      16       6       1       6       6       1       6
       6       6       1       6       1       1       1       6       6       6
       6       1       6       1       6       1       1       6       1       1
       6       1       1       1       6       1       1       6       1       1
       6       1       1       6       1       1       1       1       6       6
       1       1       1       6       1       1       1       1      16       6
       6       6       6       6       6       6       6      16       6       1
       6       6       1       6       6       6       1       6       1       1
       1       6       6       6       6       1       6       1       6       1
       1       6       1       1       6       1       1       1       6       1
       1       6       1       1       6       1       1       6       1       1
       1       1       6       6       1       1       1       6       1       1
       1       1      16       6       6       6       6       6       6       6
       6      16       6       1       6       6       1       6       6       6
       1       6       1       1       1       6       6       6       6       1
       6       1       6       1       1       6       1       1       6       1
       1       1       6       1       1       6       1       1       6       1
       1       6       1       1       1       1       6       6       1       1
       1       6       1       1       1       1      16       6       6       6
       6       6       6       6       6      16       6       1       6       6
       1       6       6       6       1       6       1       1       1       6
       6       6       6       1       6       1       6       1       1       6
       1       1       6       1       1       1       6       1       1       6
       1       1       6       1       1       6       1       1       1       1
       6       6       1       1       1       6       1       1       1       1
      16       6       6       6       6       6       6       6       6      16
       6       1       6       6       1       6       6       6       1       6
       1       1       1       6       6       6       6       1       6       1
       6       1       1       6       1       1       6       1       1       1
       6       1       1       6       1       1       6       1       1       6
       1       1       1       1       6       6       1       1       1       6
       1       1       1       1      16       6       6       6       6       6
       6       6       6      16       6       1       6       6       1       6
       6       6       1       6       1       1       1       6       6       6
       6       1       6       1       6       1       1       6       1       1
       6       1       1       1       6       1       1       6       1       1
       6       1       1       6       1       1       1       1       6       6
       1       1       1       6       1       1       1       1      16       6
       6       6       6       6       6       6       6      16       6       1
       6       6       1       6       6       6       1       6       1       1
       1       6       6       6       6       1       6       1       6       1
       1       6       1       1       6       1       1       1       6       1
       1       6       1       1       6       1       1       6       1       1
       1       1       6       6       1       1       1       6       1       1
       1       1      16       6       6       6       6       6       6       6
       6      16       6       1       6       6       1       6       6       6
       1       6       1       1       1       6       6       6       6       1
       6       1       6       1       1       6       1       1       6       1
       1       1       6       1       1       6       1       1       6       1
       1       6       1       1       1       1       6       6       1       1
       1       6       1       1       1       1      16       6       6       6
       6       6       6       6       6      16       6       1       6       6
       1       6       6       6       1       6       1       1       1       6
       6       6       6       1       6       1       6       1       1       6
       1       1       6       1       1       1       6       1       1       6
       1       1       6       1       1       6       1       1       1       1
       6       6       1       1       1       6       1       1       1       1
      16       6       6       6       6       6       6       6       6      16
       6       1       6       6       1       6       6       6       1       6
       1       1       1       6       6       6       6       1       6       1
       6       1       1       6       1       1       6       1       1       1
       6       1       1       6       1       1       6       1       1       6
       1       1       1       1       6       6       1       1       1       6
       1       1       1       1      16       6       6       6       6       6
       6       6       6      16       6       1       6       6       1       6
       6       6       1       6       1       1       1       6       6       6
       6       1       6       1       6       1       1       6       1       1
       6       1       1       1       6       1       1       6       1       1
       6       1       1       6       1       1       1       1       6       6
       1       1       1       6       1       1       1       1      16       6
       6       6       6       6       6       6       6      16       6       1
       6       6       1       6       6       6       1       6       1       1
       1       6       6       6       6       1       6       1       6       1
       1       6       1       1       6       1       1       1       6       1
       1       6       1       1       6       1       1       6       1       1
       1       1       6       6       1       1       1       6       1       1
       1       1      16       6       6       6       6       6       6       6
       6      16       6       1       6       6       1       6       6       6
       1       6       1       1       1       6       6       6       6       1
       6       1       6       1       1       6       1       1       6       1
       1       1       6       1       1       6       1       1       6       1
       1       6       1       1       1       1       6       6       1       1
       1       6       1       1       1       1      16       6       6       6
       6       6       6       6       6      16       6       1       6       6
       1       6       6       6       1       6       1       1       1       6
       6       6       6       1       6       1       6       1       1       6
       1       1       6       1       1       1       6       1       1       6
       1       1       6       1       1       6       1       1       1       1
       6       6       1       1       1       6       1       1       1       1
      16       6       6       6       6       6       6       6       6      16
       6       1       6       6       1       6       6       6       1       6
       1       1       1       6       6       6       6       1       6       1
       6       1       1       6       1       1       6       1       1       1
       6       1       1       6       1       1       6       1       1       6
       1       1       1       1       6       6       1       1       1       6
       1       1       1       1      16       6       6       6       6       6
       6       6       6      16       6       1       6       6       1       6
       6       6       1       6       1       1       1       6       6       6
       6       1       6       1       6       1       1       6       1       1
       6       1       1       1       6       1       1       6       1       1
       6       1       1       6       1       1       1       1       6       6
       1       1       1       6       1       1       1       1      16       6
       6       6       6       6       6       6       6      16       6       1
       6       6       1       6       6       6       1       6       1       1
       1       6       6       6       6       1       6       1       6       1
       1       6       1       1       6       1       1       1       6       1
       1       6       1       1       6       1       1       6       1       1
       1       1       6       6       1       1       1       6       1       1
       1       1      16       6       6       6       6       6       6       6
       6      16       6       1       6       6       1       6       6       6
       1       6       1       1       1       6       6       6       6       1
       6       1       6       1       1       6       1       1       6       1
       1       1       6       1       1       6       1       1       6       1
       1       6       1       1       1       1       6       6       1       1
       1       6       1       1       1       1      16       6       6       6
       6       6       6       6       6      16       6       1       6       6
       1       6       6       6       1       6       1       1       1       6
       6       6       6       1       6       1       6       1       1       6
       1       1       6       1       1       1       6       1       1       6
       1       1       6       1       1       6       1       1       1       1
       6       6       1       1       1       6       1       1       1       1
      16       6       6       6       6       6       6       6       6      16
       6       1       6       6       1       6       6       6       1       6
       1       1       1       6       6       6       6       1       6       1
       6       1       1       6       1       1       6       1       1       1
       6       1       1       6       1       1       6       1       1       6
       1       1       1       1       6       6       1       1       1       6
       1       1       1       1      16       6       6       6       6       6
       6       6       6      16       6       1       6       6       1       6
       6       6       1       6       1       1       1       6       6       6
       6       1       6       1       6       1       1       6       1       1
       6       1       1       1       6       1       1       6       1       1
       6       1       1       6       1       1       1       1       6       6
       1       1       1       6       1       1       1       1      16       6
       6       6       6       6       6       6       6      16       6       1
       6       6       1       6       6       6       1       6       1       1
       1       6       6       6       6       1       6       1       6       1
       1       6       1       1       6       1       1       1       6       1
       1       6       1       1       6       1       1       6       1       1
       1       1       6       6       1       1       1       6       1       1
       1       1      16       6       6       6       6       6       6       6
       6      16       6       1       6       6       1       6       6       6
       1       6       1       1       1       6       6       6       6       1
       6       1       6       1       1       6       1       1       6       1
       1       1       6       1       1       6       1       1       6       1
       1       6       1       1       1       1       6       6       1       1
       1       6       1       1       1       1      16       6       6       6
       6       6       6       6       6      16       6       1       6       6
       1       6       6       6       1       6       1       1       1       6
       6       6       6       1       6       1       6       1       1       6
       1       1       6       1       1       1       6       1       1       6
       1       1       6       1       1       6       1       1       1       1
       6       6       1       1       1       6       1       1       1       1
      16       6       6       6       6       6       6       6       6      16
       6       1       6       6       1       6       6       6       1       6
       1       1       1       6       6       6       6       1       6       1
       6       1       1       6       1       1       6       1       1       1
       6       1       1       6       1       1       6       1       1       6
       1       1       1       1       6       6       1       1       1       6
       1       1       1       1      16       6       6       6       6       6
       6       6       6      16       6       1       6       6       1       6
       6       6       1       6       1       1       1       6       6       6
       6       1       6       1       6       1       1       6       1       1
       6       1       1       1       6       1       1       6       1       1
       6       1       1       6       1       1       1       1       6       6
       1       1       1       6       1       1       1       1      16       6
       6       6       6       6       6       6       6      16       6       1
       6       6       1       6       6       6       1       6       1       1
       1       6       6       6       6       1       6       1       6       1
       1       6       1       1       6       1       1       1       6       1
       1       6       1       1       6       1       1       6       1       1
       1       1       6       6       1       1       1       6       1       1
       1       1      16       6       6       6       6       6       6       6
       6      16       6       1       6       6       1       6       6       6
       1       6       1       1       1       6       6       6       6       1
       6       1       6       1       1       6       1       1       6       1
       1       1       6       1       1       6       1       1       6       1
       1       6       1       1       1       1       6       6       1       1
       1       6       1       1       1       1      16       6       6       6
       6       6       6       6       6      16       6       1       6       6
       1       6       6       6       1       6       1       1       1       6
       6       6       6       1       6       1       6       1       1       6
       1       1       6       1       1       1       6       1       1       6
       1       1       6       1       1       6       1       1       1       1
       6       6       1       1       1       6       1       1       1       1
      16       6       6       6       6       6       6       6       6      16
       6       1       6       6       1       6       6       6       1       6
       1       1       1       6       6       6       6       1       6       1
       6       1       1       6       1       1       6       1       1       1
       6       1       1       6       1       1       6       1       1       6
       1       1       1       1       6       6       1       1       1       6
       1       1       1       1      16       6       6       6       6       6
       6       6       6      16       6       1       6       6       1       6
       6       6       1       6       1       1       1       6       6       6
       6       1       6       1       6       1       1       6       1       1
       6       1       1       1       6       1       1       6       1       1
       6       1       1       6       1       1       1       1       6       6
       1       1       1       6       1       1       1       1      16       6
       6       6       6       6       6       6       6      16       6       1
       6       6       1       6       6       6       1       6       1       1
       1       6       6       6       6       1       6       1       6       1
       1       6       1       1       6       1       1       1       6       1
       1       6       1       1       6       1       1       6       1       1
       1       1       6       6       1       1       1       6       1       1
       1       1      16       6       6       6       6       6       6       6
       6      16       6       1       6       6       1       6       6       6
       1       6       1       1       1       6       6       6       6       1
       6       1       6       1       1       6       1       1       6       1
       1       1       6       1       1       6       1       1       6       1
       1       6       1       1       1       1       6       6       1       1
       1       6       1       1       1       1      16       6       6       6
       6       6       6       6       6      16       6       1       6       6
       1       6       6       6       1       6       1       1       1       6
       6       6       6       1       6       1       6       1       1       6
       1       1       6       1       1       1       6       1       1       6
       1       1       6       1       1       6       1       1       1       1
       6       6       1       1       1       6       1       1       1       1
      16       6       6       6       6       6       6       6       6      16
       6       1       6       6       1       6       6       6       1       6
       1       1       1       6       6       6       6       1       6       1
       6       1       1       6       1       1       6       1       1       1
       6       1       1       6       1       1       6       1       1       6
       1       1       1       1       6       6       1       1       1       6
       1       1       1       1      16       6       6       6       6       6
       6       6       6      16       6       1       6       6       1       6
       6       6       1       6       1       1       1       6       6       6
       6       1       6       1       6       1       1       6       1       1
       6       1       1       1       6       1       1       6       1       1
       6       1       1       6       1       1       1       1       6       6
       1       1       1       6       1       1       1       1      16       6
       6       6       6       6       6       6       6      16       6       1
       6       6       1       6       6       6       1       6       1       1
       1       6       6       6       6       1       6       1       6       1
       1       6       1       1       6       1       1       1       6       1
       1       6       1       1       6       1       1       6       1       1
       1       1       6       6       1       1       1       6       1       1
       1       1      16       6       6       6       6       6       6       6
       6      16       6       1       6       6       1       6       6       6
       1       6       1       1       1       6       6       6       6       1
       6       1       6       1       1       6       1       1       6       1
       1       1       6       1       1       6       1       1       6       1
       1       6       1       1       1       1       6       6       1       1
       1       6       1       1       1       1      16       6       6       6
       6       6       6       6       6      16       6       1       6       6
       1       6       6       6       1       6       1       1       1       6
       6       6       6       1       6       1       6       1       1       6
       1       1       6       1       1       1       6       1       1       6
       1       1       6       1       1       6       1       1       1       1
       6       6       1       1       1       6       1       1       1       1
      16       6       6       6       6       6       6       6       6      16
       6       1       6       6       1       6       6       6       1       6
       1       1       1       6       6       6       6       1       6       1
       6       1       1       6       1       1       6       1       1       1
       6       1       1       6       1       1       6       1       1       6
       1       1       1       1       6       6       1       1       1       6
       1       1       1       1      16       6       6       6       6       6
       6       6       6      16       6       1       6       6       1       6
       6       6       1       6       1       1       1       6       6       6
       6       1       6       1       6       1       1       6       1       1
       6       1       1       1       6       1       1       6       1       1
       6       1       1       6       1       1       1       1       6       6
       1       1       1       6       1       1       1       1      16       6
       6       6       6       6       6       6       6      16       6       1
       6       6       1       6       6       6       1       6       1       1
       1       6       6       6       6       1       6       1       6       1
       1       6       1       1       6       1       1       1       6       1
       1       6       1       1       6       1       1       6       1       1
       1       1       6       6       1       1       1       6       1       1
       1       1      16       6       6       6       6       6       6       6
       6      16       6       1       6       6       1       6       6       6
       1       6       1       1       1       6       6       6       6       1
       6       1       6       1       1       6       1       1       6       1
       1       1       6       1       1       6       1       1       6       1
       1       6       1       1       1       1       6       6       1       1
       1       6       1       1       1       1      16       6       6       6
       6       6       6       6       6      16       6       1       6       6
       1       6       6       6       1       6       1       1       1       6
       6       6       6       1       6       1       6       1       1       6
       1       1       6       1       1       1       6       1       1       6
       1       1       6       1       1       6       1       1       1       1
       6       6       1       1       1       6       1       1       1       1
      16       6       6       6       6       6       6       6       6      16
       6       1       6       6       1       6       6       6       1       6
       1       1       1       6       6       6       6       1       6       1
       6       1       1       6       1       1       6       1       1       1
       6       1       1       6       1       1       6       1       1       6
       1       1       1       1       6       6       1       1       1       6
       1       1       1       1      16       6       6       6       6       6
       6       6       6      16       6       1       6       6       1       6
       6       6       1       6       1       1       1       6       6       6
       6       1       6       1       6       1       1       6       1       1
       6       1       1       1       6       1       1       6       1       1
       6       1       1       6       1       1       1       1       6       6
       1       1       1       6       1       1       1       1      16       6
       6       6       6       6       6       6       6      16       6       1
       6       6       1       6       6       6       1       6       1       1
       1       6       6       6       6       1       6       1       6       1
       1       6       1       1       6       1       1       1       6       1
       1       6       1       1       6       1       1       6       1       1
       1       1       6       6       1       1       1       6       1       1
       1       1      16       6       6       6       6       6       6       6
       6      16       6       1       6       6       1       6       6       6
       1       6       1       1       1       6       6       6       6       1
       6       1       6       1       1       6       1       1       6       1
       1       1       6       1       1       6       1       1       6       1
       1       6       1       1       1       1       6       6       1       1
       1       6       1       1       1       1      16       6       6       6
       6       6       6       6       6      16       6       1       6       6
       1       6       6       6       1       6       1       1       1       6
       6       6       6       1       6       1       6       1       1       6
       1       1       6       1       1       1       6       1       1       6
       1       1       6       1       1       6       1       1       1       1
       6       6       1       1       1       6       1       1       1       1
      16       6       6       6       6       6       6       6       6      16
       6       1       6       6       1       6       6       6       1       6
       1       1       1       6       6       6       6       1       6       1
       6       1       1       6       1       1       6       1       1       1
       6       1       1       6       1       1       6       1       1       6
       1       1       1       1       6       6       1       1       1       6
       1       1       1       1      16       6       6       6       6       6
       6       6       6      16       6       1       6       6       1       6
       6       6       1       6       1       1       1       6       6       6
       6       1       6       1       6       1       1       6       1       1
       6       1       1       1       6       1       1       6       1       1
       6       1       1       6       1       1       1       1       6       6
       1       1       1       6       1       1       1       1      16       6
       6       6       6       6       6       6       6      16       6       1
       6       6       1       6       6       6       1       6       1       1
       1       6       6       6       6       1       6       1       6       1
       1       6       1       1       6       1       1       1       6       1
       1       6       1       1       6       1       1       6       1       1
       1       1       6       6       1       1       1       6       1       1
       1       1      16       6       6       6       6       6       6       6
       6      16       6       1       6       6       1       6       6       6
       1       6       1       1       1       6       6       6       6       1
       6       1       6       1       1       6       1       1       6       1
       1       1       6       1       1       6       1       1       6       1
       1       6       1       1       1       1       6       6       1       1
       1       6       1       1       1       1      16       6       6       6
       6       6       6       6       6      16       6       1       6       6
       1       6       6       6       1       6       1       1       1       6
       6       6       6       1       6       1       6       1       1       6
       1       1       6       1       1       1       6       1       1       6
       1       1       6       1       1       6       1       1       1       1
       6       6       1       1       1       6       1       1       1       1
      16       6       6       6       6       6       6       6       6      16
       6       1       6       6       1       6       6       6       1       6
       1       1       1       6       6       6       6       1       6       1
       6       1       1       6       1       1       6       1       1       1
       6       1       1       6       1       1       6       1       1       6
       1       1       1       1       6       6       1       1       1       6
       1       1       1       1      16       6       6       6       6       6
       6       6       6      16       6       1       6       6       1       6
       6       6       1       6       1       1       1       6       6       6
       6       1       6       1       6       1       1       6       1       1
       6       1       1       1       6       1       1       6       1       1
       6       1       1       6       1       1       1       1       6       6
       1       1       1       6       1       1       1       1      16       6
       6       6       6       6       6       6       6      16       6       1
       6       6       1       6       6       6       1       6       1       1
       1       6       6       6       6       1       6       1       6       1
       1       6       1       1       6       1       1       1       6       1
       1       6       1       1       6       1       1       6       1       1
       1       1       6       6       1       1       1       6       1       1
       1       1
%FLAG MASS                                                                      
%FORMAT(5E16.8)                                                                 
  3.20600000E+01  1.20100000E+01  1.20100000E+01  1.20100000E+01  1.20100000E+01
  1.20100000E+01  1.20100000E+01  1.20100000E+01  1.20100000E+01  3.20600000E+01
  1.20100000E+01  1.00800000E+00  1.20100000E+01  1.20100000E+01  1.00800000E+00
  1.20100000E+01  1.20100000E+01  1.20100000E+01  1.00800000E+00  1.20100000E+01
  1.00800000E+00  1.00800000E+00  1.00800000E+00  1.20100000E+01  1.20100000E+01
  1.20100000E+01  1.20100000E+01  1.00800000E+00  1.20100000E+01  1.00800000E+00
  1.20100000E+01  1.00800000E+00  1.00800000E+00  1.20100000E+01  1.00800000E+00
  1.00800000E+00  1.20100000E+01  1.00800000E+00  1.00800000E+00  1.00800000E+00
  1.20100000E+01  1.00800000E+00  1.00800000E+00  1.20100000E+01  1.00800000E+00
  1.00800000E+00  1.20100000E+01  1.00800000E+00  1.00800000E+00  1.20100000E+01
  1.00800000E+00  1.00800000E+00  1.00800000E+00  1.00800000E+00  1.20100000E+01
  1.20100000E+01  1.00800000E+00  1.00800000E+00  1.00800000E+00  1.20100000E+01
  1.00800000E+00  1.00800000E+00  1.00800000E+00  1.00800000E+00  3.20600000E+01
  1.20100000E+01  1.20100000E+01  1.20100000E+01  1.20100000E+01  1.20100000E+01
  1.20100000E+01  1.20100000E+01  1.20100000E+01  3.20600000E+01  1.20100000E+01
  1.00800000E+00  1.20100000E+01  1.20100000E+01  1.00800000E+00  1.20100000E+01
  1.20100000E+01  1.20100000E+01  1.00800000E+00  1.20100000E+01  1.00800000E+00
  1.00800000E+00  1.00800000E+00  1.20100000E+01  1.20100000E+01  1.20100000E+01
  1.20100000E+01  1.00800000E+00  1.20100000E+01  1.00800000E+00  1.20100000E+01
  1.00800000E+00  1.00800000E+00  1.20100000E+01  1.00800000E+00  1.00800000E+00
  1.20100000E+01  1.00800000E+00  1.00800000E+00  1.00800000E+00  1.20100000E+01
  1.00800000E+00  1.00800000E+00  1.20100000E+01  1.00800000E+00  1.00800000E+00
  1.20100000E+01  1.00800000E+00  1.00800000E+00  1.20100000E+01  1.00800000E+00
  1.00800000E+00  1.00800000E+00  1.00800000E+00  1.20100000E+01  1.20100000E+01
  1.00800000E+00  1.00800000E+00  1.00800000E+00  1.20100000E+01  1.00800000E+00
  1.00800000E+00  1.00800000E+00  1.00800000E+00  3.20600000E+01  1.20100000E+01
  1.20100000E+01  1.20100000E+01  1.20100000E+01  1.20100000E+01  1.20100000E+01
  1.20100000E+01  1.20100000E+01  3.20600000E+01  1.20100000E+01  1.00800000E+00
  1.20100000E+01  1.20100000E+01  1.00800000E+00  1.20100000E+01  1.20100000E+01
  1.20100000E+01  1.00800000E+00  1.20100000E+01  1.00800000E+00  1.00800000E+00
  1.00800000E+00  1.20100000E+01  1.20100000E+01  1.20100000E+01  1.20100000E+01
  1.00800000E+00  1.20100000E+01  1.00800000E+00  1.20100000E+01  1.00800000E+00
  1.00800000E+00  1.20100000E+01  1.00800000E+00  1.00800000E+00  1.20100000E+01
  1.00800000E+00  1.00800000E+00  1.00800000E+00  1.20100000E+01  1.00800000E+00
  1.00800000E+00  1.20100000E+01  1.00800000E+00  1.00800000E+00  1.20100000E+01
  1.00800000E+00  1.00800000E+00  1.20100000E+01  1.00800000E+00  1.00800000E+00
  1.00800000E+00  1.00800000E+00  1.20100000E+01  1.20100000E+01  1.00800000E+00
  1.00800000E+00  1.00800000E+00  1.20100000E+01  1.00800000E+00  1.00800000E+00
  1.00800000E+00  1.00800000E+00  3.20600000E+01  1.20100000E+01  1.20100000E+01
  1.20100000E+01  1.20100000E+01  1.20100000E+01  1.20100000E+01  1.20100000E+01
  1.20100000E+01  3.20600000E+01  1.20100000E+01  1.00800000E+00  1.20100000E+01
  1.20100000E+01  1.00800000E+00  1.20100000E+01  1.20100000E+01  1.20100000E+01
  1.00800000E+00  1.20100000E+01  1.00800000E+00  1.00800000E+00  1.00800000E+00
  1.20100000E+01  1.20100000E+01  1.20100000E+01  1.20100000E+01  1.00800000E+00
  1.20100000E+01  1.00800000E+00  1.20100000E+01  1.00800000E+00  1.00800000E+00
  1.20100000E+01  1.00800000E+00  1.00800000E+00  1.20100000E+01  1.00800000E+00
  1.00800000E+00  1.00800000E+00  1.20100000E+01  1.00800000E+00  1.00800000E+00
  1.20100000E+01  1.00800000E+00  1.00800000E+00  1.20100000E+01  1.00800000E+00
  1.00800000E+00  1.20100000E+01  1.00800000E+00  1.00800000E+00  1.00800000E+00
  1.00800000E+00  1.20100000E+01  1.20100000E+01  1.00800000E+00  1.00800000E+00
  1.00800000E+00  1.20100000E+01  1.00800000E+00  1.00800000E+00  1.00800000E+00
  1.00800000E+00  3.20600000E+01  1.20100000E+01  1.20100000E+01  1.20100000E+01
  1.20100000E+01  1.20100000E+01  1.20100000E+01  1.20100000E+01  1.20100000E+01
  3.20600000E+01  1.20100000E+01  1.00800000E+00  1.20100000E+01  1.20100000E+01
  1.00800000E+00  1.20100000E+01  1.20100000E+01  1.20100000E+01  1.00800000E+00
  1.20100000E+01  1.00800000E+00  1.00800000E+00  1.00800000E+00  1.20100000E+01
  1.20100000E+01  1.20100000E+01  1.20100000E+01  1.00800000E+00  1.20100000E+01
  1.00800000E+00  1.20100000E+01  1.00800000E+00  1.00800000E+00  1.20100000E+01
  1.00800000E+00  1.00800000E+00  1.20100000E+01  1.00800000E+00  1.00800000E+00
  1.00800000E+00  1.20100000E+01  1.00800000E+00  1.00800000E+00  1.20100000E+01
  1.00800000E+00  1.00800000E+00  1.20100000E+01  1.00800000E+00  1.00800000E+00
  1.20100000E+01  1.00800000E+00  1.00800000E+00  1.00800000E+00  1.00800000E+00
  1.20100000E+01  1.20100000E+01  1.00800000E+00  1.00800000E+00  1.00800000E+00
  1.20100000E+01  1.00800000E+00  1.00800000E+00  1.00800000E+00  1.00800000E+00
  3.20600000E+01  1.20100000E+01  1.20100000E+01  1.20100000E+01  1.20100000E+01
  1.20100000E+01  1.20100000E+01  1.20100000E+01  1.20100000E+01  3.20600000E+01
  1.20100000E+01  1.00800000E+00  1.20100000E+01  1.20100000E+01  1.00800000E+00
  1.20100000E+01  1.20100000E+01  1.20100000E+01  1.00800000E+00  1.20100000E+01
  1.00800000E+00  1.00800000E+00  1.00800000E+00  1.20100000E+01  1.20100000E+01
  1.20100000E+01  1.20100000E+01  1.00800000E+00  1.20100000E+01  1.00800000E+00
  1.20100000E+01  1.00800000E+00  1.00800000E+00  1.20100000E+01  1.00800000E+00
  1.00800000E+00  1.20100000E+01  1.00800000E+00  1.00800000E+00  1.00800000E+00
  1.20100000E+01  1.00800000E+00  1.00800000E+00  1.20100000E+01  1.00800000E+00
  1.00800000E+00  1.20100000E+01  1.00800000E+00  1.00800000E+00  1.20100000E+01
  1.00800000E+00  1.00800000E+00  1.00800000E+00  1.00800000E+00  1.20100000E+01
  1.20100000E+01  1.00800000E+00  1.00800000E+00  1.00800000E+00  1.20100000E+01
  1.00800000E+00  1.00800000E+00  1.00800000E+00  1.00800000E+00  3.20600000E+01
  1.20100000E+01  1.20100000E+01  1.20100000E+01  1.20100000E+01  1.20100000E+01
  1.20100000E+01  1.20100000E+01  1.20100000E+01  3.20600000E+01  1.20100000E+01
  1.00800000E+00  1.20100000E+01  1.20100000E+01  1.00800000E+00  1.20100000E+01
  1.20100000E+01  1.20100000E+01  1.00800000E+00  1.20100000E+01  1.00800000E+00
  1.00800000E+00  1.00800000E+00  1.20100000E+01  1.20100000E+01  1.20100000E+01
  1.20100000E+01  1.00800000E+00  1.20100000E+01  1.00800000E+00  1.20100000E+01
  1.00800000E+00  1.00800000E+00  1.20100000E+01  1.00800000E+00  1.00800000E+00
  1.20100000E+01  1.00800000E+00  1.00800000E+00  1.00800000E+00  1.20100000E+01
  1.00800000E+00  1.00800000E+00  1.20100000E+01  1.00800000E+00  1.00800000E+00
  1.20100000E+01  1.00800000E+00  1.00800000E+00  1.20100000E+01  1.00800000E+00
  1.00800000E+00  1.00800000E+00  1.00800000E+00  1.20100000E+01  1.20100000E+01
  1.00800000E+00  1.00800000E+00  1.00800000E+00  1.20100000E+01  1.00800000E+00
  1.00800000E+00  1.00800000E+00  1.00800000E+00  3.20600000E+01  1.20100000E+01
  1.20100000E+01  1.20100000E+01  1.20100000E+01  1.20100000E+01  1.20100000E+01
  1.20100000E+01  1.20100000E+01  3.20600000E+01  1.20100000E+01  1.00800000E+00
  1.20100000E+01  1.20100000E+01  1.00800000E+00  1.20100000E+01  1.20100000E+01
  1.20100000E+01  1.00800000E+00  1.20100000E+01  1.00800000E+00  1.00800000E+00
  1.00800000E+00  1.20100000E+01  1.20100000E+01  1.20100000E+01  1.20100000E+01
  1.00800000E+00  1.20100000E+01  1.00800000E+00  1.20100000E+01  1.00800000E+00
  1.00800000E+00  1.20100000E+01  1.00800000E+00  1.00800000E+00  1.20100000E+01
  1.00800000E+00  1.00800000E+00  1.00800000E+00  1.20100000E+01  1.00800000E+00
  1.00800000E+00  1.20100000E+01  1.00800000E+00  1.00800000E+00  1.20100000E+01
  1.00800000E+00  1.00800000E+00  1.20100000E+01  1.00800000E+00  1.00800000E+00
  1.00800000E+00  1.00800000E+00  1.20100000E+01  1.20100000E+01  1.00800000E+00
  1.00800000E+00  1.00800000E+00  1.20100000E+01  1.00800000E+00  1.00800000E+00
  1.00800000E+00  1.00800000E+00  3.20600000E+01  1.20100000E+01  1.20100000E+01
  1.20100000E+01  1.20100000E+01  1.20100000E+01  1.20100000E+01  1.20100000E+01
  1.20100000E+01  3.20600000E+01  1.20100000E+01  1.00800000E+00  1.20100000E+01
  1.20100000E+01  1.00800000E+00  1.20100000E+01  1.20100000E+01  1.20100000E+01
  1.00800000E+00  1.20100000E+01  1.00800000E+00  1.00800000E+00  1.00800000E+00
  1.20100000E+01  1.20100000E+01  1.20100000E+01  1.20100000E+01  1.00800000E+00
  1.20100000E+01  1.00800000E+00  1.20100000E+01  1.00800000E+00  1.00800000E+00
  1.20100000E+01  1.00800000E+00  1.00800000E+00  1.20100000E+01  1.00800000E+00
  1.00800000E+00  1.00800000E+00  1.20100000E+01  1.00800000E+00  1.00800000E+00
  1.20100000E+01  1.00800000E+00  1.00800000E+00  1.20100000E+01  1.00800000E+00
  1.00800000E+00  1.20100000E+01  1.00800000E+00  1.00800000E+00  1.00800000E+00
  1.00800000E+00  1.20100000E+01  1.20100000E+01  1.00800000E+00  1.00800000E+00
  1.00800000E+00  1.20100000E+01  1.00800000E+00  1.00800000E+00  1.00800000E+00
  1.00800000E+00  3.20600000E+01  1.20100000E+01  1.20100000E+01  1.20100000E+01
  1.20100000E+01  1.20100000E+01  1.20100000E+01  1.20100000E+01  1.20100000E+01
  3.20600000E+01  1.20100000E+01  1.00800000E+00  1.20100000E+01  1.20100000E+01
  1.00800000E+00  1.20100000E+01  1.20100000E+01  1.20100000E+01  1.00800000E+00
  1.20100000E+01  1.00800000E+00  1.00800000E+00  1.00800000E+00  1.20100000E+01
  1.20100000E+01  1.20100000E+01  1.20100000E+01  1.00800000E+00  1.20100000E+01
  1.00800000E+00  1.20100000E+01  1.00800000E+00  1.00800000E+00  1.20100000E+01
  1.00800000E+00  1.00800000E+00  1.20100000E+01  1.00800000E+00  1.00800000E+00
  1.00800000E+00  1.20100000E+01  1.00800000E+00  1.00800000E+00  1.20100000E+01
  1.00800000E+00  1.00800000E+00  1.20100000E+01  1.00800000E+00  1.00800000E+00
  1.20100000E+01  1.00800000E+00  1.00800000E+00  1.00800000E+00  1.00800000E+00
  1.20100000E+01  1.20100000E+01  1.00800000E+00  1.00800000E+00  1.00800000E+00
  1.20100000E+01  1.00800000E+00  1.00800000E+00  1.00800000E+00  1.00800000E+00
  3.20600000E+01  1.20100000E+01  1.20100000E+01  1.20100000E+01  1.20100000E+01
  1.20100000E+01  1.20100000E+01  1.20100000E+01  1.20100000E+01  3.20600000E+01
  1.20100000E+01  1.00800000E+00  1.20100000E+01  1.20100000E+01  1.00800000E+00
  1.20100000E+01  1.20100000E+01  1.20100000E+01  1.00800000E+00  1.20100000E+01
  1.00800000E+00  1.00800000E+00  1.00800000E+00  1.20100000E+01  1.20100000E+01
  1.20100000E+01  1.20100000E+01  1.00800000E+00  1.20100000E+01  1.00800000E+00
  1.20100000E+01  1.00800000E+00  1.00800000E+00  1.20100000E+01  1.00800000E+00
  1.00800000E+00  1.20100000E+01  1.00800000E+00  1.00800000E+00  1.00800000E+00
  1.20100000E+01  1.00800000E+00  1.00800000E+00  1.20100000E+01  1.00800000E+00
  1.00800000E+00  1.20100000E+01  1.00800000E+00  1.00800000E+00  1.20100000E+01
  1.00800000E+00  1.00800000E+00  1.00800000E+00  1.00800000E+00  1.20100000E+01
  1.20100000E+01  1.00800000E+00  1.00800000E+00  1.00800000E+00  1.20100000E+01
  1.00800000E+00  1.00800000E+00  1.00800000E+00  1.00800000E+00  3.20600000E+01
  1.20100000E+01  1.20100000E+01  1.20100000E+01  1.20100000E+01  1.20100000E+01
  1.20100000E+01  1.20100000E+01  1.20100000E+01  3.20600000E+01  1.20100000E+01
  1.00800000E+00  1.20100000E+01  1.20100000E+01  1.00800000E+00  1.20100000E+01
  1.20100000E+01  1.20100000E+01  1.00800000E+00  1.20100000E+01  1.00800000E+00
  1.00800000E+00  1.00800000E+00  1.20100000E+01  1.20100000E+01  1.20100000E+01
  1.20100000E+01  1.00800000E+00  1.20100000E+01  1.00800000E+00  1.20100000E+01
  1.00800000E+00  1.00800000E+00  1.20100000E+01  1.00800000E+00  1.00800000E+00
  1.20100000E+01  1.00800000E+00  1.00800000E+00  1.00800000E+00  1.20100000E+01
  1.00800000E+00  1.00800000E+00  1.20100000E+01  1.00800000E+00  1.00800000E+00
  1.20100000E+01  1.00800000E+00  1.00800000E+00  1.20100000E+01  1.00800000E+00
  1.00800000E+00  1.00800000E+00  1.00800000E+00  1.20100000E+01  1.20100000E+01
  1.00800000E+00  1.00800000E+00  1.00800000E+00  1.20100000E+01  1.00800000E+00
  1.00800000E+00  1.00800000E+00  1.00800000E+00  3.20600000E+01  1.20100000E+01
  1.20100000E+01  1.20100000E+01  1.20100000E+01  1.20100000E+01  1.20100000E+01
  1.20100000E+01  1.20100000E+01  3.20600000E+01  1.20100000E+01  1.00800000E+00
  1.20100000E+01  1.20100000E+01  1.00800000E+00  1.20100000E+01  1.20100000E+01
  1.20100000E+01  1.00800000E+00  1.20100000E+01  1.00800000E+00  1.00800000E+00
  1.00800000E+00  1.20100000E+01  1.20100000E+01  1.20100000E+01  1.20100000E+01
  1.00800000E+00  1.20100000E+01  1.00800000E+00  1.20100000E+01  1.00800000E+00
  1.00800000E+00  1.20100000E+01  1.00800000E+00  1.00800000E+00  1.20100000E+01
  1.00800000E+00  1.00800000E+00  1.00800000E+00  1.20100000E+01  1.00800000E+00
  1.00800000E+00  1.20100000E+01  1.00800000E+00  1.00800000E+00  1.20100000E+01
  1.00800000E+00  1.00800000E+00  1.20100000E+01  1.00800000E+00  1.00800000E+00
  1.00800000E+00  1.00800000E+00  1.20100000E+01  1.20100000E+01  1.00800000E+00
  1.00800000E+00  1.00800000E+00  1.20100000E+01  1.00800000E+00  1.00800000E+00
  1.00800000E+00  1.00800000E+00  3.20600000E+01  1.20100000E+01  1.20100000E+01
  1.20100000E+01  1.20100000E+01  1.20100000E+01  1.20100000E+01  1.20100000E+01
  1.20100000E+01  3.20600000E+01  1.20100000E+01  1.00800000E+00  1.20100000E+01
  1.20100000E+01  1.00800000E+00  1.20100000E+01  1.20100000E+01  1.20100000E+01
  1.00800000E+00  1.20100000E+01  1.00800000E+00  1.00800000E+00  1.00800000E+00
  1.20100000E+01  1.20100000E+01  1.20100000E+01  1.20100000E+01  1.00800000E+00
  1.20100000E+01  1.00800000E+00  1.20100000E+01  1.00800000E+00  1.00800000E+00
  1.20100000E+01  1.00800000E+00  1.00800000E+00  1.20100000E+01  1.00800000E+00
  1.00800000E+00  1.00800000E+00  1.20100000E+01  1.00800000E+00  1.00800000E+00
  1.20100000E+01  1.00800000E+00  1.00800000E+00  1.20100000E+01  1.00800000E+00
  1.00800000E+00  1.20100000E+01  1.00800000E+00  1.00800000E+00  1.00800000E+00
  1.00800000E+00  1.20100000E+01  1.20100000E+01  1.00800000E+00  1.00800000E+00
  1.00800000E+00  1.20100000E+01  1.00800000E+00  1.00800000E+00  1.00800000E+00
  1.00800000E+00  3.20600000E+01  1.20100000E+01  1.20100000E+01  1.20100000E+01
  1.20100000E+01  1.20100000E+01  1.20100000E+01  1.20100000E+01  1.20100000E+01
  3.20600000E+01  1.20100000E+01  1.00800000E+00  1.20100000E+01  1.20100000E+01
  1.00800000E+00  1.20100000E+01  1.20100000E+01  1.20100000E+01  1.00800000E+00
  1.20100000E+01  1.00800000E+00  1.00800000E+00  1.00800000E+00  1.20100000E+01
  1.20100000E+01  1.20100000E+01  1.20100000E+01  1.00800000E+00  1.20100000E+01
  1.00800000E+00  1.20100000E+01  1.00800000E+00  1.00800000E+00  1.20100000E+01
  1.00800000E+00  1.00800000E+00  1.20100000E+01  1.00800000E+00  1.00800000E+00
  1.00800000E+00  1.20100000E+01  1.00800000E+00  1.00800000E+00  1.20100000E+01
  1.00800000E+00  1.00800000E+00  1.20100000E+01  1.00800000E+00  1.00800000E+00
  1.20100000E+01  1.00800000E+00  1.00800000E+00  1.00800000E+00  1.00800000E+00
  1.20100000E+01  1.20100000E+01  1.00800000E+00  1.00800000E+00  1.00800000E+00
  1.20100000E+01  1.00800000E+00  1.00800000E+00  1.00800000E+00  1.00800000E+00
  3.20600000E+01  1.20100000E+01  1.20100000E+01  1.20100000E+01  1.20100000E+01
  1.20100000E+01  1.20100000E+01  1.20100000E+01  1.20100000E+01  3.20600000E+01
  1.20100000E+01  1.00800000E+00  1.20100000E+01  1.20100000E+01  1.00800000E+00
  1.20100000E+01  1.20100000E+01  1.20100000E+01  1.00800000E+00  1.20100000E+01
  1.00800000E+00  1.00800000E+00  1.00800000E+00  1.20100000E+01  1.20100000E+01
  1.20100000E+01  1.20100000E+01  1.00800000E+00  1.20100000E+01  1.00800000E+00
  1.20100000E+01  1.00800000E+00  1.00800000E+00  1.20100000E+01  1.00800000E+00
  1.00800000E+00  1.20100000E+01  1.00800000E+00  1.00800000E+00  1.00800000E+00
  1.20100000E+01  1.00800000E+00  1.00800000E+00  1.20100000E+01  1.00800000E+00
  1.00800000E+00  1.20100000E+01  1.00800000E+00  1.00800000E+00  1.20100000E+01
  1.00800000E+00  1.00800000E+00  1.00800000E+00  1.00800000E+00  1.20100000E+01
  1.20100000E+01  1.00800000E+00  1.00800000E+00  1.00800000E+00  1.20100000E+01
  1.00800000E+00  1.00800000E+00  1.00800000E+00  1.00800000E+00  3.20600000E+01
  1.20100000E+01  1.20100000E+01  1.20100000E+01  1.20100000E+01  1.20100000E+01
  1.20100000E+01  1.20100000E+01  1.20100000E+01  3.20600000E+01  1.20100000E+01
  1.00800000E+00  1.20100000E+01  1.20100000E+01  1.00800000E+00  1.20100000E+01
  1.20100000E+01  1.20100000E+01  1.00800000E+00  1.20100000E+01  1.00800000E+00
  1.00800000E+00  1.00800000E+00  1.20100000E+01  1.20100000E+01  1.20100000E+01
  1.20100000E+01  1.00800000E+00  1.20100000E+01  1.00800000E+00  1.20100000E+01
  1.00800000E+00  1.00800000E+00  1.20100000E+01  1.00800000E+00  1.00800000E+00
  1.20100000E+01  1.00800000E+00  1.00800000E+00  1.00800000E+00  1.20100000E+01
  1.00800000E+00  1.00800000E+00  1.20100000E+01  1.00800000E+00  1.00800000E+00
  1.20100000E+01  1.00800000E+00  1.00800000E+00  1.20100000E+01  1.00800000E+00
  1.00800000E+00  1.00800000E+00  1.00800000E+00  1.20100000E+01  1.20100000E+01
  1.00800000E+00  1.00800000E+00  1.00800000E+00  1.20100000E+01  1.00800000E+00
  1.00800000E+00  1.00800000E+00  1.00800000E+00  3.20600000E+01  1.20100000E+01
  1.20100000E+01  1.20100000E+01  1.20100000E+01  1.20100000E+01  1.20100000E+01
  1.20100000E+01  1.20100000E+01  3.20600000E+01  1.20100000E+01  1.00800000E+00
  1.20100000E+01  1.20100000E+01  1.00800000E+00  1.20100000E+01  1.20100000E+01
  1.20100000E+01  1.00800000E+00  1.20100000E+01  1.00800000E+00  1.00800000E+00
  1.00800000E+00  1.20100000E+01  1.20100000E+01  1.20100000E+01  1.20100000E+01
  1.00800000E+00  1.20100000E+01  1.00800000E+00  1.20100000E+01  1.00800000E+00
  1.00800000E+00  1.20100000E+01  1.00800000E+00  1.00800000E+00  1.20100000E+01
  1.00800000E+00  1.00800000E+00  1.00800000E+00  1.20100000E+01  1.00800000E+00
  1.00800000E+00  1.20100000E+01  1.00800000E+00  1.00800000E+00  1.20100000E+01
  1.00800000E+00  1.00800000E+00  1.20100000E+01  1.00800000E+00  1.00800000E+00
  1.00800000E+00  1.00800000E+00  1.20100000E+01  1.20100000E+01  1.00800000E+00
  1.00800000E+00  1.00800000E+00  1.20100000E+01  1.00800000E+00  1.00800000E+00
  1.00800000E+00  1.00800000E+00  3.20600000E+01  1.20100000E+01  1.20100000E+01
  1.20100000E+01  1.20100000E+01  1.20100000E+01  1.20100000E+01  1.20100000E+01
  1.20100000E+01  3.20600000E+01  1.20100000E+01  1.00800000E+00  1.20100000E+01
  1.20100000E+01  1.00800000E+00  1.20100000E+01  1.20100000E+01  1.20100000E+01
  1.00800000E+00  1.20100000E+01  1.00800000E+00  1.00800000E+00  1.00800000E+00
  1.20100000E+01  1.20100000E+01  1.20100000E+01  1.20100000E+01  1.00800000E+00
  1.20100000E+01  1.00800000E+00  1.20100000E+01  1.00800000E+00  1.00800000E+00
  1.20100000E+01  1.00800000E+00  1.00800000E+00  1.20100000E+01  1.00800000E+00
  1.00800000E+00  1.00800000E+00  1.20100000E+01  1.00800000E+00  1.00800000E+00
  1.20100000E+01  1.00800000E+00  1.00800000E+00  1.20100000E+01  1.00800000E+00
  1.00800000E+00  1.20100000E+01  1.00800000E+00  1.00800000E+00  1.00800000E+00
  1.00800000E+00  1.20100000E+01  1.20100000E+01  1.00800000E+00  1.00800000E+00
  1.00800000E+00  1.20100000E+01  1.00800000E+00  1.00800000E+00  1.00800000E+00
  1.00800000E+00  3.20600000E+01  1.20100000E+01  1.20100000E+01  1.20100000E+01
  1.20100000E+01  1.20100000E+01  1.20100000E+01  1.20100000E+01  1.20100000E+01
  3.20600000E+01  1.20100000E+01  1.00800000E+00  1.20100000E+01  1.20100000E+01
  1.00800000E+00  1.20100000E+01  1.20100000E+01  1.20100000E+01  1.00800000E+00
  1.20100000E+01  1.00800000E+00  1.00800000E+00  1.00800000E+00  1.20100000E+01
  1.20100000E+01  1.20100000E+01  1.20100000E+01  1.00800000E+00  1.20100000E+01
  1.00800000E+00  1.20100000E+01  1.00800000E+00  1.00800000E+00  1.20100000E+01
  1.00800000E+00  1.00800000E+00  1.20100000E+01  1.00800000E+00  1.00800000E+00
  1.00800000E+00  1.20100000E+01  1.00800000E+00  1.00800000E+00  1.20100000E+01
  1.00800000E+00  1.00800000E+00  1.20100000E+01  1.00800000E+00  1.00800000E+00
  1.20100000E+01  1.00800000E+00  1.00800000E+00  1.00800000E+00  1.00800000E+00
  1.20100000E+01  1.20100000E+01  1.00800000E+00  1.00800000E+00  1.00800000E+00
  1.20100000E+01  1.00800000E+00  1.00800000E+00  1.00800000E+00  1.00800000E+00
  3.20600000E+01  1.20100000E+01  1.20100000E+01  1.20100000E+01  1.20100000E+01
  1.20100000E+01  1.20100000E+01  1.20100000E+01  1.20100000E+01  3.20600000E+01
  1.20100000E+01  1.00800000E+00  1.20100000E+01  1.20100000E+01  1.00800000E+00
  1.20100000E+01  1.20100000E+01  1.20100000E+01  1.00800000E+00  1.20100000E+01
  1.00800000E+00  1.00800000E+00  1.00800000E+00  1.20100000E+01  1.20100000E+01
  1.20100000E+01  1.20100000E+01  1.00800000E+00  1.20100000E+01  1.00800000E+00
  1.20100000E+01  1.00800000E+00  1.00800000E+00  1.20100000E+01  1.00800000E+00
  1.00800000E+00  1.20100000E+01  1.00800000E+00  1.00800000E+00  1.00800000E+00
  1.20100000E+01  1.00800000E+00  1.00800000E+00  1.20100000E+01  1.00800000E+00
  1.00800000E+00  1.20100000E+01  1.00800000E+00  1.00800000E+00  1.20100000E+01
  1.00800000E+00  1.00800000E+00  1.00800000E+00  1.00800000E+00  1.20100000E+01
  1.20100000E+01  1.00800000E+00  1.00800000E+00  1.00800000E+00  1.20100000E+01
  1.00800000E+00  1.00800000E+00  1.00800000E+00  1.00800000E+00  3.20600000E+01
  1.20100000E+01  1.20100000E+01  1.20100000E+01  1.20100000E+01  1.20100000E+01
  1.20100000E+01  1.20100000E+01  1.20100000E+01  3.20600000E+01  1.20100000E+01
  1.00800000E+00  1.20100000E+01  1.20100000E+01  1.00800000E+00  1.20100000E+01
  1.20100000E+01  1.20100000E+01  1.00800000E+00  1.20100000E+01  1.00800000E+00
  1.00800000E+00  1.00800000E+00  1.20100000E+01  1.20100000E+01  1.20100000E+01
  1.20100000E+01  1.00800000E+00  1.20100000E+01  1.00800000E+00  1.20100000E+01
  1.00800000E+00  1.00800000E+00  1.20100000E+01  1.00800000E+00  1.00800000E+00
  1.20100000E+01  1.00800000E+00  1.00800000E+00  1.00800000E+00  1.20100000E+01
  1.00800000E+00  1.00800000E+00  1.20100000E+01  1.00800000E+00  1.00800000E+00
  1.20100000E+01  1.00800000E+00  1.00800000E+00  1.20100000E+01  1.00800000E+00
  1.00800000E+00  1.00800000E+00  1.00800000E+00  1.20100000E+01  1.20100000E+01
  1.00800000E+00  1.00800000E+00  1.00800000E+00  1.20100000E+01  1.00800000E+00
  1.00800000E+00  1.00800000E+00  1.00800000E+00  3.20600000E+01  1.20100000E+01
  1.20100000E+01  1.20100000E+01  1.20100000E+01  1.20100000E+01  1.20100000E+01
  1.20100000E+01  1.20100000E+01  3.20600000E+01  1.20100000E+01  1.00800000E+00
  1.20100000E+01  1.20100000E+01  1.00800000E+00  1.20100000E+01  1.20100000E+01
  1.20100000E+01  1.00800000E+00  1.20100000E+01  1.00800000E+00  1.00800000E+00
  1.00800000E+00  1.20100000E+01  1.20100000E+01  1.20100000E+01  1.20100000E+01
  1.00800000E+00  1.20100000E+01  1.00800000E+00  1.20100000E+01  1.00800000E+00
  1.00800000E+00  1.20100000E+01  1.00800000E+00  1.00800000E+00  1.20100000E+01
  1.00800000E+00  1.00800000E+00  1.00800000E+00  1.20100000E+01  1.00800000E+00
  1.00800000E+00  1.20100000E+01  1.00800000E+00  1.00800000E+00  1.20100000E+01
  1.00800000E+00  1.00800000E+00  1.20100000E+01  1.00800000E+00  1.00800000E+00
  1.00800000E+00  1.00800000E+00  1.20100000E+01  1.20100000E+01  1.00800000E+00
  1.00800000E+00  1.00800000E+00  1.20100000E+01  1.00800000E+00  1.00800000E+00
  1.00800000E+00  1.00800000E+00  3.20600000E+01  1.20100000E+01  1.20100000E+01
  1.20100000E+01  1.20100000E+01  1.20100000E+01  1.20100000E+01  1.20100000E+01
  1.20100000E+01  3.20600000E+01  1.20100000E+01  1.00800000E+00  1.20100000E+01
  1.20100000E+01  1.00800000E+00  1.20100000E+01  1.20100000E+01  1.20100000E+01
  1.00800000E+00  1.20100000E+01  1.00800000E+00  1.00800000E+00  1.00800000E+00
  1.20100000E+01  1.20100000E+01  1.20100000E+01  1.20100000E+01  1.00800000E+00
  1.20100000E+01  1.00800000E+00  1.20100000E+01  1.00800000E+00  1.00800000E+00
  1.20100000E+01  1.00800000E+00  1.00800000E+00  1.20100000E+01  1.00800000E+00
  1.00800000E+00  1.00800000E+00  1.20100000E+01  1.00800000E+00  1.00800000E+00
  1.20100000E+01  1.00800000E+00  1.00800000E+00  1.20100000E+01  1.00800000E+00
  1.00800000E+00  1.20100000E+01  1.00800000E+00  1.00800000E+00  1.00800000E+00
  1.00800000E+00  1.20100000E+01  1.20100000E+01  1.00800000E+00  1.00800000E+00
  1.00800000E+00  1.20100000E+01  1.00800000E+00  1.00800000E+00  1.00800000E+00
  1.00800000E+00  3.20600000E+01  1.20100000E+01  1.20100000E+01  1.20100000E+01
  1.20100000E+01  1.20100000E+01  1.20100000E+01  1.20100000E+01  1.20100000E+01
  3.20600000E+01  1.20100000E+01  1.00800000E+00  1.20100000E+01  1.20100000E+01
  1.00800000E+00  1.20100000E+01  1.20100000E+01  1.20100000E+01  1.00800000E+00
  1.20100000E+01  1.00800000E+00  1.00800000E+00  1.00800000E+00  1.20100000E+01
  1.20100000E+01  1.20100000E+01  1.20100000E+01  1.00800000E+00  1.20100000E+01
  1.00800000E+00  1.20100000E+01  1.00800000E+00  1.00800000E+00  1.20100000E+01
  1.00800000E+00  1.00800000E+00  1.20100000E+01  1.00800000E+00  1.00800000E+00
  1.00800000E+00  1.20100000E+01  1.00800000E+00  1.00800000E+00  1.20100000E+01
  1.00800000E+00  1.00800000E+00  1.20100000E+01  1.00800000E+00  1.00800000E+00
  1.20100000E+01  1.00800000E+00  1.00800000E+00  1.00800000E+00  1.00800000E+00
  1.20100000E+01  1.20100000E+01  1.00800000E+00  1.00800000E+00  1.00800000E+00
  1.20100000E+01  1.00800000E+00  1.00800000E+00  1.00800000E+00  1.00800000E+00
  3.20600000E+01  1.20100000E+01  1.20100000E+01  1.20100000E+01  1.20100000E+01
  1.20100000E+01  1.20100000E+01  1.20100000E+01  1.20100000E+01  3.20600000E+01
  1.20100000E+01  1.00800000E+00  1.20100000E+01  1.20100000E+01  1.00800000E+00
  1.20100000E+01  1.20100000E+01  1.20100000E+01  1.00800000E+00  1.20100000E+01
  1.00800000E+00  1.00800000E+00  1.00800000E+00  1.20100000E+01  1.20100000E+01
  1.20100000E+01  1.20100000E+01  1.00800000E+00  1.20100000E+01  1.00800000E+00
  1.20100000E+01  1.00800000E+00  1.00800000E+00  1.20100000E+01  1.00800000E+00
  1.00800000E+00  1.20100000E+01  1.00800000E+00  1.00800000E+00  1.00800000E+00
  1.20100000E+01  1.00800000E+00  1.00800000E+00  1.20100000E+01  1.00800000E+00
  1.00800000E+00  1.20100000E+01  1.00800000E+00  1.00800000E+00  1.20100000E+01
  1.00800000E+00  1.00800000E+00  1.00800000E+00  1.00800000E+00  1.20100000E+01
  1.20100000E+01  1.00800000E+00  1.00800000E+00  1.00800000E+00  1.20100000E+01
  1.00800000E+00  1.00800000E+00  1.00800000E+00  1.00800000E+00  3.20600000E+01
  1.20100000E+01  1.20100000E+01  1.20100000E+01  1.20100000E+01  1.20100000E+01
  1.20100000E+01  1.20100000E+01  1.20100000E+01  3.20600000E+01  1.20100000E+01
  1.00800000E+00  1.20100000E+01  1.20100000E+01  1.00800000E+00  1.20100000E+01
  1.20100000E+01  1.20100000E+01  1.00800000E+00  1.20100000E+01  1.00800000E+00
  1.00800000E+00  1.00800000E+00  1.20100000E+01  1.20100000E+01  1.20100000E+01
  1.20100000E+01  1.00800000E+00  1.20100000E+01  1.00800000E+00  1.20100000E+01
  1.00800000E+00  1.00800000E+00  1.20100000E+01  1.00800000E+00  1.00800000E+00
  1.20100000E+01  1.00800000E+00  1.00800000E+00  1.00800000E+00  1.20100000E+01
  1.00800000E+00  1.00800000E+00  1.20100000E+01  1.00800000E+00  1.00800000E+00
  1.20100000E+01  1.00800000E+00  1.00800000E+00  1.20100000E+01  1.00800000E+00
  1.00800000E+00  1.00800000E+00  1.00800000E+00  1.20100000E+01  1.20100000E+01
  1.00800000E+00  1.00800000E+00  1.00800000E+00  1.20100000E+01  1.00800000E+00
  1.00800000E+00  1.00800000E+00  1.00800000E+00  3.20600000E+01  1.20100000E+01
  1.20100000E+01  1.20100000E+01  1.20100000E+01  1.20100000E+01  1.20100000E+01
  1.20100000E+01  1.20100000E+01  3.20600000E+01  1.20100000E+01  1.00800000E+00
  1.20100000E+01  1.20100000E+01  1.00800000E+00  1.20100000E+01  1.20100000E+01
  1.20100000E+01  1.00800000E+00  1.20100000E+01  1.00800000E+00  1.00800000E+00
  1.00800000E+00  1.20100000E+01  1.20100000E+01  1.20100000E+01  1.20100000E+01
  1.00800000E+00  1.20100000E+01  1.00800000E+00  1.20100000E+01  1.00800000E+00
  1.00800000E+00  1.20100000E+01  1.00800000E+00  1.00800000E+00  1.20100000E+01
  1.00800000E+00  1.00800000E+00  1.00800000E+00  1.20100000E+01  1.00800000E+00
  1.00800000E+00  1.20100000E+01  1.00800000E+00  1.00800000E+00  1.20100000E+01
  1.00800000E+00  1.00800000E+00  1.20100000E+01  1.00800000E+00  1.00800000E+00
  1.00800000E+00  1.00800000E+00  1.20100000E+01  1.20100000E+01  1.00800000E+00
  1.00800000E+00  1.00800000E+00  1.20100000E+01  1.00800000E+00  1.00800000E+00
  1.00800000E+00  1.00800000E+00  3.20600000E+01  1.20100000E+01  1.20100000E+01
  1.20100000E+01  1.20100000E+01  1.20100000E+01  1.20100000E+01  1.20100000E+01
  1.20100000E+01  3.20600000E+01  1.20100000E+01  1.00800000E+00  1.20100000E+01
  1.20100000E+01  1.00800000E+00  1.20100000E+01  1.20100000E+01  1.20100000E+01
  1.00800000E+00  1.20100000E+01  1.00800000E+00  1.00800000E+00  1.00800000E+00
  1.20100000E+01  1.20100000E+01  1.20100000E+01  1.20100000E+01  1.00800000E+00
  1.20100000E+01  1.00800000E+00  1.20100000E+01  1.00800000E+00  1.00800000E+00
  1.20100000E+01  1.00800000E+00  1.00800000E+00  1.20100000E+01  1.00800000E+00
  1.00800000E+00  1.00800000E+00  1.20100000E+01  1.00800000E+00  1.00800000E+00
  1.20100000E+01  1.00800000E+00  1.00800000E+00  1.20100000E+01  1.00800000E+00
  1.00800000E+00  1.20100000E+01  1.00800000E+00  1.00800000E+00  1.00800000E+00
  1.00800000E+00  1.20100000E+01  1.20100000E+01  1.00800000E+00  1.00800000E+00
  1.00800000E+00  1.20100000E+01  1.00800000E+00  1.00800000E+00  1.00800000E+00
  1.00800000E+00  3.20600000E+01  1.20100000E+01  1.20100000E+01  1.20100000E+01
  1.20100000E+01  1.20100000E+01  1.20100000E+01  1.20100000E+01  1.20100000E+01
  3.20600000E+01  1.20100000E+01  1.00800000E+00  1.20100000E+01  1.20100000E+01
  1.00800000E+00  1.20100000E+01  1.20100000E+01  1.20100000E+01  1.00800000E+00
  1.20100000E+01  1.00800000E+00  1.00800000E+00  1.00800000E+00  1.20100000E+01
  1.20100000E+01  1.20100000E+01  1.20100000E+01  1.00800000E+00  1.20100000E+01
  1.00800000E+00  1.20100000E+01  1.00800000E+00  1.00800000E+00  1.20100000E+01
  1.00800000E+00  1.00800000E+00  1.20100000E+01  1.00800000E+00  1.00800000E+00
  1.00800000E+00  1.20100000E+01  1.00800000E+00  1.00800000E+00  1.20100000E+01
  1.00800000E+00  1.00800000E+00  1.20100000E+01  1.00800000E+00  1.00800000E+00
  1.20100000E+01  1.00800000E+00  1.00800000E+00  1.00800000E+00  1.00800000E+00
  1.20100000E+01  1.20100000E+01  1.00800000E+00  1.00800000E+00  1.00800000E+00
  1.20100000E+01  1.00800000E+00  1.00800000E+00  1.00800000E+00  1.00800000E+00
  3.20600000E+01  1.20100000E+01  1.20100000E+01  1.20100000E+01  1.20100000E+01
  1.20100000E+01  1.20100000E+01  1.20100000E+01  1.20100000E+01  3.20600000E+01
  1.20100000E+01  1.00800000E+00  1.20100000E+01  1.20100000E+01  1.00800000E+00
  1.20100000E+01  1.20100000E+01  1.20100000E+01  1.00800000E+00  1.20100000E+01
  1.00800000E+00  1.00800000E+00  1.00800000E+00  1.20100000E+01  1.20100000E+01
  1.20100000E+01  1.20100000E+01  1.00800000E+00  1.20100000E+01  1.00800000E+00
  1.20100000E+01  1.00800000E+00  1.00800000E+00  1.20100000E+01  1.00800000E+00
  1.00800000E+00  1.20100000E+01  1.00800000E+00  1.00800000E+00  1.00800000E+00
  1.20100000E+01  1.00800000E+00  1.00800000E+00  1.20100000E+01  1.00800000E+00
  1.00800000E+00  1.20100000E+01  1.00800000E+00  1.00800000E+00  1.20100000E+01
  1.00800000E+00  1.00800000E+00  1.00800000E+00  1.00800000E+00  1.20100000E+01
  1.20100000E+01  1.00800000E+00  1.00800000E+00  1.00800000E+00  1.20100000E+01
  1.00800000E+00  1.00800000E+00  1.00800000E+00  1.00800000E+00  3.20600000E+01
  1.20100000E+01  1.20100000E+01  1.20100000E+01  1.20100000E+01  1.20100000E+01
  1.20100000E+01  1.20100000E+01  1.20100000E+01  3.20600000E+01  1.20100000E+01
  1.00800000E+00  1.20100000E+01  1.20100000E+01  1.00800000E+00  1.20100000E+01
  1.20100000E+01  1.20100000E+01  1.00800000E+00  1.20100000E+01  1.00800000E+00
  1.00800000E+00  1.00800000E+00  1.20100000E+01  1.20100000E+01  1.20100000E+01
  1.20100000E+01  1.00800000E+00  1.20100000E+01  1.00800000E+00  1.20100000E+01
  1.00800000E+00  1.00800000E+00  1.20100000E+01  1.00800000E+00  1.00800000E+00
  1.20100000E+01  1.00800000E+00  1.00800000E+00  1.00800000E+00  1.20100000E+01
  1.00800000E+00  1.00800000E+00  1.20100000E+01  1.00800000E+00  1.00800000E+00
  1.20100000E+01  1.00800000E+00  1.00800000E+00  1.20100000E+01  1.00800000E+00
  1.00800000E+00  1.00800000E+00  1.00800000E+00  1.20100000E+01  1.20100000E+01
  1.00800000E+00  1.00800000E+00  1.00800000E+00  1.20100000E+01  1.00800000E+00
  1.00800000E+00  1.00800000E+00  1.00800000E+00  3.20600000E+01  1.20100000E+01
  1.20100000E+01  1.20100000E+01  1.20100000E+01  1.20100000E+01  1.20100000E+01
  1.20100000E+01  1.20100000E+01  3.20600000E+01  1.20100000E+01  1.00800000E+00
  1.20100000E+01  1.20100000E+01  1.00800000E+00  1.20100000E+01  1.20100000E+01
  1.20100000E+01  1.00800000E+00  1.20100000E+01  1.00800000E+00  1.00800000E+00
  1.00800000E+00  1.20100000E+01  1.20100000E+01  1.20100000E+01  1.20100000E+01
  1.00800000E+00  1.20100000E+01  1.00800000E+00  1.20100000E+01  1.00800000E+00
  1.00800000E+00  1.20100000E+01  1.00800000E+00  1.00800000E+00  1.20100000E+01
  1.00800000E+00  1.00800000E+00  1.00800000E+00  1.20100000E+01  1.00800000E+00
  1.00800000E+00  1.20100000E+01  1.00800000E+00  1.00800000E+00  1.20100000E+01
  1.00800000E+00  1.00800000E+00  1.20100000E+01  1.00800000E+00  1.00800000E+00
  1.00800000E+00  1.00800000E+00  1.20100000E+01  1.20100000E+01  1.00800000E+00
  1.00800000E+00  1.00800000E+00  1.20100000E+01  1.00800000E+00  1.00800000E+00
  1.00800000E+00  1.00800000E+00  3.20600000E+01  1.20100000E+01  1.20100000E+01
  1.20100000E+01  1.20100000E+01  1.20100000E+01  1.20100000E+01  1.20100000E+01
  1.20100000E+01  3.20600000E+01  1.20100000E+01  1.00800000E+00  1.20100000E+01
  1.20100000E+01  1.00800000E+00  1.20100000E+01  1.20100000E+01  1.20100000E+01
  1.00800000E+00  1.20100000E+01  1.00800000E+00  1.00800000E+00  1.00800000E+00
  1.20100000E+01  1.20100000E+01  1.20100000E+01  1.20100000E+01  1.00800000E+00
  1.20100000E+01  1.00800000E+00  1.20100000E+01  1.00800000E+00  1.00800000E+00
  1.20100000E+01  1.00800000E+00  1.00800000E+00  1.20100000E+01  1.00800000E+00
  1.00800000E+00  1.00800000E+00  1.20100000E+01  1.00800000E+00  1.00800000E+00
  1.20100000E+01  1.00800000E+00  1.00800000E+00  1.20100000E+01  1.00800000E+00
  1.00800000E+00  1.20100000E+01  1.00800000E+00  1.00800000E+00  1.00800000E+00
  1.00800000E+00  1.20100000E+01  1.20100000E+01  1.00800000E+00  1.00800000E+00
  1.00800000E+00  1.20100000E+01  1.00800000E+00  1.00800000E+00  1.00800000E+00
  1.00800000E+00  3.20600000E+01  1.20100000E+01  1.20100000E+01  1.20100000E+01
  1.20100000E+01  1.20100000E+01  1.20100000E+01  1.20100000E+01  1.20100000E+01
  3.20600000E+01  1.20100000E+01  1.00800000E+00  1.20100000E+01  1.20100000E+01
  1.00800000E+00  1.20100000E+01  1.20100000E+01  1.20100000E+01  1.00800000E+00
  1.20100000E+01  1.00800000E+00  1.00800000E+00  1.00800000E+00  1.20100000E+01
  1.20100000E+01  1.20100000E+01  1.20100000E+01  1.00800000E+00  1.20100000E+01
  1.00800000E+00  1.20100000E+01  1.00800000E+00  1.00800000E+00  1.20100000E+01
  1.00800000E+00  1.00800000E+00  1.20100000E+01  1.00800000E+00  1.00800000E+00
  1.00800000E+00  1.20100000E+01  1.00800000E+00  1.00800000E+00  1.20100000E+01
  1.00800000E+00  1.00800000E+00  1.20100000E+01  1.00800000E+00  1.00800000E+00
  1.20100000E+01  1.00800000E+00  1.00800000E+00  1.00800000E+00  1.00800000E+00
  1.20100000E+01  1.20100000E+01  1.00800000E+00  1.00800000E+00  1.00800000E+00
  1.20100000E+01  1.00800000E+00  1.00800000E+00  1.00800000E+00  1.00800000E+00
  3.20600000E+01  1.20100000E+01  1.20100000E+01  1.20100000E+01  1.20100000E+01
  1.20100000E+01  1.20100000E+01  1.20100000E+01  1.20100000E+01  3.20600000E+01
  1.20100000E+01  1.00800000E+00  1.20100000E+01  1.20100000E+01  1.00800000E+00
  1.20100000E+01  1.20100000E+01  1.20100000E+01  1.00800000E+00  1.20100000E+01
  1.00800000E+00  1.00800000E+00  1.00800000E+00  1.20100000E+01  1.20100000E+01
  1.20100000E+01  1.20100000E+01  1.00800000E+00  1.20100000E+01  1.00800000E+00
  1.20100000E+01  1.00800000E+00  1.00800000E+00  1.20100000E+01  1.00800000E+00
  1.00800000E+00  1.20100000E+01  1.00800000E+00  1.00800000E+00  1.00800000E+00
  1.20100000E+01  1.00800000E+00  1.00800000E+00  1.20100000E+01  1.00800000E+00
  1.00800000E+00  1.20100000E+01  1.00800000E+00  1.00800000E+00  1.20100000E+01
  1.00800000E+00  1.00800000E+00  1.00800000E+00  1.00800000E+00  1.20100000E+01
  1.20100000E+01  1.00800000E+00  1.00800000E+00  1.00800000E+00  1.20100000E+01
  1.00800000E+00  1.00800000E+00  1.00800000E+00  1.00800000E+00  3.20600000E+01
  1.20100000E+01  1.20100000E+01  1.20100000E+01  1.20100000E+01  1.20100000E+01
  1.20100000E+01  1.20100000E+01  1.20100000E+01  3.20600000E+01  1.20100000E+01
  1.00800000E+00  1.20100000E+01  1.20100000E+01  1.00800000E+00  1.20100000E+01
  1.20100000E+01  1.20100000E+01  1.00800000E+00  1.20100000E+01  1.00800000E+00
  1.00800000E+00  1.00800000E+00  1.20100000E+01  1.20100000E+01  1.20100000E+01
  1.20100000E+01  1.00800000E+00  1.20100000E+01  1.00800000E+00  1.20100000E+01
  1.00800000E+00  1.00800000E+00  1.20100000E+01  1.00800000E+00  1.00800000E+00
  1.20100000E+01  1.00800000E+00  1.00800000E+00  1.00800000E+00  1.20100000E+01
  1.00800000E+00  1.00800000E+00  1.20100000E+01  1.00800000E+00  1.00800000E+00
  1.20100000E+01  1.00800000E+00  1.00800000E+00  1.20100000E+01  1.00800000E+00
  1.00800000E+00  1.00800000E+00  1.00800000E+00  1.20100000E+01  1.20100000E+01
  1.00800000E+00  1.00800000E+00  1.00800000E+00  1.20100000E+01  1.00800000E+00
  1.00800000E+00  1.00800000E+00  1.00800000E+00  3.20600000E+01  1.20100000E+01
  1.20100000E+01  1.20100000E+01  1.20100000E+01  1.20100000E+01  1.20100000E+01
  1.20100000E+01  1.20100000E+01  3.20600000E+01  1.20100000E+01  1.00800000E+00
  1.20100000E+01  1.20100000E+01  1.00800000E+00  1.20100000E+01  1.20100000E+01
  1.20100000E+01  1.00800000E+00  1.20100000E+01  1.00800000E+00  1.00800000E+00
  1.00800000E+00  1.20100000E+01  1.20100000E+01  1.20100000E+01  1.20100000E+01
  1.00800000E+00  1.20100000E+01  1.00800000E+00  1.20100000E+01  1.00800000E+00
  1.00800000E+00  1.20100000E+01  1.00800000E+00  1.00800000E+00  1.20100000E+01
  1.00800000E+00  1.00800000E+00  1.00800000E+00  1.20100000E+01  1.00800000E+00
  1.00800000E+00  1.20100000E+01  1.00800000E+00  1.00800000E+00  1.20100000E+01
  1.00800000E+00  1.00800000E+00  1.20100000E+01  1.00800000E+00  1.00800000E+00
  1.00800000E+00  1.00800000E+00  1.20100000E+01  1.20100000E+01  1.00800000E+00
  1.00800000E+00  1.00800000E+00  1.20100000E+01  1.00800000E+00  1.00800000E+00
  1.00800000E+00  1.00800000E+00  3.20600000E+01  1.20100000E+01  1.20100000E+01
  1.20100000E+01  1.20100000E+01  1.20100000E+01  1.20100000E+01  1.20100000E+01
  1.20100000E+01  3.20600000E+01  1.20100000E+01  1.00800000E+00  1.20100000E+01
  1.20100000E+01  1.00800000E+00  1.20100000E+01  1.20100000E+01  1.20100000E+01
  1.00800000E+00  1.20100000E+01  1.00800000E+00  1.00800000E+00  1.00800000E+00
  1.20100000E+01  1.20100000E+01  1.20100000E+01  1.20100000E+01  1.00800000E+00
  1.20100000E+01  1.00800000E+00  1.20100000E+01  1.00800000E+00  1.00800000E+00
  1.20100000E+01  1.00800000E+00  1.00800000E+00  1.20100000E+01  1.00800000E+00
  1.00800000E+00  1.00800000E+00  1.20100000E+01  1.00800000E+00  1.00800000E+00
  1.20100000E+01  1.00800000E+00  1.00800000E+00  1.20100000E+01  1.00800000E+00
  1.00800000E+00  1.20100000E+01  1.00800000E+00  1.00800000E+00  1.00800000E+00
  1.00800000E+00  1.20100000E+01  1.20100000E+01  1.00800000E+00  1.00800000E+00
  1.00800000E+00  1.20100000E+01  1.00800000E+00  1.00800000E+00  1.00800000E+00
  1.00800000E+00  3.20600000E+01  1.20100000E+01  1.20100000E+01  1.20100000E+01
  1.20100000E+01  1.20100000E+01  1.20100000E+01  1.20100000E+01  1.20100000E+01
  3.20600000E+01  1.20100000E+01  1.00800000E+00  1.20100000E+01  1.20100000E+01
  1.00800000E+00  1.20100000E+01  1.20100000E+01  1.20100000E+01  1.00800000E+00
  1.20100000E+01  1.00800000E+00  1.00800000E+00  1.00800000E+00  1.20100000E+01
  1.20100000E+01  1.20100000E+01  1.20100000E+01  1.00800000E+00  1.20100000E+01
  1.00800000E+00  1.20100000E+01  1.00800000E+00  1.00800000E+00  1.20100000E+01
  1.00800000E+00  1.00800000E+00  1.20100000E+01  1.00800000E+00  1.00800000E+00
  1.00800000E+00  1.20100000E+01  1.00800000E+00  1.00800000E+00  1.20100000E+01
  1.00800000E+00  1.00800000E+00  1.20100000E+01  1.00800000E+00  1.00800000E+00
  1.20100000E+01  1.00800000E+00  1.00800000E+00  1.00800000E+00  1.00800000E+00
  1.20100000E+01  1.20100000E+01  1.00800000E+00  1.00800000E+00  1.00800000E+00
  1.20100000E+01  1.00800000E+00  1.00800000E+00  1.00800000E+00  1.00800000E+00
  3.20600000E+01  1.20100000E+01  1.20100000E+01  1.20100000E+01  1.20100000E+01
  1.20100000E+01  1.20100000E+01  1.20100000E+01  1.20100000E+01  3.20600000E+01
  1.20100000E+01  1.00800000E+00  1.20100000E+01  1.20100000E+01  1.00800000E+00
  1.20100000E+01  1.20100000E+01  1.20100000E+01  1.00800000E+00  1.20100000E+01
  1.00800000E+00  1.00800000E+00  1.00800000E+00  1.20100000E+01  1.20100000E+01
  1.20100000E+01  1.20100000E+01  1.00800000E+00  1.20100000E+01  1.00800000E+00
  1.20100000E+01  1.00800000E+00  1.00800000E+00  1.20100000E+01  1.00800000E+00
  1.00800000E+00  1.20100000E+01  1.00800000E+00  1.00800000E+00  1.00800000E+00
  1.20100000E+01  1.00800000E+00  1.00800000E+00  1.20100000E+01  1.00800000E+00
  1.00800000E+00  1.20100000E+01  1.00800000E+00  1.00800000E+00  1.20100000E+01
  1.00800000E+00  1.00800000E+00  1.00800000E+00  1.00800000E+00  1.20100000E+01
  1.20100000E+01  1.00800000E+00  1.00800000E+00  1.00800000E+00  1.20100000E+01
  1.00800000E+00  1.00800000E+00  1.00800000E+00  1.00800000E+00  3.20600000E+01
  1.20100000E+01  1.20100000E+01  1.20100000E+01  1.20100000E+01  1.20100000E+01
  1.20100000E+01  1.20100000E+01  1.20100000E+01  3.20600000E+01  1.20100000E+01
  1.00800000E+00  1.20100000E+01  1.20100000E+01  1.00800000E+00  1.20100000E+01
  1.20100000E+01  1.20100000E+01  1.00800000E+00  1.20100000E+01  1.00800000E+00
  1.00800000E+00  1.00800000E+00  1.20100000E+01  1.20100000E+01  1.20100000E+01
  1.20100000E+01  1.00800000E+00  1.20100000E+01  1.00800000E+00  1.20100000E+01
  1.00800000E+00  1.00800000E+00  1.20100000E+01  1.00800000E+00  1.00800000E+00
  1.20100000E+01  1.00800000E+00  1.00800000E+00  1.00800000E+00  1.20100000E+01
  1.00800000E+00  1.00800000E+00  1.20100000E+01  1.00800000E+00  1.00800000E+00
  1.20100000E+01  1.00800000E+00  1.00800000E+00  1.20100000E+01  1.00800000E+00
  1.00800000E+00  1.00800000E+00  1.00800000E+00  1.20100000E+01  1.20100000E+01
  1.00800000E+00  1.00800000E+00  1.00800000E+00  1.20100000E+01  1.00800000E+00
  1.00800000E+00  1.00800000E+00  1.00800000E+00  3.20600000E+01  1.20100000E+01
  1.20100000E+01  1.20100000E+01  1.20100000E+01  1.20100000E+01  1.20100000E+01
  1.20100000E+01  1.20100000E+01  3.20600000E+01  1.20100000E+01  1.00800000E+00
  1.20100000E+01  1.20100000E+01  1.00800000E+00  1.20100000E+01  1.20100000E+01
  1.20100000E+01  1.00800000E+00  1.20100000E+01  1.00800000E+00  1.00800000E+00
  1.00800000E+00  1.20100000E+01  1.20100000E+01  1.20100000E+01  1.20100000E+01
  1.00800000E+00  1.20100000E+01  1.00800000E+00  1.20100000E+01  1.00800000E+00
  1.00800000E+00  1.20100000E+01  1.00800000E+00  1.00800000E+00  1.20100000E+01
  1.00800000E+00  1.00800000E+00  1.00800000E+00  1.20100000E+01  1.00800000E+00
  1.00800000E+00  1.20100000E+01  1.00800000E+00  1.00800000E+00  1.20100000E+01
  1.00800000E+00  1.00800000E+00  1.20100000E+01  1.00800000E+00  1.00800000E+00
  1.00800000E+00  1.00800000E+00  1.20100000E+01  1.20100000E+01  1.00800000E+00
  1.00800000E+00  1.00800000E+00  1.20100000E+01  1.00800000E+00  1.00800000E+00
  1.00800000E+00  1.00800000E+00  3.20600000E+01  1.20100000E+01  1.20100000E+01
  1.20100000E+01  1.20100000E+01  1.20100000E+01  1.20100000E+01  1.20100000E+01
  1.20100000E+01  3.20600000E+01  1.20100000E+01  1.00800000E+00  1.20100000E+01
  1.20100000E+01  1.00800000E+00  1.20100000E+01  1.20100000E+01  1.20100000E+01
  1.00800000E+00  1.20100000E+01  1.00800000E+00  1.00800000E+00  1.00800000E+00
  1.20100000E+01  1.20100000E+01  1.20100000E+01  1.20100000E+01  1.00800000E+00
  1.20100000E+01  1.00800000E+00  1.20100000E+01  1.00800000E+00  1.00800000E+00
  1.20100000E+01  1.00800000E+00  1.00800000E+00  1.20100000E+01  1.00800000E+00
  1.00800000E+00  1.00800000E+00  1.20100000E+01  1.00800000E+00  1.00800000E+00
  1.20100000E+01  1.00800000E+00  1.00800000E+00  1.20100000E+01  1.00800000E+00
  1.00800000E+00  1.20100000E+01  1.00800000E+00  1.00800000E+00  1.00800000E+00
  1.00800000E+00  1.20100000E+01  1.20100000E+01  1.00800000E+00  1.00800000E+00
  1.00800000E+00  1.20100000E+01  1.00800000E+00  1.00800000E+00  1.00800000E+00
  1.00800000E+00  3.20600000E+01  1.20100000E+01  1.20100000E+01  1.20100000E+01
  1.20100000E+01  1.20100000E+01  1.20100000E+01  1.20100000E+01  1.20100000E+01
  3.20600000E+01  1.20100000E+01  1.00800000E+00  1.20100000E+01  1.20100000E+01
  1.00800000E+00  1.20100000E+01  1.20100000E+01  1.20100000E+01  1.00800000E+00
  1.20100000E+01  1.00800000E+00  1.00800000E+00  1.00800000E+00  1.20100000E+01
  1.20100000E+01  1.20100000E+01  1.20100000E+01  1.00800000E+00  1.20100000E+01
  1.00800000E+00  1.20100000E+01  1.00800000E+00  1.00800000E+00  1.20100000E+01
  1.00800000E+00  1.00800000E+00  1.20100000E+01  1.00800000E+00  1.00800000E+00
  1.00800000E+00  1.20100000E+01  1.00800000E+00  1.00800000E+00  1.20100000E+01
  1.00800000E+00  1.00800000E+00  1.20100000E+01  1.00800000E+00  1.00800000E+00
  1.20100000E+01  1.00800000E+00  1.00800000E+00  1.00800000E+00  1.00800000E+00
  1.20100000E+01  1.20100000E+01  1.00800000E+00  1.00800000E+00  1.00800000E+00
  1.20100000E+01  1.00800000E+00  1.00800000E+00  1.00800000E+00  1.00800000E+00
  3.20600000E+01  1.20100000E+01  1.20100000E+01  1.20100000E+01  1.20100000E+01
  1.20100000E+01  1.20100000E+01  1.20100000E+01  1.20100000E+01  3.20600000E+01
  1.20100000E+01  1.00800000E+00  1.20100000E+01  1.20100000E+01  1.00800000E+00
  1.20100000E+01  1.20100000E+01  1.20100000E+01  1.00800000E+00  1.20100000E+01
  1.00800000E+00  1.00800000E+00  1.00800000E+00  1.20100000E+01  1.20100000E+01
  1.20100000E+01  1.20100000E+01  1.00800000E+00  1.20100000E+01  1.00800000E+00
  1.20100000E+01  1.00800000E+00  1.00800000E+00  1.20100000E+01  1.00800000E+00
  1.00800000E+00  1.20100000E+01  1.00800000E+00  1.00800000E+00  1.00800000E+00
  1.20100000E+01  1.00800000E+00  1.00800000E+00  1.20100000E+01  1.00800000E+00
  1.00800000E+00  1.20100000E+01  1.00800000E+00  1.00800000E+00  1.20100000E+01
  1.00800000E+00  1.00800000E+00  1.00800000E+00  1.00800000E+00  1.20100000E+01
  1.20100000E+01  1.00800000E+00  1.00800000E+00  1.00800000E+00  1.20100000E+01
  1.00800000E+00  1.00800000E+00  1.00800000E+00  1.00800000E+00  3.20600000E+01
  1.20100000E+01  1.20100000E+01  1.20100000E+01  1.20100000E+01  1.20100000E+01
  1.20100000E+01  1.20100000E+01  1.20100000E+01  3.20600000E+01  1.20100000E+01
  1.00800000E+00  1.20100000E+01  1.20100000E+01  1.00800000E+00  1.20100000E+01
  1.20100000E+01  1.20100000E+01  1.00800000E+00  1.20100000E+01  1.00800000E+00
  1.00800000E+00  1.00800000E+00  1.20100000E+01  1.20100000E+01  1.20100000E+01
  1.20100000E+01  1.00800000E+00  1.20100000E+01  1.00800000E+00  1.20100000E+01
  1.00800000E+00  1.00800000E+00  1.20100000E+01  1.00800000E+00  1.00800000E+00
  1.20100000E+01  1.00800000E+00  1.00800000E+00  1.00800000E+00  1.20100000E+01
  1.00800000E+00  1.00800000E+00  1.20100000E+01  1.00800000E+00  1.00800000E+00
  1.20100000E+01  1.00800000E+00  1.00800000E+00  1.20100000E+01  1.00800000E+00
  1.00800000E+00  1.00800000E+00  1.00800000E+00  1.20100000E+01  1.20100000E+01
  1.00800000E+00  1.00800000E+00  1.00800000E+00  1.20100000E+01  1.00800000E+00
  1.00800000E+00  1.00800000E+00  1.00800000E+00  3.20600000E+01  1.20100000E+01
  1.20100000E+01  1.20100000E+01  1.20100000E+01  1.20100000E+01  1.20100000E+01
  1.20100000E+01  1.20100000E+01  3.20600000E+01  1.20100000E+01  1.00800000E+00
  1.20100000E+01  1.20100000E+01  1.00800000E+00  1.20100000E+01  1.20100000E+01
  1.20100000E+01  1.00800000E+00  1.20100000E+01  1.00800000E+00  1.00800000E+00
  1.00800000E+00  1.20100000E+01  1.20100000E+01  1.20100000E+01  1.20100000E+01
  1.00800000E+00  1.20100000E+01  1.00800000E+00  1.20100000E+01  1.00800000E+00
  1.00800000E+00  1.20100000E+01  1.00800000E+00  1.00800000E+00  1.20100000E+01
  1.00800000E+00  1.00800000E+00  1.00800000E+00  1.20100000E+01  1.00800000E+00
  1.00800000E+00  1.20100000E+01  1.00800000E+00  1.00800000E+00  1.20100000E+01
  1.00800000E+00  1.00800000E+00  1.20100000E+01  1.00800000E+00  1.00800000E+00
  1.00800000E+00  1.00800000E+00  1.20100000E+01  1.20100000E+01  1.00800000E+00
  1.00800000E+00  1.00800000E+00  1.20100000E+01  1.00800000E+00  1.00800000E+00
  1.00800000E+00  1.00800000E+00  3.20600000E+01  1.20100000E+01  1.20100000E+01
  1.20100000E+01  1.20100000E+01  1.20100000E+01  1.20100000E+01  1.20100000E+01
  1.20100000E+01  3.20600000E+01  1.20100000E+01  1.00800000E+00  1.20100000E+01
  1.20100000E+01  1.00800000E+00  1.20100000E+01  1.20100000E+01  1.20100000E+01
  1.00800000E+00  1.20100000E+01  1.00800000E+00  1.00800000E+00  1.00800000E+00
  1.20100000E+01  1.20100000E+01  1.20100000E+01  1.20100000E+01  1.00800000E+00
  1.20100000E+01  1.00800000E+00  1.20100000E+01  1.00800000E+00  1.00800000E+00
  1.20100000E+01  1.00800000E+00  1.00800000E+00  1.20100000E+01  1.00800000E+00
  1.00800000E+00  1.00800000E+00  1.20100000E+01  1.00800000E+00  1.00800000E+00
  1.20100000E+01  1.00800000E+00  1.00800000E+00  1.20100000E+01  1.00800000E+00
  1.00800000E+00  1.20100000E+01  1.00800000E+00  1.00800000E+00  1.00800000E+00
  1.00800000E+00  1.20100000E+01  1.20100000E+01  1.00800000E+00  1.00800000E+00
  1.00800000E+00  1.20100000E+01  1.00800000E+00  1.00800000E+00  1.00800000E+00
  1.00800000E+00  3.20600000E+01  1.20100000E+01  1.20100000E+01  1.20100000E+01
  1.20100000E+01  1.20100000E+01  1.20100000E+01  1.20100000E+01  1.20100000E+01
  3.20600000E+01  1.20100000E+01  1.00800000E+00  1.20100000E+01  1.20100000E+01
  1.00800000E+00  1.20100000E+01  1.20100000E+01  1.20100000E+01  1.00800000E+00
  1.20100000E+01  1.00800000E+00  1.00800000E+00  1.00800000E+00  1.20100000E+01
  1.20100000E+01  1.20100000E+01  1.20100000E+01  1.00800000E+00  1.20100000E+01
  1.00800000E+00  1.20100000E+01  1.00800000E+00  1.00800000E+00  1.20100000E+01
  1.00800000E+00  1.00800000E+00  1.20100000E+01  1.00800000E+00  1.00800000E+00
  1.00800000E+00  1.20100000E+01  1.00800000E+00  1.00800000E+00  1.20100000E+01
  1.00800000E+00  1.00800000E+00  1.20100000E+01  1.00800000E+00  1.00800000E+00
  1.20100000E+01  1.00800000E+00  1.00800000E+00  1.00800000E+00  1.00800000E+00
  1.20100000E+01  1.20100000E+01  1.00800000E+00  1.00800000E+00  1.00800000E+00
  1.20100000E+01  1.00800000E+00  1.00800000E+00  1.00800000E+00  1.00800000E+00
  3.20600000E+01  1.20100000E+01  1.20100000E+01  1.20100000E+01  1.20100000E+01
  1.20100000E+01  1.20100000E+01  1.20100000E+01  1.20100000E+01  3.20600000E+01
  1.20100000E+01  1.00800000E+00  1.20100000E+01  1.20100000E+01  1.00800000E+00
  1.20100000E+01  1.20100000E+01  1.20100000E+01  1.00800000E+00  1.20100000E+01
  1.00800000E+00  1.00800000E+00  1.00800000E+00  1.20100000E+01  1.20100000E+01
  1.20100000E+01  1.20100000E+01  1.00800000E+00  1.20100000E+01  1.00800000E+00
  1.20100000E+01  1.00800000E+00  1.00800000E+00  1.20100000E+01  1.00800000E+00
  1.00800000E+00  1.20100000E+01  1.00800000E+00  1.00800000E+00  1.00800000E+00
  1.20100000E+01  1.00800000E+00  1.00800000E+00  1.20100000E+01  1.00800000E+00
  1.00800000E+00  1.20100000E+01  1.00800000E+00  1.00800000E+00  1.20100000E+01
  1.00800000E+00  1.00800000E+00  1.00800000E+00  1.00800000E+00  1.20100000E+01
  1.20100000E+01  1.00800000E+00  1.00800000E+00  1.00800000E+00  1.20100000E+01
  1.00800000E+00  1.00800000E+00  1.00800000E+00  1.00800000E+00  3.20600000E+01
  1.20100000E+01  1.20100000E+01  1.20100000E+01  1.20100000E+01  1.20100000E+01
  1.20100000E+01  1.20100000E+01  1.20100000E+01  3.20600000E+01  1.20100000E+01
  1.00800000E+00  1.20100000E+01  1.20100000E+01  1.00800000E+00  1.20100000E+01
  1.20100000E+01  1.20100000E+01  1.00800000E+00  1.20100000E+01  1.00800000E+00
  1.00800000E+00  1.00800000E+00  1.20100000E+01  1.20100000E+01  1.20100000E+01
  1.20100000E+01  1.00800000E+00  1.20100000E+01  1.00800000E+00  1.20100000E+01
  1.00800000E+00  1.00800000E+00  1.20100000E+01  1.00800000E+00  1.00800000E+00
  1.20100000E+01  1.00800000E+00  1.00800000E+00  1.00800000E+00  1.20100000E+01
  1.00800000E+00  1.00800000E+00  1.20100000E+01  1.00800000E+00  1.00800000E+00
  1.20100000E+01  1.00800000E+00  1.00800000E+00  1.20100000E+01  1.00800000E+00
  1.00800000E+00  1.00800000E+00  1.00800000E+00  1.20100000E+01  1.20100000E+01
  1.00800000E+00  1.00800000E+00  1.00800000E+00  1.20100000E+01  1.00800000E+00
  1.00800000E+00  1.00800000E+00  1.00800000E+00  3.20600000E+01  1.20100000E+01
  1.20100000E+01  1.20100000E+01  1.20100000E+01  1.20100000E+01  1.20100000E+01
  1.20100000E+01  1.20100000E+01  3.20600000E+01  1.20100000E+01  1.00800000E+00
  1.20100000E+01  1.20100000E+01  1.00800000E+00  1.20100000E+01  1.20100000E+01
  1.20100000E+01  1.00800000E+00  1.20100000E+01  1.00800000E+00  1.00800000E+00
  1.00800000E+00  1.20100000E+01  1.20100000E+01  1.20100000E+01  1.20100000E+01
  1.00800000E+00  1.20100000E+01  1.00800000E+00  1.20100000E+01  1.00800000E+00
  1.00800000E+00  1.20100000E+01  1.00800000E+00  1.00800000E+00  1.20100000E+01
  1.00800000E+00  1.00800000E+00  1.00800000E+00  1.20100000E+01  1.00800000E+00
  1.00800000E+00  1.20100000E+01  1.00800000E+00  1.00800000E+00  1.20100000E+01
  1.00800000E+00  1.00800000E+00  1.20100000E+01  1.00800000E+00  1.00800000E+00
  1.00800000E+00  1.00800000E+00  1.20100000E+01  1.20100000E+01  1.00800000E+00
  1.00800000E+00  1.00800000E+00  1.20100000E+01  1.00800000E+00  1.00800000E+00
  1.00800000E+00  1.00800000E+00  3.20600000E+01  1.20100000E+01  1.20100000E+01
  1.20100000E+01  1.20100000E+01  1.20100000E+01  1.20100000E+01  1.20100000E+01
  1.20100000E+01  3.20600000E+01  1.20100000E+01  1.00800000E+00  1.20100000E+01
  1.20100000E+01  1.00800000E+00  1.20100000E+01  1.20100000E+01  1.20100000E+01
  1.00800000E+00  1.20100000E+01  1.00800000E+00  1.00800000E+00  1.00800000E+00
  1.20100000E+01  1.20100000E+01  1.20100000E+01  1.20100000E+01  1.00800000E+00
  1.20100000E+01  1.00800000E+00  1.20100000E+01  1.00800000E+00  1.00800000E+00
  1.20100000E+01  1.00800000E+00  1.00800000E+00  1.20100000E+01  1.00800000E+00
  1.00800000E+00  1.00800000E+00  1.20100000E+01  1.00800000E+00  1.00800000E+00
  1.20100000E+01  1.00800000E+00  1.00800000E+00  1.20100000E+01  1.00800000E+00
  1.00800000E+00  1.20100000E+01  1.00800000E+00  1.00800000E+00  1.00800000E+00
  1.00800000E+00  1.20100000E+01  1.20100000E+01  1.00800000E+00  1.00800000E+00
  1.00800000E+00  1.20100000E+01  1.00800000E+00  1.00800000E+00  1.00800000E+00
  1.00800000E+00  3.20600000E+01  1.20100000E+01  1.20100000E+01  1.20100000E+01
  1.20100000E+01  1.20100000E+01  1.20100000E+01  1.20100000E+01  1.20100000E+01
  3.20600000E+01  1.20100000E+01  1.00800000E+00  1.20100000E+01  1.20100000E+01
  1.00800000E+00  1.20100000E+01  1.20100000E+01  1.20100000E+01  1.00800000E+00
  1.20100000E+01  1.00800000E+00  1.00800000E+00  1.00800000E+00  1.20100000E+01
  1.20100000E+01  1.20100000E+01  1.20100000E+01  1.00800000E+00  1.20100000E+01
  1.00800000E+00  1.20100000E+01  1.00800000E+00  1.00800000E+00  1.20100000E+01
  1.00800000E+00  1.00800000E+00  1.20100000E+01  1.00800000E+00  1.00800000E+00
  1.00800000E+00  1.20100000E+01  1.00800000E+00  1.00800000E+00  1.20100000E+01
  1.00800000E+00  1.00800000E+00  1.20100000E+01  1.00800000E+00  1.00800000E+00
  1.20100000E+01  1.00800000E+00  1.00800000E+00  1.00800000E+00  1.00800000E+00
  1.20100000E+01  1.20100000E+01  1.00800000E+00  1.00800000E+00  1.00800000E+00
  1.20100000E+01  1.00800000E+00  1.00800000E+00  1.00800000E+00  1.00800000E+00
  3.20600000E+01  1.20100000E+01  1.20100000E+01  1.20100000E+01  1.20100000E+01
  1.20100000E+01  1.20100000E+01  1.20100000E+01  1.20100000E+01  3.20600000E+01
  1.20100000E+01  1.00800000E+00  1.20100000E+01  1.20100000E+01  1.00800000E+00
  1.20100000E+01  1.20100000E+01  1.20100000E+01  1.00800000E+00  1.20100000E+01
  1.00800000E+00  1.00800000E+00  1.00800000E+00  1.20100000E+01  1.20100000E+01
  1.20100000E+01  1.20100000E+01  1.00800000E+00  1.20100000E+01  1.00800000E+00
  1.20100000E+01  1.00800000E+00  1.00800000E+00  1.20100000E+01  1.00800000E+00
  1.00800000E+00  1.20100000E+01  1.00800000E+00  1.00800000E+00  1.00800000E+00
  1.20100000E+01  1.00800000E+00  1.00800000E+00  1.20100000E+01  1.00800000E+00
  1.00800000E+00  1.20100000E+01  1.00800000E+00  1.00800000E+00  1.20100000E+01
  1.00800000E+00  1.00800000E+00  1.00800000E+00  1.00800000E+00  1.20100000E+01
  1.20100000E+01  1.00800000E+00  1.00800000E+00  1.00800000E+00  1.20100000E+01
  1.00800000E+00  1.00800000E+00  1.00800000E+00  1.00800000E+00  3.20600000E+01
  1.20100000E+01  1.20100000E+01  1.20100000E+01  1.20100000E+01  1.20100000E+01
  1.20100000E+01  1.20100000E+01  1.20100000E+01  3.20600000E+01  1.20100000E+01
  1.00800000E+00  1.20100000E+01  1.20100000E+01  1.00800000E+00  1.20100000E+01
  1.20100000E+01  1.20100000E+01  1.00800000E+00  1.20100000E+01  1.00800000E+00
  1.00800000E+00  1.00800000E+00  1.20100000E+01  1.20100000E+01  1.20100000E+01
  1.20100000E+01  1.00800000E+00  1.20100000E+01  1.00800000E+00  1.20100000E+01
  1.00800000E+00  1.00800000E+00  1.20100000E+01  1.00800000E+00  1.00800000E+00
  1.20100000E+01  1.00800000E+00  1.00800000E+00  1.00800000E+00  1.20100000E+01
  1.00800000E+00  1.00800000E+00  1.20100000E+01  1.00800000E+00  1.00800000E+00
  1.20100000E+01  1.00800000E+00  1.00800000E+00  1.20100000E+01  1.00800000E+00
  1.00800000E+00  1.00800000E+00  1.00800000E+00  1.20100000E+01  1.20100000E+01
  1.00800000E+00  1.00800000E+00  1.00800000E+00  1.20100000E+01  1.00800000E+00
  1.00800000E+00  1.00800000E+00  1.00800000E+00  3.20600000E+01  1.20100000E+01
  1.20100000E+01  1.20100000E+01  1.20100000E+01  1.20100000E+01  1.20100000E+01
  1.20100000E+01  1.20100000E+01  3.20600000E+01  1.20100000E+01  1.00800000E+00
  1.20100000E+01  1.20100000E+01  1.00800000E+00  1.20100000E+01  1.20100000E+01
  1.20100000E+01  1.00800000E+00  1.20100000E+01  1.00800000E+00  1.00800000E+00
  1.00800000E+00  1.20100000E+01  1.20100000E+01  1.20100000E+01  1.20100000E+01
  1.00800000E+00  1.20100000E+01  1.00800000E+00  1.20100000E+01  1.00800000E+00
  1.00800000E+00  1.20100000E+01  1.00800000E+00  1.00800000E+00  1.20100000E+01
  1.00800000E+00  1.00800000E+00  1.00800000E+00  1.20100000E+01  1.00800000E+00
  1.00800000E+00  1.20100000E+01  1.00800000E+00  1.00800000E+00  1.20100000E+01
  1.00800000E+00  1.00800000E+00  1.20100000E+01  1.00800000E+00  1.00800000E+00
  1.00800000E+00  1.00800000E+00  1.20100000E+01  1.20100000E+01  1.00800000E+00
  1.00800000E+00  1.00800000E+00  1.20100000E+01  1.00800000E+00  1.00800000E+00
  1.00800000E+00  1.00800000E+00  3.20600000E+01  1.20100000E+01  1.20100000E+01
  1.20100000E+01  1.20100000E+01  1.20100000E+01  1.20100000E+01  1.20100000E+01
  1.20100000E+01  3.20600000E+01  1.20100000E+01  1.00800000E+00  1.20100000E+01
  1.20100000E+01  1.00800000E+00  1.20100000E+01  1.20100000E+01  1.20100000E+01
  1.00800000E+00  1.20100000E+01  1.00800000E+00  1.00800000E+00  1.00800000E+00
  1.20100000E+01  1.20100000E+01  1.20100000E+01  1.20100000E+01  1.00800000E+00
  1.20100000E+01  1.00800000E+00  1.20100000E+01  1.00800000E+00  1.00800000E+00
  1.20100000E+01  1.00800000E+00  1.00800000E+00  1.20100000E+01  1.00800000E+00
  1.00800000E+00  1.00800000E+00  1.20100000E+01  1.00800000E+00  1.00800000E+00
  1.20100000E+01  1.00800000E+00  1.00800000E+00  1.20100000E+01  1.00800000E+00
  1.00800000E+00  1.20100000E+01  1.00800000E+00  1.00800000E+00  1.00800000E+00
  1.00800000E+00  1.20100000E+01  1.20100000E+01  1.00800000E+00  1.00800000E+00
  1.00800000E+00  1.20100000E+01  1.00800000E+00  1.00800000E+00  1.00800000E+00
  1.00800000E+00  3.20600000E+01  1.20100000E+01  1.20100000E+01  1.20100000E+01
  1.20100000E+01  1.20100000E+01  1.20100000E+01  1.20100000E+01  1.20100000E+01
  3.20600000E+01  1.20100000E+01  1.00800000E+00  1.20100000E+01  1.20100000E+01
  1.00800000E+00  1.20100000E+01  1.20100000E+01  1.20100000E+01  1.00800000E+00
  1.20100000E+01  1.00800000E+00  1.00800000E+00  1.00800000E+00  1.20100000E+01
  1.20100000E+01  1.20100000E+01  1.20100000E+01  1.00800000E+00  1.20100000E+01
  1.00800000E+00  1.20100000E+01  1.00800000E+00  1.00800000E+00  1.20100000E+01
  1.00800000E+00  1.00800000E+00  1.20100000E+01  1.00800000E+00  1.00800000E+00
  1.00800000E+00  1.20100000E+01  1.00800000E+00  1.00800000E+00  1.20100000E+01
  1.00800000E+00  1.00800000E+00  1.20100000E+01  1.00800000E+00  1.00800000E+00
  1.20100000E+01  1.00800000E+00  1.00800000E+00  1.00800000E+00  1.00800000E+00
  1.20100000E+01  1.20100000E+01  1.00800000E+00  1.00800000E+00  1.00800000E+00
  1.20100000E+01  1.00800000E+00  1.00800000E+00  1.00800000E+00  1.00800000E+00
  3.20600000E+01  1.20100000E+01  1.20100000E+01  1.20100000E+01  1.20100000E+01
  1.20100000E+01  1.20100000E+01  1.20100000E+01  1.20100000E+01  3.20600000E+01
  1.20100000E+01  1.00800000E+00  1.20100000E+01  1.20100000E+01  1.00800000E+00
  1.20100000E+01  1.20100000E+01  1.20100000E+01  1.00800000E+00  1.20100000E+01
  1.00800000E+00  1.00800000E+00  1.00800000E+00  1.20100000E+01  1.20100000E+01
  1.20100000E+01  1.20100000E+01  1.00800000E+00  1.20100000E+01  1.00800000E+00
  1.20100000E+01  1.00800000E+00  1.00800000E+00  1.20100000E+01  1.00800000E+00
  1.00800000E+00  1.20100000E+01  1.00800000E+00  1.00800000E+00  1.00800000E+00
  1.20100000E+01  1.00800000E+00  1.00800000E+00  1.20100000E+01  1.00800000E+00
  1.00800000E+00  1.20100000E+01  1.00800000E+00  1.00800000E+00  1.20100000E+01
  1.00800000E+00  1.00800000E+00  1.00800000E+00  1.00800000E+00  1.20100000E+01
  1.20100000E+01  1.00800000E+00  1.00800000E+00  1.00800000E+00  1.20100000E+01
  1.00800000E+00  1.00800000E+00  1.00800000E+00  1.00800000E+00  3.20600000E+01
  1.20100000E+01  1.20100000E+01  1.20100000E+01  1.20100000E+01  1.20100000E+01
  1.20100000E+01  1.20100000E+01  1.20100000E+01  3.20600000E+01  1.20100000E+01
  1.00800000E+00  1.20100000E+01  1.20100000E+01  1.00800000E+00  1.20100000E+01
  1.20100000E+01  1.20100000E+01  1.00800000E+00  1.20100000E+01  1.00800000E+00
  1.00800000E+00  1.00800000E+00  1.20100000E+01  1.20100000E+01  1.20100000E+01
  1.20100000E+01  1.00800000E+00  1.20100000E+01  1.00800000E+00  1.20100000E+01
  1.00800000E+00  1.00800000E+00  1.20100000E+01  1.00800000E+00  1.00800000E+00
  1.20100000E+01  1.00800000E+00  1.00800000E+00  1.00800000E+00  1.20100000E+01
  1.00800000E+00  1.00800000E+00  1.20100000E+01  1.00800000E+00  1.00800000E+00
  1.20100000E+01  1.00800000E+00  1.00800000E+00  1.20100000E+01  1.00800000E+00
  1.00800000E+00  1.00800000E+00  1.00800000E+00  1.20100000E+01  1.20100000E+01
  1.00800000E+00  1.00800000E+00  1.00800000E+00  1.20100000E+01  1.00800000E+00
  1.00800000E+00  1.00800000E+00  1.00800000E+00  3.20600000E+01  1.20100000E+01
  1.20100000E+01  1.20100000E+01  1.20100000E+01  1.20100000E+01  1.20100000E+01
  1.20100000E+01  1.20100000E+01  3.20600000E+01  1.20100000E+01  1.00800000E+00
  1.20100000E+01  1.20100000E+01  1.00800000E+00  1.20100000E+01  1.20100000E+01
  1.20100000E+01  1.00800000E+00  1.20100000E+01  1.00800000E+00  1.00800000E+00
  1.00800000E+00  1.20100000E+01  1.20100000E+01  1.20100000E+01  1.20100000E+01
  1.00800000E+00  1.20100000E+01  1.00800000E+00  1.20100000E+01  1.00800000E+00
  1.00800000E+00  1.20100000E+01  1.00800000E+00  1.00800000E+00  1.20100000E+01
  1.00800000E+00  1.00800000E+00  1.00800000E+00  1.20100000E+01  1.00800000E+00
  1.00800000E+00  1.20100000E+01  1.00800000E+00  1.00800000E+00  1.20100000E+01
  1.00800000E+00  1.00800000E+00  1.20100000E+01  1.00800000E+00  1.00800000E+00
  1.00800000E+00  1.00800000E+00  1.20100000E+01  1.20100000E+01  1.00800000E+00
  1.00800000E+00  1.00800000E+00  1.20100000E+01  1.00800000E+00  1.00800000E+00
  1.00800000E+00  1.00800000E+00  3.20600000E+01  1.20100000E+01  1.20100000E+01
  1.20100000E+01  1.20100000E+01  1.20100000E+01  1.20100000E+01  1.20100000E+01
  1.20100000E+01  3.20600000E+01  1.20100000E+01  1.00800000E+00  1.20100000E+01
  1.20100000E+01  1.00800000E+00  1.20100000E+01  1.20100000E+01  1.20100000E+01
  1.00800000E+00  1.20100000E+01  1.00800000E+00  1.00800000E+00  1.00800000E+00
  1.20100000E+01  1.20100000E+01  1.20100000E+01  1.20100000E+01  1.00800000E+00
  1.20100000E+01  1.00800000E+00  1.20100000E+01  1.00800000E+00  1.00800000E+00
  1.20100000E+01  1.00800000E+00  1.00800000E+00  1.20100000E+01  1.00800000E+00
  1.00800000E+00  1.00800000E+00  1.20100000E+01  1.00800000E+00  1.00800000E+00
  1.20100000E+01  1.00800000E+00  1.00800000E+00  1.20100000E+01  1.00800000E+00
  1.00800000E+00  1.20100000E+01  1.00800000E+00  1.00800000E+00  1.00800000E+00
  1.00800000E+00  1.20100000E+01  1.20100000E+01  1.00800000E+00  1.00800000E+00
  1.00800000E+00  1.20100000E+01  1.00800000E+00  1.00800000E+00  1.00800000E+00
  1.00800000E+00  3.20600000E+01  1.20100000E+01  1.20100000E+01  1.20100000E+01
  1.20100000E+01  1.20100000E+01  1.20100000E+01  1.20100000E+01  1.20100000E+01
  3.20600000E+01  1.20100000E+01  1.00800000E+00  1.20100000E+01  1.20100000E+01
  1.00800000E+00  1.20100000E+01  1.20100000E+01  1.20100000E+01  1.00800000E+00
  1.20100000E+01  1.00800000E+00  1.00800000E+00  1.00800000E+00  1.20100000E+01
  1.20100000E+01  1.20100000E+01  1.20100000E+01  1.00800000E+00  1.20100000E+01
  1.00800000E+00  1.20100000E+01  1.00800000E+00  1.00800000E+00  1.20100000E+01
  1.00800000E+00  1.00800000E+00  1.20100000E+01  1.00800000E+00  1.00800000E+00
  1.00800000E+00  1.20100000E+01  1.00800000E+00  1.00800000E+00  1.20100000E+01
  1.00800000E+00  1.00800000E+00  1.20100000E+01  1.00800000E+00  1.00800000E+00
  1.20100000E+01  1.00800000E+00  1.00800000E+00  1.00800000E+00  1.00800000E+00
  1.20100000E+01  1.20100000E+01  1.00800000E+00  1.00800000E+00  1.00800000E+00
  1.20100000E+01  1.00800000E+00  1.00800000E+00  1.00800000E+00  1.00800000E+00
  3.20600000E+01  1.20100000E+01  1.20100000E+01  1.20100000E+01  1.20100000E+01
  1.20100000E+01  1.20100000E+01  1.20100000E+01  1.20100000E+01  3.20600000E+01
  1.20100000E+01  1.00800000E+00  1.20100000E+01  1.20100000E+01  1.00800000E+00
  1.20100000E+01  1.20100000E+01  1.20100000E+01  1.00800000E+00  1.20100000E+01
  1.00800000E+00  1.00800000E+00  1.00800000E+00  1.20100000E+01  1.20100000E+01
  1.20100000E+01  1.20100000E+01  1.00800000E+00  1.20100000E+01  1.00800000E+00
  1.20100000E+01  1.00800000E+00  1.00800000E+00  1.20100000E+01  1.00800000E+00
  1.00800000E+00  1.20100000E+01  1.00800000E+00  1.00800000E+00  1.00800000E+00
  1.20100000E+01  1.00800000E+00  1.00800000E+00  1.20100000E+01  1.00800000E+00
  1.00800000E+00  1.20100000E+01  1.00800000E+00  1.00800000E+00  1.20100000E+01
  1.00800000E+00  1.00800000E+00  1.00800000E+00  1.00800000E+00  1.20100000E+01
  1.20100000E+01  1.00800000E+00  1.00800000E+00  1.00800000E+00  1.20100000E+01
  1.00800000E+00  1.00800000E+00  1.00800000E+00  1.00800000E+00  3.20600000E+01
  1.20100000E+01  1.20100000E+01  1.20100000E+01  1.20100000E+01  1.20100000E+01
  1.20100000E+01  1.20100000E+01  1.20100000E+01  3.20600000E+01  1.20100000E+01
  1.00800000E+00  1.20100000E+01  1.20100000E+01  1.00800000E+00  1.20100000E+01
  1.20100000E+01  1.20100000E+01  1.00800000E+00  1.20100000E+01  1.00800000E+00
  1.00800000E+00  1.00800000E+00  1.20100000E+01  1.20100000E+01  1.20100000E+01
  1.20100000E+01  1.00800000E+00  1.20100000E+01  1.00800000E+00  1.20100000E+01
  1.00800000E+00  1.00800000E+00  1.20100000E+01  1.00800000E+00  1.00800000E+00
  1.20100000E+01  1.00800000E+00  1.00800000E+00  1.00800000E+00  1.20100000E+01
  1.00800000E+00  1.00800000E+00  1.20100000E+01  1.00800000E+00  1.00800000E+00
  1.20100000E+01  1.00800000E+00  1.00800000E+00  1.20100000E+01  1.00800000E+00
  1.00800000E+00  1.00800000E+00  1.00800000E+00  1.20100000E+01  1.20100000E+01
  1.00800000E+00  1.00800000E+00  1.00800000E+00  1.20100000E+01  1.00800000E+00
  1.00800000E+00  1.00800000E+00  1.00800000E+00  3.20600000E+01  1.20100000E+01
  1.20100000E+01  1.20100000E+01  1.20100000E+01  1.20100000E+01  1.20100000E+01
  1.20100000E+01  1.20100000E+01  3.20600000E+01  1.20100000E+01  1.00800000E+00
  1.20100000E+01  1.20100000E+01  1.00800000E+00  1.20100000E+01  1.20100000E+01
  1.20100000E+01  1.00800000E+00  1.20100000E+01  1.00800000E+00  1.00800000E+00
  1.00800000E+00  1.20100000E+01  1.20100000E+01  1.20100000E+01  1.20100000E+01
  1.00800000E+00  1.20100000E+01  1.00800000E+00  1.20100000E+01  1.00800000E+00
  1.00800000E+00  1.20100000E+01  1.00800000E+00  1.00800000E+00  1.20100000E+01
  1.00800000E+00  1.00800000E+00  1.00800000E+00  1.20100000E+01  1.00800000E+00
  1.00800000E+00  1.20100000E+01  1.00800000E+00  1.00800000E+00  1.20100000E+01
  1.00800000E+00  1.00800000E+00  1.20100000E+01  1.00800000E+00  1.00800000E+00
  1.00800000E+00  1.00800000E+00  1.20100000E+01  1.20100000E+01  1.00800000E+00
  1.00800000E+00  1.00800000E+00  1.20100000E+01  1.00800000E+00  1.00800000E+00
  1.00800000E+00  1.00800000E+00  3.20600000E+01  1.20100000E+01  1.20100000E+01
  1.20100000E+01  1.20100000E+01  1.20100000E+01  1.20100000E+01  1.20100000E+01
  1.20100000E+01  3.20600000E+01  1.20100000E+01  1.00800000E+00  1.20100000E+01
  1.20100000E+01  1.00800000E+00  1.20100000E+01  1.20100000E+01  1.20100000E+01
  1.00800000E+00  1.20100000E+01  1.00800000E+00  1.00800000E+00  1.00800000E+00
  1.20100000E+01  1.20100000E+01  1.20100000E+01  1.20100000E+01  1.00800000E+00
  1.20100000E+01  1.00800000E+00  1.20100000E+01  1.00800000E+00  1.00800000E+00
  1.20100000E+01  1.00800000E+00  1.00800000E+00  1.20100000E+01  1.00800000E+00
  1.00800000E+00  1.00800000E+00  1.20100000E+01  1.00800000E+00  1.00800000E+00
  1.20100000E+01  1.00800000E+00  1.00800000E+00  1.20100000E+01  1.00800000E+00
  1.00800000E+00  1.20100000E+01  1.00800000E+00  1.00800000E+00  1.00800000E+00
  1.00800000E+00  1.20100000E+01  1.20100000E+01  1.00800000E+00  1.00800000E+00
  1.00800000E+00  1.20100000E+01  1.00800000E+00  1.00800000E+00  1.00800000E+00
  1.00800000E+00  3.20600000E+01  1.20100000E+01  1.20100000E+01  1.20100000E+01
  1.20100000E+01  1.20100000E+01  1.20100000E+01  1.20100000E+01  1.20100000E+01
  3.20600000E+01  1.20100000E+01  1.00800000E+00  1.20100000E+01  1.20100000E+01
  1.00800000E+00  1.20100000E+01  1.20100000E+01  1.20100000E+01  1.00800000E+00
  1.20100000E+01  1.00800000E+00  1.00800000E+00  1.00800000E+00  1.20100000E+01
  1.20100000E+01  1.20100000E+01  1.20100000E+01  1.00800000E+00  1.20100000E+01
  1.00800000E+00  1.20100000E+01  1.00800000E+00  1.00800000E+00  1.20100000E+01
  1.00800000E+00  1.00800000E+00  1.20100000E+01  1.00800000E+00  1.00800000E+00
  1.00800000E+00  1.20100000E+01  1.00800000E+00  1.00800000E+00  1.20100000E+01
  1.00800000E+00  1.00800000E+00  1.20100000E+01  1.00800000E+00  1.00800000E+00
  1.20100000E+01  1.00800000E+00  1.00800000E+00  1.00800000E+00  1.00800000E+00
  1.20100000E+01  1.20100000E+01  1.00800000E+00  1.00800000E+00  1.00800000E+00
  1.20100000E+01  1.00800000E+00  1.00800000E+00  1.00800000E+00  1.00800000E+00
  3.20600000E+01  1.20100000E+01  1.20100000E+01  1.20100000E+01  1.20100000E+01
  1.20100000E+01  1.20100000E+01  1.20100000E+01  1.20100000E+01  3.20600000E+01
  1.20100000E+01  1.00800000E+00  1.20100000E+01  1.20100000E+01  1.00800000E+00
  1.20100000E+01  1.20100000E+01  1.20100000E+01  1.00800000E+00  1.20100000E+01
  1.00800000E+00  1.00800000E+00  1.00800000E+00  1.20100000E+01  1.20100000E+01
  1.20100000E+01  1.20100000E+01  1.00800000E+00  1.20100000E+01  1.00800000E+00
  1.20100000E+01  1.00800000E+00  1.00800000E+00  1.20100000E+01  1.00800000E+00
  1.00800000E+00  1.20100000E+01  1.00800000E+00  1.00800000E+00  1.00800000E+00
  1.20100000E+01  1.00800000E+00  1.00800000E+00  1.20100000E+01  1.00800000E+00
  1.00800000E+00  1.20100000E+01  1.00800000E+00  1.00800000E+00  1.20100000E+01
  1.00800000E+00  1.00800000E+00  1.00800000E+00  1.00800000E+00  1.20100000E+01
  1.20100000E+01  1.00800000E+00  1.00800000E+00  1.00800000E+00  1.20100000E+01
  1.00800000E+00  1.00800000E+00  1.00800000E+00  1.00800000E+00  3.20600000E+01
  1.20100000E+01  1.20100000E+01  1.20100000E+01  1.20100000E+01  1.20100000E+01
  1.20100000E+01  1.20100000E+01  1.20100000E+01  3.20600000E+01  1.20100000E+01
  1.00800000E+00  1.20100000E+01  1.20100000E+01  1.00800000E+00  1.20100000E+01
  1.20100000E+01  1.20100000E+01  1.00800000E+00  1.20100000E+01  1.00800000E+00
  1.00800000E+00  1.00800000E+00  1.20100000E+01  1.20100000E+01  1.20100000E+01
  1.20100000E+01  1.00800000E+00  1.20100000E+01  1.00800000E+00  1.20100000E+01
  1.00800000E+00  1.00800000E+00  1.20100000E+01  1.00800000E+00  1.00800000E+00
  1.20100000E+01  1.00800000E+00  1.00800000E+00  1.00800000E+00  1.20100000E+01
  1.00800000E+00  1.00800000E+00  1.20100000E+01  1.00800000E+00  1.00800000E+00
  1.20100000E+01  1.00800000E+00  1.00800000E+00  1.20100000E+01  1.00800000E+00
  1.00800000E+00  1.00800000E+00  1.00800000E+00  1.20100000E+01  1.20100000E+01
  1.00800000E+00  1.00800000E+00  1.00800000E+00  1.20100000E+01  1.00800000E+00
  1.00800000E+00  1.00800000E+00  1.00800000E+00  3.20600000E+01  1.20100000E+01
  1.20100000E+01  1.20100000E+01  1.20100000E+01  1.20100000E+01  1.20100000E+01
  1.20100000E+01  1.20100000E+01  3.20600000E+01  1.20100000E+01  1.00800000E+00
  1.20100000E+01  1.20100000E+01  1.00800000E+00  1.20100000E+01  1.20100000E+01
  1.20100000E+01  1.00800000E+00  1.20100000E+01  1.00800000E+00  1.00800000E+00
  1.00800000E+00  1.20100000E+01  1.20100000E+01  1.20100000E+01  1.20100000E+01
  1.00800000E+00  1.20100000E+01  1.00800000E+00  1.20100000E+01  1.00800000E+00
  1.00800000E+00  1.20100000E+01  1.00800000E+00  1.00800000E+00  1.20100000E+01
  1.00800000E+00  1.00800000E+00  1.00800000E+00  1.20100000E+01  1.00800000E+00
  1.00800000E+00  1.20100000E+01  1.00800000E+00  1.00800000E+00  1.20100000E+01
  1.00800000E+00  1.00800000E+00  1.20100000E+01  1.00800000E+00  1.00800000E+00
  1.00800000E+00  1.00800000E+00  1.20100000E+01  1.20100000E+01  1.00800000E+00
  1.00800000E+00  1.00800000E+00  1.20100000E+01  1.00800000E+00  1.00800000E+00
  1.00800000E+00  1.00800000E+00  3.20600000E+01  1.20100000E+01  1.20100000E+01
  1.20100000E+01  1.20100000E+01  1.20100000E+01  1.20100000E+01  1.20100000E+01
  1.20100000E+01  3.20600000E+01  1.20100000E+01  1.00800000E+00  1.20100000E+01
  1.20100000E+01  1.00800000E+00  1.20100000E+01  1.20100000E+01  1.20100000E+01
  1.00800000E+00  1.20100000E+01  1.00800000E+00  1.00800000E+00  1.00800000E+00
  1.20100000E+01  1.20100000E+01  1.20100000E+01  1.20100000E+01  1.00800000E+00
  1.20100000E+01  1.00800000E+00  1.20100000E+01  1.00800000E+00  1.00800000E+00
  1.20100000E+01  1.00800000E+00  1.00800000E+00  1.20100000E+01  1.00800000E+00
  1.00800000E+00  1.00800000E+00  1.20100000E+01  1.00800000E+00  1.00800000E+00
  1.20100000E+01  1.00800000E+00  1.00800000E+00  1.20100000E+01  1.00800000E+00
  1.00800000E+00  1.20100000E+01  1.00800000E+00  1.00800000E+00  1.00800000E+00
  1.00800000E+00  1.20100000E+01  1.20100000E+01  1.00800000E+00  1.00800000E+00
  1.00800000E+00  1.20100000E+01  1.00800000E+00  1.00800000E+00  1.00800000E+00
  1.00800000E+00  3.20600000E+01  1.20100000E+01  1.20100000E+01  1.20100000E+01
  1.20100000E+01  1.20100000E+01  1.20100000E+01  1.20100000E+01  1.20100000E+01
  3.20600000E+01  1.20100000E+01  1.00800000E+00  1.20100000E+01  1.20100000E+01
  1.00800000E+00  1.20100000E+01  1.20100000E+01  1.20100000E+01  1.00800000E+00
  1.20100000E+01  1.00800000E+00  1.00800000E+00  1.00800000E+00  1.20100000E+01
  1.20100000E+01  1.20100000E+01  1.20100000E+01  1.00800000E+00  1.20100000E+01
  1.00800000E+00  1.20100000E+01  1.00800000E+00  1.00800000E+00  1.20100000E+01
  1.00800000E+00  1.00800000E+00  1.20100000E+01  1.00800000E+00  1.00800000E+00
  1.00800000E+00  1.20100000E+01  1.00800000E+00  1.00800000E+00  1.20100000E+01
  1.00800000E+00  1.00800000E+00  1.20100000E+01  1.00800000E+00  1.00800000E+00
  1.20100000E+01  1.00800000E+00  1.00800000E+00  1.00800000E+00  1.00800000E+00
  1.20100000E+01  1.20100000E+01  1.00800000E+00  1.00800000E+00  1.00800000E+00
  1.20100000E+01  1.00800000E+00  1.00800000E+00  1.00800000E+00  1.00800000E+00
  3.20600000E+01  1.20100000E+01  1.20100000E+01  1.20100000E+01  1.20100000E+01
  1.20100000E+01  1.20100000E+01  1.20100000E+01  1.20100000E+01  3.20600000E+01
  1.20100000E+01  1.00800000E+00  1.20100000E+01  1.20100000E+01  1.00800000E+00
  1.20100000E+01  1.20100000E+01  1.20100000E+01  1.00800000E+00  1.20100000E+01
  1.00800000E+00  1.00800000E+00  1.00800000E+00  1.20100000E+01  1.20100000E+01
  1.20100000E+01  1.20100000E+01  1.00800000E+00  1.20100000E+01  1.00800000E+00
  1.20100000E+01  1.00800000E+00  1.00800000E+00  1.20100000E+01  1.00800000E+00
  1.00800000E+00  1.20100000E+01  1.00800000E+00  1.00800000E+00  1.00800000E+00
  1.20100000E+01  1.00800000E+00  1.00800000E+00  1.20100000E+01  1.00800000E+00
  1.00800000E+00  1.20100000E+01  1.00800000E+00  1.00800000E+00  1.20100000E+01
  1.00800000E+00  1.00800000E+00  1.00800000E+00  1.00800000E+00  1.20100000E+01
  1.20100000E+01  1.00800000E+00  1.00800000E+00  1.00800000E+00  1.20100000E+01
  1.00800000E+00  1.00800000E+00  1.00800000E+00  1.00800000E+00  3.20600000E+01
  1.20100000E+01  1.20100000E+01  1.20100000E+01  1.20100000E+01  1.20100000E+01
  1.20100000E+01  1.20100000E+01  1.20100000E+01  3.20600000E+01  1.20100000E+01
  1.00800000E+00  1.20100000E+01  1.20100000E+01  1.00800000E+00  1.20100000E+01
  1.20100000E+01  1.20100000E+01  1.00800000E+00  1.20100000E+01  1.00800000E+00
  1.00800000E+00  1.00800000E+00  1.20100000E+01  1.20100000E+01  1.20100000E+01
  1.20100000E+01  1.00800000E+00  1.20100000E+01  1.00800000E+00  1.20100000E+01
  1.00800000E+00  1.00800000E+00  1.20100000E+01  1.00800000E+00  1.00800000E+00
  1.20100000E+01  1.00800000E+00  1.00800000E+00  1.00800000E+00  1.20100000E+01
  1.00800000E+00  1.00800000E+00  1.20100000E+01  1.00800000E+00  1.00800000E+00
  1.20100000E+01  1.00800000E+00  1.00800000E+00  1.20100000E+01  1.00800000E+00
  1.00800000E+00  1.00800000E+00  1.00800000E+00  1.20100000E+01  1.20100000E+01
  1.00800000E+00  1.00800000E+00  1.00800000E+00  1.20100000E+01  1.00800000E+00
  1.00800000E+00  1.00800000E+00  1.00800000E+00  3.20600000E+01  1.20100000E+01
  1.20100000E+01  1.20100000E+01  1.20100000E+01  1.20100000E+01  1.20100000E+01
  1.20100000E+01  1.20100000E+01  3.20600000E+01  1.20100000E+01  1.00800000E+00
  1.20100000E+01  1.20100000E+01  1.00800000E+00  1.20100000E+01  1.20100000E+01
  1.20100000E+01  1.00800000E+00  1.20100000E+01  1.00800000E+00  1.00800000E+00
  1.00800000E+00  1.20100000E+01  1.20100000E+01  1.20100000E+01  1.20100000E+01
  1.00800000E+00  1.20100000E+01  1.00800000E+00  1.20100000E+01  1.00800000E+00
  1.00800000E+00  1.20100000E+01  1.00800000E+00  1.00800000E+00  1.20100000E+01
  1.00800000E+00  1.00800000E+00  1.00800000E+00  1.20100000E+01  1.00800000E+00
  1.00800000E+00  1.20100000E+01  1.00800000E+00  1.00800000E+00  1.20100000E+01
  1.00800000E+00  1.00800000E+00  1.20100000E+01  1.00800000E+00  1.00800000E+00
  1.00800000E+00  1.00800000E+00  1.20100000E+01  1.20100000E+01  1.00800000E+00
  1.00800000E+00  1.00800000E+00  1.20100000E+01  1.00800000E+00  1.00800000E+00
  1.00800000E+00  1.00800000E+00  3.20600000E+01  1.20100000E+01  1.20100000E+01
  1.20100000E+01  1.20100000E+01  1.20100000E+01  1.20100000E+01  1.20100000E+01
  1.20100000E+01  3.20600000E+01  1.20100000E+01  1.00800000E+00  1.20100000E+01
  1.20100000E+01  1.00800000E+00  1.20100000E+01  1.20100000E+01  1.20100000E+01
  1.00800000E+00  1.20100000E+01  1.00800000E+00  1.00800000E+00  1.00800000E+00
  1.20100000E+01  1.20100000E+01  1.20100000E+01  1.20100000E+01  1.00800000E+00
  1.20100000E+01  1.00800000E+00  1.20100000E+01  1.00800000E+00  1.00800000E+00
  1.20100000E+01  1.00800000E+00  1.00800000E+00  1.20100000E+01  1.00800000E+00
  1.00800000E+00  1.00800000E+00  1.20100000E+01  1.00800000E+00  1.00800000E+00
  1.20100000E+01  1.00800000E+00  1.00800000E+00  1.20100000E+01  1.00800000E+00
  1.00800000E+00  1.20100000E+01  1.00800000E+00  1.00800000E+00  1.00800000E+00
  1.00800000E+00  1.20100000E+01  1.20100000E+01  1.00800000E+00  1.00800000E+00
  1.00800000E+00  1.20100000E+01  1.00800000E+00  1.00800000E+00  1.00800000E+00
  1.00800000E+00  3.20600000E+01  1.20100000E+01  1.20100000E+01  1.20100000E+01
  1.20100000E+01  1.20100000E+01  1.20100000E+01  1.20100000E+01  1.20100000E+01
  3.20600000E+01  1.20100000E+01  1.00800000E+00  1.20100000E+01  1.20100000E+01
  1.00800000E+00  1.20100000E+01  1.20100000E+01  1.20100000E+01  1.00800000E+00
  1.20100000E+01  1.00800000E+00  1.00800000E+00  1.00800000E+00  1.20100000E+01
  1.20100000E+01  1.20100000E+01  1.20100000E+01  1.00800000E+00  1.20100000E+01
  1.00800000E+00  1.20100000E+01  1.00800000E+00  1.00800000E+00  1.20100000E+01
  1.00800000E+00  1.00800000E+00  1.20100000E+01  1.00800000E+00  1.00800000E+00
  1.00800000E+00  1.20100000E+01  1.00800000E+00  1.00800000E+00  1.20100000E+01
  1.00800000E+00  1.00800000E+00  1.20100000E+01  1.00800000E+00  1.00800000E+00
  1.20100000E+01  1.00800000E+00  1.00800000E+00  1.00800000E+00  1.00800000E+00
  1.20100000E+01  1.20100000E+01  1.00800000E+00  1.00800000E+00  1.00800000E+00
  1.20100000E+01  1.00800000E+00  1.00800000E+00  1.00800000E+00  1.00800000E+00
  3.20600000E+01  1.20100000E+01  1.20100000E+01  1.20100000E+01  1.20100000E+01
  1.20100000E+01  1.20100000E+01  1.20100000E+01  1.20100000E+01  3.20600000E+01
  1.20100000E+01  1.00800000E+00  1.20100000E+01  1.20100000E+01  1.00800000E+00
  1.20100000E+01  1.20100000E+01  1.20100000E+01  1.00800000E+00  1.20100000E+01
  1.00800000E+00  1.00800000E+00  1.00800000E+00  1.20100000E+01  1.20100000E+01
  1.20100000E+01  1.20100000E+01  1.00800000E+00  1.20100000E+01  1.00800000E+00
  1.20100000E+01  1.00800000E+00  1.00800000E+00  1.20100000E+01  1.00800000E+00
  1.00800000E+00  1.20100000E+01  1.00800000E+00  1.00800000E+00  1.00800000E+00
  1.20100000E+01  1.00800000E+00  1.00800000E+00  1.20100000E+01  1.00800000E+00
  1.00800000E+00  1.20100000E+01  1.00800000E+00  1.00800000E+00  1.20100000E+01
  1.00800000E+00  1.00800000E+00  1.00800000E+00  1.00800000E+00  1.20100000E+01
  1.20100000E+01  1.00800000E+00  1.00800000E+00  1.00800000E+00  1.20100000E+01
  1.00800000E+00  1.00800000E+00  1.00800000E+00  1.00800000E+00  3.20600000E+01
  1.20100000E+01  1.20100000E+01  1.20100000E+01  1.20100000E+01  1.20100000E+01
  1.20100000E+01  1.20100000E+01  1.20100000E+01  3.20600000E+01  1.20100000E+01
  1.00800000E+00  1.20100000E+01  1.20100000E+01  1.00800000E+00  1.20100000E+01
  1.20100000E+01  1.20100000E+01  1.00800000E+00  1.20100000E+01  1.00800000E+00
  1.00800000E+00  1.00800000E+00  1.20100000E+01  1.20100000E+01  1.20100000E+01
  1.20100000E+01  1.00800000E+00  1.20100000E+01  1.00800000E+00  1.20100000E+01
  1.00800000E+00  1.00800000E+00  1.20100000E+01  1.00800000E+00  1.00800000E+00
  1.20100000E+01  1.00800000E+00  1.00800000E+00  1.00800000E+00  1.20100000E+01
  1.00800000E+00  1.00800000E+00  1.20100000E+01  1.00800000E+00  1.00800000E+00
  1.20100000E+01  1.00800000E+00  1.00800000E+00  1.20100000E+01  1.00800000E+00
  1.00800000E+00  1.00800000E+00  1.00800000E+00  1.20100000E+01  1.20100000E+01
  1.00800000E+00  1.00800000E+00  1.00800000E+00  1.20100000E+01  1.00800000E+00
  1.00800000E+00  1.00800000E+00  1.00800000E+00  3.20600000E+01  1.20100000E+01
  1.20100000E+01  1.20100000E+01  1.20100000E+01  1.20100000E+01  1.20100000E+01
  1.20100000E+01  1.20100000E+01  3.20600000E+01  1.20100000E+01  1.00800000E+00
  1.20100000E+01  1.20100000E+01  1.00800000E+00  1.20100000E+01  1.20100000E+01
  1.20100000E+01  1.00800000E+00  1.20100000E+01  1.00800000E+00  1.00800000E+00
  1.00800000E+00  1.20100000E+01  1.20100000E+01  1.20100000E+01  1.20100000E+01
  1.00800000E+00  1.20100000E+01  1.00800000E+00  1.20100000E+01  1.00800000E+00
  1.00800000E+00  1.20100000E+01  1.00800000E+00  1.00800000E+00  1.20100000E+01
  1.00800000E+00  1.00800000E+00  1.00800000E+00  1.20100000E+01  1.00800000E+00
  1.00800000E+00  1.20100000E+01  1.00800000E+00  1.00800000E+00  1.20100000E+01
  1.00800000E+00  1.00800000E+00  1.20100000E+01  1.00800000E+00  1.00800000E+00
  1.00800000E+00  1.00800000E+00  1.20100000E+01  1.20100000E+01  1.00800000E+00
  1.00800000E+00  1.00800000E+00  1.20100000E+01  1.00800000E+00  1.00800000E+00
  1.00800000E+00  1.00800000E+00  3.20600000E+01  1.20100000E+01  1.20100000E+01
  1.20100000E+01  1.20100000E+01  1.20100000E+01  1.20100000E+01  1.20100000E+01
  1.20100000E+01  3.20600000E+01  1.20100000E+01  1.00800000E+00  1.20100000E+01
  1.20100000E+01  1.00800000E+00  1.20100000E+01  1.20100000E+01  1.20100000E+01
  1.00800000E+00  1.20100000E+01  1.00800000E+00  1.00800000E+00  1.00800000E+00
  1.20100000E+01  1.20100000E+01  1.20100000E+01  1.20100000E+01  1.00800000E+00
  1.20100000E+01  1.00800000E+00  1.20100000E+01  1.00800000E+00  1.00800000E+00
  1.20100000E+01  1.00800000E+00  1.00800000E+00  1.20100000E+01  1.00800000E+00
  1.00800000E+00  1.00800000E+00  1.20100000E+01  1.00800000E+00  1.00800000E+00
  1.20100000E+01  1.00800000E+00  1.00800000E+00  1.20100000E+01  1.00800000E+00
  1.00800000E+00  1.20100000E+01  1.00800000E+00  1.00800000E+00  1.00800000E+00
  1.00800000E+00  1.20100000E+01  1.20100000E+01  1.00800000E+00  1.00800000E+00
  1.00800000E+00  1.20100000E+01  1.00800000E+00  1.00800000E+00  1.00800000E+00
  1.00800000E+00  3.20600000E+01  1.20100000E+01  1.20100000E+01  1.20100000E+01
  1.20100000E+01  1.20100000E+01  1.20100000E+01  1.20100000E+01  1.20100000E+01
  3.20600000E+01  1.20100000E+01  1.00800000E+00  1.20100000E+01  1.20100000E+01
  1.00800000E+00  1.20100000E+01  1.20100000E+01  1.20100000E+01  1.00800000E+00
  1.20100000E+01  1.00800000E+00  1.00800000E+00  1.00800000E+00  1.20100000E+01
  1.20100000E+01  1.20100000E+01  1.20100000E+01  1.00800000E+00  1.20100000E+01
  1.00800000E+00  1.20100000E+01  1.00800000E+00  1.00800000E+00  1.20100000E+01
  1.00800000E+00  1.00800000E+00  1.20100000E+01  1.00800000E+00  1.00800000E+00
  1.00800000E+00  1.20100000E+01  1.00800000E+00  1.00800000E+00  1.20100000E+01
  1.00800000E+00  1.00800000E+00  1.20100000E+01  1.00800000E+00  1.00800000E+00
  1.20100000E+01  1.00800000E+00  1.00800000E+00  1.00800000E+00  1.00800000E+00
  1.20100000E+01  1.20100000E+01  1.00800000E+00  1.00800000E+00  1.00800000E+00
  1.20100000E+01  1.00800000E+00  1.00800000E+00  1.00800000E+00  1.00800000E+00
  3.20600000E+01  1.20100000E+01  1.20100000E+01  1.20100000E+01  1.20100000E+01
  1.20100000E+01  1.20100000E+01  1.20100000E+01  1.20100000E+01  3.20600000E+01
  1.20100000E+01  1.00800000E+00  1.20100000E+01  1.20100000E+01  1.00800000E+00
  1.20100000E+01  1.20100000E+01  1.20100000E+01  1.00800000E+00  1.20100000E+01
  1.00800000E+00  1.00800000E+00  1.00800000E+00  1.20100000E+01  1.20100000E+01
  1.20100000E+01  1.20100000E+01  1.00800000E+00  1.20100000E+01  1.00800000E+00
  1.20100000E+01  1.00800000E+00  1.00800000E+00  1.20100000E+01  1.00800000E+00
  1.00800000E+00  1.20100000E+01  1.00800000E+00  1.00800000E+00  1.00800000E+00
  1.20100000E+01  1.00800000E+00  1.00800000E+00  1.20100000E+01  1.00800000E+00
  1.00800000E+00  1.20100000E+01  1.00800000E+00  1.00800000E+00  1.20100000E+01
  1.00800000E+00  1.00800000E+00  1.00800000E+00  1.00800000E+00  1.20100000E+01
  1.20100000E+01  1.00800000E+00  1.00800000E+00  1.00800000E+00  1.20100000E+01
  1.00800000E+00  1.00800000E+00  1.00800000E+00  1.00800000E+00  3.20600000E+01
  1.20100000E+01  1.20100000E+01  1.20100000E+01  1.20100000E+01  1.20100000E+01
  1.20100000E+01  1.20100000E+01  1.20100000E+01  3.20600000E+01  1.20100000E+01
  1.00800000E+00  1.20100000E+01  1.20100000E+01  1.00800000E+00  1.20100000E+01
  1.20100000E+01  1.20100000E+01  1.00800000E+00  1.20100000E+01  1.00800000E+00
  1.00800000E+00  1.00800000E+00  1.20100000E+01  1.20100000E+01  1.20100000E+01
  1.20100000E+01  1.00800000E+00  1.20100000E+01  1.00800000E+00  1.20100000E+01
  1.00800000E+00  1.00800000E+00  1.20100000E+01  1.00800000E+00  1.00800000E+00
  1.20100000E+01  1.00800000E+00  1.00800000E+00  1.00800000E+00  1.20100000E+01
  1.00800000E+00  1.00800000E+00  1.20100000E+01  1.00800000E+00  1.00800000E+00
  1.20100000E+01  1.00800000E+00  1.00800000E+00  1.20100000E+01  1.00800000E+00
  1.00800000E+00  1.00800000E+00  1.00800000E+00  1.20100000E+01  1.20100000E+01
  1.00800000E+00  1.00800000E+00  1.00800000E+00  1.20100000E+01  1.00800000E+00
  1.00800000E+00  1.00800000E+00  1.00800000E+00  3.20600000E+01  1.20100000E+01
  1.20100000E+01  1.20100000E+01  1.20100000E+01  1.20100000E+01  1.20100000E+01
  1.20100000E+01  1.20100000E+01  3.20600000E+01  1.20100000E+01  1.00800000E+00
  1.20100000E+01  1.20100000E+01  1.00800000E+00  1.20100000E+01  1.20100000E+01
  1.20100000E+01  1.00800000E+00  1.20100000E+01  1.00800000E+00  1.00800000E+00
  1.00800000E+00  1.20100000E+01  1.20100000E+01  1.20100000E+01  1.20100000E+01
  1.00800000E+00  1.20100000E+01  1.00800000E+00  1.20100000E+01  1.00800000E+00
  1.00800000E+00  1.20100000E+01  1.00800000E+00  1.00800000E+00  1.20100000E+01
  1.00800000E+00  1.00800000E+00  1.00800000E+00  1.20100000E+01  1.00800000E+00
  1.00800000E+00  1.20100000E+01  1.00800000E+00  1.00800000E+00  1.20100000E+01
  1.00800000E+00  1.00800000E+00  1.20100000E+01  1.00800000E+00  1.00800000E+00
  1.00800000E+00  1.00800000E+00  1.20100000E+01  1.20100000E+01  1.00800000E+00
  1.00800000E+00  1.00800000E+00  1.20100000E+01  1.00800000E+00  1.00800000E+00
  1.00800000E+00  1.00800000E+00  3.20600000E+01  1.20100000E+01  1.20100000E+01
  1.20100000E+01  1.20100000E+01  1.20100000E+01  1.20100000E+01  1.20100000E+01
  1.20100000E+01  3.20600000E+01  1.20100000E+01  1.00800000E+00  1.20100000E+01
  1.20100000E+01  1.00800000E+00  1.20100000E+01  1.20100000E+01  1.20100000E+01
  1.00800000E+00  1.20100000E+01  1.00800000E+00  1.00800000E+00  1.00800000E+00
  1.20100000E+01  1.20100000E+01  1.20100000E+01  1.20100000E+01  1.00800000E+00
  1.20100000E+01  1.00800000E+00  1.20100000E+01  1.00800000E+00  1.00800000E+00
  1.20100000E+01  1.00800000E+00  1.00800000E+00  1.20100000E+01  1.00800000E+00
  1.00800000E+00  1.00800000E+00  1.20100000E+01  1.00800000E+00  1.00800000E+00
  1.20100000E+01  1.00800000E+00  1.00800000E+00  1.20100000E+01  1.00800000E+00
  1.00800000E+00  1.20100000E+01  1.00800000E+00  1.00800000E+00  1.00800000E+00
  1.00800000E+00  1.20100000E+01  1.20100000E+01  1.00800000E+00  1.00800000E+00
  1.00800000E+00  1.20100000E+01  1.00800000E+00  1.00800000E+00  1.00800000E+00
  1.00800000E+00  3.20600000E+01  1.20100000E+01  1.20100000E+01  1.20100000E+01
  1.20100000E+01  1.20100000E+01  1.20100000E+01  1.20100000E+01  1.20100000E+01
  3.20600000E+01  1.20100000E+01  1.00800000E+00  1.20100000E+01  1.20100000E+01
  1.00800000E+00  1.20100000E+01  1.20100000E+01  1.20100000E+01  1.00800000E+00
  1.20100000E+01  1.00800000E+00  1.00800000E+00  1.00800000E+00  1.20100000E+01
  1.20100000E+01  1.20100000E+01  1.20100000E+01  1.00800000E+00  1.20100000E+01
  1.00800000E+00  1.20100000E+01  1.00800000E+00  1.00800000E+00  1.20100000E+01
  1.00800000E+00  1.00800000E+00  1.20100000E+01  1.00800000E+00  1.00800000E+00
  1.00800000E+00  1.20100000E+01  1.00800000E+00  1.00800000E+00  1.20100000E+01
  1.00800000E+00  1.00800000E+00  1.20100000E+01  1.00800000E+00  1.00800000E+00
  1.20100000E+01  1.00800000E+00  1.00800000E+00  1.00800000E+00  1.00800000E+00
  1.20100000E+01  1.20100000E+01  1.00800000E+00  1.00800000E+00  1.00800000E+00
  1.20100000E+01  1.00800000E+00  1.00800000E+00  1.00800000E+00  1.00800000E+00
  3.20600000E+01  1.20100000E+01  1.20100000E+01  1.20100000E+01  1.20100000E+01
  1.20100000E+01  1.20100000E+01  1.20100000E+01  1.20100000E+01  3.20600000E+01
  1.20100000E+01  1.00800000E+00  1.20100000E+01  1.20100000E+01  1.00800000E+00
  1.20100000E+01  1.20100000E+01  1.20100000E+01  1.00800000E+00  1.20100000E+01
  1.00800000E+00  1.00800000E+00  1.00800000E+00  1.20100000E+01  1.20100000E+01
  1.20100000E+01  1.20100000E+01  1.00800000E+00  1.20100000E+01  1.00800000E+00
  1.20100000E+01  1.00800000E+00  1.00800000E+00  1.20100000E+01  1.00800000E+00
  1.00800000E+00  1.20100000E+01  1.00800000E+00  1.00800000E+00  1.00800000E+00
  1.20100000E+01  1.00800000E+00  1.00800000E+00  1.20100000E+01  1.00800000E+00
  1.00800000E+00  1.20100000E+01  1.00800000E+00  1.00800000E+00  1.20100000E+01
  1.00800000E+00  1.00800000E+00  1.00800000E+00  1.00800000E+00  1.20100000E+01
  1.20100000E+01  1.00800000E+00  1.00800000E+00  1.00800000E+00  1.20100000E+01
  1.00800000E+00  1.00800000E+00  1.00800000E+00  1.00800000E+00  3.20600000E+01
  1.20100000E+01  1.20100000E+01  1.20100000E+01  1.20100000E+01  1.20100000E+01
  1.20100000E+01  1.20100000E+01  1.20100000E+01  3.20600000E+01  1.20100000E+01
  1.00800000E+00  1.20100000E+01  1.20100000E+01  1.00800000E+00  1.20100000E+01
  1.20100000E+01  1.20100000E+01  1.00800000E+00  1.20100000E+01  1.00800000E+00
  1.00800000E+00  1.00800000E+00  1.20100000E+01  1.20100000E+01  1.20100000E+01
  1.20100000E+01  1.00800000E+00  1.20100000E+01  1.00800000E+00  1.20100000E+01
  1.00800000E+00  1.00800000E+00  1.20100000E+01  1.00800000E+00  1.00800000E+00
  1.20100000E+01  1.00800000E+00  1.00800000E+00  1.00800000E+00  1.20100000E+01
  1.00800000E+00  1.00800000E+00  1.20100000E+01  1.00800000E+00  1.00800000E+00
  1.20100000E+01  1.00800000E+00  1.00800000E+00  1.20100000E+01  1.00800000E+00
  1.00800000E+00  1.00800000E+00  1.00800000E+00  1.20100000E+01  1.20100000E+01
  1.00800000E+00  1.00800000E+00  1.00800000E+00  1.20100000E+01  1.00800000E+00
  1.00800000E+00  1.00800000E+00  1.00800000E+00  3.20600000E+01  1.20100000E+01
  1.20100000E+01  1.20100000E+01  1.20100000E+01  1.20100000E+01  1.20100000E+01
  1.20100000E+01  1.20100000E+01  3.20600000E+01  1.20100000E+01  1.00800000E+00
  1.20100000E+01  1.20100000E+01  1.00800000E+00  1.20100000E+01  1.20100000E+01
  1.20100000E+01  1.00800000E+00  1.20100000E+01  1.00800000E+00  1.00800000E+00
  1.00800000E+00  1.20100000E+01  1.20100000E+01  1.20100000E+01  1.20100000E+01
  1.00800000E+00  1.20100000E+01  1.00800000E+00  1.20100000E+01  1.00800000E+00
  1.00800000E+00  1.20100000E+01  1.00800000E+00  1.00800000E+00  1.20100000E+01
  1.00800000E+00  1.00800000E+00  1.00800000E+00  1.20100000E+01  1.00800000E+00
  1.00800000E+00  1.20100000E+01  1.00800000E+00  1.00800000E+00  1.20100000E+01
  1.00800000E+00  1.00800000E+00  1.20100000E+01  1.00800000E+00  1.00800000E+00
  1.00800000E+00  1.00800000E+00  1.20100000E+01  1.20100000E+01  1.00800000E+00
  1.00800000E+00  1.00800000E+00  1.20100000E+01  1.00800000E+00  1.00800000E+00
  1.00800000E+00  1.00800000E+00  3.20600000E+01  1.20100000E+01  1.20100000E+01
  1.20100000E+01  1.20100000E+01  1.20100000E+01  1.20100000E+01  1.20100000E+01
  1.20100000E+01  3.20600000E+01  1.20100000E+01  1.00800000E+00  1.20100000E+01
  1.20100000E+01  1.00800000E+00  1.20100000E+01  1.20100000E+01  1.20100000E+01
  1.00800000E+00  1.20100000E+01  1.00800000E+00  1.00800000E+00  1.00800000E+00
  1.20100000E+01  1.20100000E+01  1.20100000E+01  1.20100000E+01  1.00800000E+00
  1.20100000E+01  1.00800000E+00  1.20100000E+01  1.00800000E+00  1.00800000E+00
  1.20100000E+01  1.00800000E+00  1.00800000E+00  1.20100000E+01  1.00800000E+00
  1.00800000E+00  1.00800000E+00  1.20100000E+01  1.00800000E+00  1.00800000E+00
  1.20100000E+01  1.00800000E+00  1.00800000E+00  1.20100000E+01  1.00800000E+00
  1.00800000E+00  1.20100000E+01  1.00800000E+00  1.00800000E+00  1.00800000E+00
  1.00800000E+00  1.20100000E+01  1.20100000E+01  1.00800000E+00  1.00800000E+00
  1.00800000E+00  1.20100000E+01  1.00800000E+00  1.00800000E+00  1.00800000E+00
  1.00800000E+00  3.20600000E+01  1.20100000E+01  1.20100000E+01  1.20100000E+01
  1.20100000E+01  1.20100000E+01  1.20100000E+01  1.20100000E+01  1.20100000E+01
  3.20600000E+01  1.20100000E+01  1.00800000E+00  1.20100000E+01  1.20100000E+01
  1.00800000E+00  1.20100000E+01  1.20100000E+01  1.20100000E+01  1.00800000E+00
  1.20100000E+01  1.00800000E+00  1.00800000E+00  1.00800000E+00  1.20100000E+01
  1.20100000E+01  1.20100000E+01  1.20100000E+01  1.00800000E+00  1.20100000E+01
  1.00800000E+00  1.20100000E+01  1.00800000E+00  1.00800000E+00  1.20100000E+01
  1.00800000E+00  1.00800000E+00  1.20100000E+01  1.00800000E+00  1.00800000E+00
  1.00800000E+00  1.20100000E+01  1.00800000E+00  1.00800000E+00  1.20100000E+01
  1.00800000E+00  1.00800000E+00  1.20100000E+01  1.00800000E+00  1.00800000E+00
  1.20100000E+01  1.00800000E+00  1.00800000E+00  1.00800000E+00  1.00800000E+00
  1.20100000E+01  1.20100000E+01  1.00800000E+00  1.00800000E+00  1.00800000E+00
  1.20100000E+01  1.00800000E+00  1.00800000E+00  1.00800000E+00  1.00800000E+00
  3.20600000E+01  1.20100000E+01  1.20100000E+01  1.20100000E+01  1.20100000E+01
  1.20100000E+01  1.20100000E+01  1.20100000E+01  1.20100000E+01  3.20600000E+01
  1.20100000E+01  1.00800000E+00  1.20100000E+01  1.20100000E+01  1.00800000E+00
  1.20100000E+01  1.20100000E+01  1.20100000E+01  1.00800000E+00  1.20100000E+01
  1.00800000E+00  1.00800000E+00  1.00800000E+00  1.20100000E+01  1.20100000E+01
  1.20100000E+01  1.20100000E+01  1.00800000E+00  1.20100000E+01  1.00800000E+00
  1.20100000E+01  1.00800000E+00  1.00800000E+00  1.20100000E+01  1.00800000E+00
  1.00800000E+00  1.20100000E+01  1.00800000E+00  1.00800000E+00  1.00800000E+00
  1.20100000E+01  1.00800000E+00  1.00800000E+00  1.20100000E+01  1.00800000E+00
  1.00800000E+00  1.20100000E+01  1.00800000E+00  1.00800000E+00  1.20100000E+01
  1.00800000E+00  1.00800000E+00  1.00800000E+00  1.00800000E+00  1.20100000E+01
  1.20100000E+01  1.00800000E+00  1.00800000E+00  1.00800000E+00  1.20100000E+01
  1.00800000E+00  1.00800000E+00  1.00800000E+00  1.00800000E+00  3.20600000E+01
  1.20100000E+01  1.20100000E+01  1.20100000E+01  1.20100000E+01  1.20100000E+01
  1.20100000E+01  1.20100000E+01  1.20100000E+01  3.20600000E+01  1.20100000E+01
  1.00800000E+00  1.20100000E+01  1.20100000E+01  1.00800000E+00  1.20100000E+01
  1.20100000E+01  1.20100000E+01  1.00800000E+00  1.20100000E+01  1.00800000E+00
  1.00800000E+00  1.00800000E+00  1.20100000E+01  1.20100000E+01  1.20100000E+01
  1.20100000E+01  1.00800000E+00  1.20100000E+01  1.00800000E+00  1.20100000E+01
  1.00800000E+00  1.00800000E+00  1.20100000E+01  1.00800000E+00  1.00800000E+00
  1.20100000E+01  1.00800000E+00  1.00800000E+00  1.00800000E+00  1.20100000E+01
  1.00800000E+00  1.00800000E+00  1.20100000E+01  1.00800000E+00  1.00800000E+00
  1.20100000E+01  1.00800000E+00  1.00800000E+00  1.20100000E+01  1.00800000E+00
  1.00800000E+00  1.00800000E+00  1.00800000E+00  1.20100000E+01  1.20100000E+01
  1.00800000E+00  1.00800000E+00  1.00800000E+00  1.20100000E+01  1.00800000E+00
  1.00800000E+00  1.00800000E+00  1.00800000E+00  3.20600000E+01  1.20100000E+01
  1.20100000E+01  1.20100000E+01  1.20100000E+01  1.20100000E+01  1.20100000E+01
  1.20100000E+01  1.20100000E+01  3.20600000E+01  1.20100000E+01  1.00800000E+00
  1.20100000E+01  1.20100000E+01  1.00800000E+00  1.20100000E+01  1.20100000E+01
  1.20100000E+01  1.00800000E+00  1.20100000E+01  1.00800000E+00  1.00800000E+00
  1.00800000E+00  1.20100000E+01  1.20100000E+01  1.20100000E+01  1.20100000E+01
  1.00800000E+00  1.20100000E+01  1.00800000E+00  1.20100000E+01  1.00800000E+00
  1.00800000E+00  1.20100000E+01  1.00800000E+00  1.00800000E+00  1.20100000E+01
  1.00800000E+00  1.00800000E+00  1.00800000E+00  1.20100000E+01  1.00800000E+00
  1.00800000E+00  1.20100000E+01  1.00800000E+00  1.00800000E+00  1.20100000E+01
  1.00800000E+00  1.00800000E+00  1.20100000E+01  1.00800000E+00  1.00800000E+00
  1.00800000E+00  1.00800000E+00  1.20100000E+01  1.20100000E+01  1.00800000E+00
  1.00800000E+00  1.00800000E+00  1.20100000E+01  1.00800000E+00  1.00800000E+00
  1.00800000E+00  1.00800000E+00  3.20600000E+01  1.20100000E+01  1.20100000E+01
  1.20100000E+01  1.20100000E+01  1.20100000E+01  1.20100000E+01  1.20100000E+01
  1.20100000E+01  3.20600000E+01  1.20100000E+01  1.00800000E+00  1.20100000E+01
  1.20100000E+01  1.00800000E+00  1.20100000E+01  1.20100000E+01  1.20100000E+01
  1.00800000E+00  1.20100000E+01  1.00800000E+00  1.00800000E+00  1.00800000E+00
  1.20100000E+01  1.20100000E+01  1.20100000E+01  1.20100000E+01  1.00800000E+00
  1.20100000E+01  1.00800000E+00  1.20100000E+01  1.00800000E+00  1.00800000E+00
  1.20100000E+01  1.00800000E+00  1.00800000E+00  1.20100000E+01  1.00800000E+00
  1.00800000E+00  1.00800000E+00  1.20100000E+01  1.00800000E+00  1.00800000E+00
  1.20100000E+01  1.00800000E+00  1.00800000E+00  1.20100000E+01  1.00800000E+00
  1.00800000E+00  1.20100000E+01  1.00800000E+00  1.00800000E+00  1.00800000E+00
  1.00800000E+00  1.20100000E+01  1.20100000E+01  1.00800000E+00  1.00800000E+00
  1.00800000E+00  1.20100000E+01  1.00800000E+00  1.00800000E+00  1.00800000E+00
  1.00800000E+00  3.20600000E+01  1.20100000E+01  1.20100000E+01  1.20100000E+01
  1.20100000E+01  1.20100000E+01  1.20100000E+01  1.20100000E+01  1.20100000E+01
  3.20600000E+01  1.20100000E+01  1.00800000E+00  1.20100000E+01  1.20100000E+01
  1.00800000E+00  1.20100000E+01  1.20100000E+01  1.20100000E+01  1.00800000E+00
  1.20100000E+01  1.00800000E+00  1.00800000E+00  1.00800000E+00  1.20100000E+01
  1.20100000E+01  1.20100000E+01  1.20100000E+01  1.00800000E+00  1.20100000E+01
  1.00800000E+00  1.20100000E+01  1.00800000E+00  1.00800000E+00  1.20100000E+01
  1.00800000E+00  1.00800000E+00  1.20100000E+01  1.00800000E+00  1.00800000E+00
  1.00800000E+00  1.20100000E+01  1.00800000E+00  1.00800000E+00  1.20100000E+01
  1.00800000E+00  1.00800000E+00  1.20100000E+01  1.00800000E+00  1.00800000E+00
  1.20100000E+01  1.00800000E+00  1.00800000E+00  1.00800000E+00  1.00800000E+00
  1.20100000E+01  1.20100000E+01  1.00800000E+00  1.00800000E+00  1.00800000E+00
  1.20100000E+01  1.00800000E+00  1.00800000E+00  1.00800000E+00  1.00800000E+00
  3.20600000E+01  1.20100000E+01  1.20100000E+01  1.20100000E+01  1.20100000E+01
  1.20100000E+01  1.20100000E+01  1.20100000E+01  1.20100000E+01  3.20600000E+01
  1.20100000E+01  1.00800000E+00  1.20100000E+01  1.20100000E+01  1.00800000E+00
  1.20100000E+01  1.20100000E+01  1.20100000E+01  1.00800000E+00  1.20100000E+01
  1.00800000E+00  1.00800000E+00  1.00800000E+00  1.20100000E+01  1.20100000E+01
  1.20100000E+01  1.20100000E+01  1.00800000E+00  1.20100000E+01  1.00800000E+00
  1.20100000E+01  1.00800000E+00  1.00800000E+00  1.20100000E+01  1.00800000E+00
  1.00800000E+00  1.20100000E+01  1.00800000E+00  1.00800000E+00  1.00800000E+00
  1.20100000E+01  1.00800000E+00  1.00800000E+00  1.20100000E+01  1.00800000E+00
  1.00800000E+00  1.20100000E+01  1.00800000E+00  1.00800000E+00  1.20100000E+01
  1.00800000E+00  1.00800000E+00  1.00800000E+00  1.00800000E+00  1.20100000E+01
  1.20100000E+01  1.00800000E+00  1.00800000E+00  1.00800000E+00  1.20100000E+01
  1.00800000E+00  1.00800000E+00  1.00800000E+00  1.00800000E+00  3.20600000E+01
  1.20100000E+01  1.20100000E+01  1.20100000E+01  1.20100000E+01  1.20100000E+01
  1.20100000E+01  1.20100000E+01  1.20100000E+01  3.20600000E+01  1.20100000E+01
  1.00800000E+00  1.20100000E+01  1.20100000E+01  1.00800000E+00  1.20100000E+01
  1.20100000E+01  1.20100000E+01  1.00800000E+00  1.20100000E+01  1.00800000E+00
  1.00800000E+00  1.00800000E+00  1.20100000E+01  1.20100000E+01  1.20100000E+01
  1.20100000E+01  1.00800000E+00  1.20100000E+01  1.00800000E+00  1.20100000E+01
  1.00800000E+00  1.00800000E+00  1.20100000E+01  1.00800000E+00  1.00800000E+00
  1.20100000E+01  1.00800000E+00  1.00800000E+00  1.00800000E+00  1.20100000E+01
  1.00800000E+00  1.00800000E+00  1.20100000E+01  1.00800000E+00  1.00800000E+00
  1.20100000E+01  1.00800000E+00  1.00800000E+00  1.20100000E+01  1.00800000E+00
  1.00800000E+00  1.00800000E+00  1.00800000E+00  1.20100000E+01  1.20100000E+01
  1.00800000E+00  1.00800000E+00  1.00800000E+00  1.20100000E+01  1.00800000E+00
  1.00800000E+00  1.00800000E+00  1.00800000E+00  3.20600000E+01  1.20100000E+01
  1.20100000E+01  1.20100000E+01  1.20100000E+01  1.20100000E+01  1.20100000E+01
  1.20100000E+01  1.20100000E+01  3.20600000E+01  1.20100000E+01  1.00800000E+00
  1.20100000E+01  1.20100000E+01  1.00800000E+00  1.20100000E+01  1.20100000E+01
  1.20100000E+01  1.00800000E+00  1.20100000E+01  1.00800000E+00  1.00800000E+00
  1.00800000E+00  1.20100000E+01  1.20100000E+01  1.20100000E+01  1.20100000E+01
  1.00800000E+00  1.20100000E+01  1.00800000E+00  1.20100000E+01  1.00800000E+00
  1.00800000E+00  1.20100000E+01  1.00800000E+00  1.00800000E+00  1.20100000E+01
  1.00800000E+00  1.00800000E+00  1.00800000E+00  1.20100000E+01  1.00800000E+00
  1.00800000E+00  1.20100000E+01  1.00800000E+00  1.00800000E+00  1.20100000E+01
  1.00800000E+00  1.00800000E+00  1.20100000E+01  1.00800000E+00  1.00800000E+00
  1.00800000E+00  1.00800000E+00  1.20100000E+01  1.20100000E+01  1.00800000E+00
  1.00800000E+00  1.00800000E+00  1.20100000E+01  1.00800000E+00  1.00800000E+00
  1.00800000E+00  1.00800000E+00  3.20600000E+01  1.20100000E+01  1.20100000E+01
  1.20100000E+01  1.20100000E+01  1.20100000E+01  1.20100000E+01  1.20100000E+01
  1.20100000E+01  3.20600000E+01  1.20100000E+01  1.00800000E+00  1.20100000E+01
  1.20100000E+01  1.00800000E+00  1.20100000E+01  1.20100000E+01  1.20100000E+01
  1.00800000E+00  1.20100000E+01  1.00800000E+00  1.00800000E+00  1.00800000E+00
  1.20100000E+01  1.20100000E+01  1.20100000E+01  1.20100000E+01  1.00800000E+00
  1.20100000E+01  1.00800000E+00  1.20100000E+01  1.00800000E+00  1.00800000E+00
  1.20100000E+01  1.00800000E+00  1.00800000E+00  1.20100000E+01  1.00800000E+00
  1.00800000E+00  1.00800000E+00  1.20100000E+01  1.00800000E+00  1.00800000E+00
  1.20100000E+01  1.00800000E+00  1.00800000E+00  1.20100000E+01  1.00800000E+00
  1.00800000E+00  1.20100000E+01  1.00800000E+00  1.00800000E+00  1.00800000E+00
  1.00800000E+00  1.20100000E+01  1.20100000E+01  1.00800000E+00  1.00800000E+00
  1.00800000E+00  1.20100000E+01  1.00800000E+00  1.00800000E+00  1.00800000E+00
  1.00800000E+00  3.20600000E+01  1.20100000E+01  1.20100000E+01  1.20100000E+01
  1.20100000E+01  1.20100000E+01  1.20100000E+01  1.20100000E+01  1.20100000E+01
  3.20600000E+01  1.20100000E+01  1.00800000E+00  1.20100000E+01  1.20100000E+01
  1.00800000E+00  1.20100000E+01  1.20100000E+01  1.20100000E+01  1.00800000E+00
  1.20100000E+01  1.00800000E+00  1.00800000E+00  1.00800000E+00  1.20100000E+01
  1.20100000E+01  1.20100000E+01  1.20100000E+01  1.00800000E+00  1.20100000E+01
  1.00800000E+00  1.20100000E+01  1.00800000E+00  1.00800000E+00  1.20100000E+01
  1.00800000E+00  1.00800000E+00  1.20100000E+01  1.00800000E+00  1.00800000E+00
  1.00800000E+00  1.20100000E+01  1.00800000E+00  1.00800000E+00  1.20100000E+01
  1.00800000E+00  1.00800000E+00  1.20100000E+01  1.00800000E+00  1.00800000E+00
  1.20100000E+01  1.00800000E+00  1.00800000E+00  1.00800000E+00  1.00800000E+00
  1.20100000E+01  1.20100000E+01  1.00800000E+00  1.00800000E+00  1.00800000E+00
  1.20100000E+01  1.00800000E+00  1.00800000E+00  1.00800000E+00  1.00800000E+00
  3.20600000E+01  1.20100000E+01  1.20100000E+01  1.20100000E+01  1.20100000E+01
  1.20100000E+01  1.20100000E+01  1.20100000E+01  1.20100000E+01  3.20600000E+01
  1.20100000E+01  1.00800000E+00  1.20100000E+01  1.20100000E+01  1.00800000E+00
  1.20100000E+01  1.20100000E+01  1.20100000E+01  1.00800000E+00  1.20100000E+01
  1.00800000E+00  1.00800000E+00  1.00800000E+00  1.20100000E+01  1.20100000E+01
  1.20100000E+01  1.20100000E+01  1.00800000E+00  1.20100000E+01  1.00800000E+00
  1.20100000E+01  1.00800000E+00  1.00800000E+00  1.20100000E+01  1.00800000E+00
  1.00800000E+00  1.20100000E+01  1.00800000E+00  1.00800000E+00  1.00800000E+00
  1.20100000E+01  1.00800000E+00  1.00800000E+00  1.20100000E+01  1.00800000E+00
  1.00800000E+00  1.20100000E+01  1.00800000E+00  1.00800000E+00  1.20100000E+01
  1.00800000E+00  1.00800000E+00  1.00800000E+00  1.00800000E+00  1.20100000E+01
  1.20100000E+01  1.00800000E+00  1.00800000E+00  1.00800000E+00  1.20100000E+01
  1.00800000E+00  1.00800000E+00  1.00800000E+00  1.00800000E+00  3.20600000E+01
  1.20100000E+01  1.20100000E+01  1.20100000E+01  1.20100000E+01  1.20100000E+01
  1.20100000E+01  1.20100000E+01  1.20100000E+01  3.20600000E+01  1.20100000E+01
  1.00800000E+00  1.20100000E+01  1.20100000E+01  1.00800000E+00  1.20100000E+01
  1.20100000E+01  1.20100000E+01  1.00800000E+00  1.20100000E+01  1.00800000E+00
  1.00800000E+00  1.00800000E+00  1.20100000E+01  1.20100000E+01  1.20100000E+01
  1.20100000E+01  1.00800000E+00  1.20100000E+01  1.00800000E+00  1.20100000E+01
  1.00800000E+00  1.00800000E+00  1.20100000E+01  1.00800000E+00  1.00800000E+00
  1.20100000E+01  1.00800000E+00  1.00800000E+00  1.00800000E+00  1.20100000E+01
  1.00800000E+00  1.00800000E+00  1.20100000E+01  1.00800000E+00  1.00800000E+00
  1.20100000E+01  1.00800000E+00  1.00800000E+00  1.20100000E+01  1.00800000E+00
  1.00800000E+00  1.00800000E+00  1.00800000E+00  1.20100000E+01  1.20100000E+01
  1.00800000E+00  1.00800000E+00  1.00800000E+00  1.20100000E+01  1.00800000E+00
  1.00800000E+00  1.00800000E+00  1.00800000E+00  3.20600000E+01  1.20100000E+01
  1.20100000E+01  1.20100000E+01  1.20100000E+01  1.20100000E+01  1.20100000E+01
  1.20100000E+01  1.20100000E+01  3.20600000E+01  1.20100000E+01  1.00800000E+00
  1.20100000E+01  1.20100000E+01  1.00800000E+00  1.20100000E+01  1.20100000E+01
  1.20100000E+01  1.00800000E+00  1.20100000E+01  1.00800000E+00  1.00800000E+00
  1.00800000E+00  1.20100000E+01  1.20100000E+01  1.20100000E+01  1.20100000E+01
  1.00800000E+00  1.20100000E+01  1.00800000E+00  1.20100000E+01  1.00800000E+00
  1.00800000E+00  1.20100000E+01  1.00800000E+00  1.00800000E+00  1.20100000E+01
  1.00800000E+00  1.00800000E+00  1.00800000E+00  1.20100000E+01  1.00800000E+00
  1.00800000E+00  1.20100000E+01  1.00800000E+00  1.00800000E+00  1.20100000E+01
  1.00800000E+00  1.00800000E+00  1.20100000E+01  1.00800000E+00  1.00800000E+00
  1.00800000E+00  1.00800000E+00  1.20100000E+01  1.20100000E+01  1.00800000E+00
  1.00800000E+00  1.00800000E+00  1.20100000E+01  1.00800000E+00  1.00800000E+00
  1.00800000E+00  1.00800000E+00  3.20600000E+01  1.20100000E+01  1.20100000E+01
  1.20100000E+01  1.20100000E+01  1.20100000E+01  1.20100000E+01  1.20100000E+01
  1.20100000E+01  3.20600000E+01  1.20100000E+01  1.00800000E+00  1.20100000E+01
  1.20100000E+01  1.00800000E+00  1.20100000E+01  1.20100000E+01  1.20100000E+01
  1.00800000E+00  1.20100000E+01  1.00800000E+00  1.00800000E+00  1.00800000E+00
  1.20100000E+01  1.20100000E+01  1.20100000E+01  1.20100000E+01  1.00800000E+00
  1.20100000E+01  1.00800000E+00  1.20100000E+01  1.00800000E+00  1.00800000E+00
  1.20100000E+01  1.00800000E+00  1.00800000E+00  1.20100000E+01  1.00800000E+00
  1.00800000E+00  1.00800000E+00  1.20100000E+01  1.00800000E+00  1.00800000E+00
  1.20100000E+01  1.00800000E+00  1.00800000E+00  1.20100000E+01  1.00800000E+00
  1.00800000E+00  1.20100000E+01  1.00800000E+00  1.00800000E+00  1.00800000E+00
  1.00800000E+00  1.20100000E+01  1.20100000E+01  1.00800000E+00  1.00800000E+00
  1.00800000E+00  1.20100000E+01  1.00800000E+00  1.00800000E+00  1.00800000E+00
  1.00800000E+00  3.20600000E+01  1.20100000E+01  1.20100000E+01  1.20100000E+01
  1.20100000E+01  1.20100000E+01  1.20100000E+01  1.20100000E+01  1.20100000E+01
  3.20600000E+01  1.20100000E+01  1.00800000E+00  1.20100000E+01  1.20100000E+01
  1.00800000E+00  1.20100000E+01  1.20100000E+01  1.20100000E+01  1.00800000E+00
  1.20100000E+01  1.00800000E+00  1.00800000E+00  1.00800000E+00  1.20100000E+01
  1.20100000E+01  1.20100000E+01  1.20100000E+01  1.00800000E+00  1.20100000E+01
  1.00800000E+00  1.20100000E+01  1.00800000E+00  1.00800000E+00  1.20100000E+01
  1.00800000E+00  1.00800000E+00  1.20100000E+01  1.00800000E+00  1.00800000E+00
  1.00800000E+00  1.20100000E+01  1.00800000E+00  1.00800000E+00  1.20100000E+01
  1.00800000E+00  1.00800000E+00  1.20100000E+01  1.00800000E+00  1.00800000E+00
  1.20100000E+01  1.00800000E+00  1.00800000E+00  1.00800000E+00  1.00800000E+00
  1.20100000E+01  1.20100000E+01  1.00800000E+00  1.00800000E+00  1.00800000E+00
  1.20100000E+01  1.00800000E+00  1.00800000E+00  1.00800000E+00  1.00800000E+00
  3.20600000E+01  1.20100000E+01  1.20100000E+01  1.20100000E+01  1.20100000E+01
  1.20100000E+01  1.20100000E+01  1.20100000E+01  1.20100000E+01  3.20600000E+01
  1.20100000E+01  1.00800000E+00  1.20100000E+01  1.20100000E+01  1.00800000E+00
  1.20100000E+01  1.20100000E+01  1.20100000E+01  1.00800000E+00  1.20100000E+01
  1.00800000E+00  1.00800000E+00  1.00800000E+00  1.20100000E+01  1.20100000E+01
  1.20100000E+01  1.20100000E+01  1.00800000E+00  1.20100000E+01  1.00800000E+00
  1.20100000E+01  1.00800000E+00  1.00800000E+00  1.20100000E+01  1.00800000E+00
  1.00800000E+00  1.20100000E+01  1.00800000E+00  1.00800000E+00  1.00800000E+00
  1.20100000E+01  1.00800000E+00  1.00800000E+00  1.20100000E+01  1.00800000E+00
  1.00800000E+00  1.20100000E+01  1.00800000E+00  1.00800000E+00  1.20100000E+01
  1.00800000E+00  1.00800000E+00  1.00800000E+00  1.00800000E+00  1.20100000E+01
  1.20100000E+01  1.00800000E+00  1.00800000E+00  1.00800000E+00  1.20100000E+01
  1.00800000E+00  1.00800000E+00  1.00800000E+00  1.00800000E+00  3.20600000E+01
  1.20100000E+01  1.20100000E+01  1.20100000E+01  1.20100000E+01  1.20100000E+01
  1.20100000E+01  1.20100000E+01  1.20100000E+01  3.20600000E+01  1.20100000E+01
  1.00800000E+00  1.20100000E+01  1.20100000E+01  1.00800000E+00  1.20100000E+01
  1.20100000E+01  1.20100000E+01  1.00800000E+00  1.20100000E+01  1.00800000E+00
  1.00800000E+00  1.00800000E+00  1.20100000E+01  1.20100000E+01  1.20100000E+01
  1.20100000E+01  1.00800000E+00  1.20100000E+01  1.00800000E+00  1.20100000E+01
  1.00800000E+00  1.00800000E+00  1.20100000E+01  1.00800000E+00  1.00800000E+00
  1.20100000E+01  1.00800000E+00  1.00800000E+00  1.00800000E+00  1.20100000E+01
  1.00800000E+00  1.00800000E+00  1.20100000E+01  1.00800000E+00  1.00800000E+00
  1.20100000E+01  1.00800000E+00  1.00800000E+00  1.20100000E+01  1.00800000E+00
  1.00800000E+00  1.00800000E+00  1.00800000E+00  1.20100000E+01  1.20100000E+01
  1.00800000E+00  1.00800000E+00  1.00800000E+00  1.20100000E+01  1.00800000E+00
  1.00800000E+00  1.00800000E+00  1.00800000E+00  3.20600000E+01  1.20100000E+01
  1.20100000E+01  1.20100000E+01  1.20100000E+01  1.20100000E+01  1.20100000E+01
  1.20100000E+01  1.20100000E+01  3.20600000E+01  1.20100000E+01  1.00800000E+00
  1.20100000E+01  1.20100000E+01  1.00800000E+00  1.20100000E+01  1.20100000E+01
  1.20100000E+01  1.00800000E+00  1.20100000E+01  1.00800000E+00  1.00800000E+00
  1.00800000E+00  1.20100000E+01  1.20100000E+01  1.20100000E+01  1.20100000E+01
  1.00800000E+00  1.20100000E+01  1.00800000E+00  1.20100000E+01  1.00800000E+00
  1.00800000E+00  1.20100000E+01  1.00800000E+00  1.00800000E+00  1.20100000E+01
  1.00800000E+00  1.00800000E+00  1.00800000E+00  1.20100000E+01  1.00800000E+00
  1.00800000E+00  1.20100000E+01  1.00800000E+00  1.00800000E+00  1.20100000E+01
  1.00800000E+00  1.00800000E+00  1.20100000E+01  1.00800000E+00  1.00800000E+00
  1.00800000E+00  1.00800000E+00  1.20100000E+01  1.20100000E+01  1.00800000E+00
  1.00800000E+00  1.00800000E+00  1.20100000E+01  1.00800000E+00  1.00800000E+00
  1.00800000E+00  1.00800000E+00  3.20600000E+01  1.20100000E+01  1.20100000E+01
  1.20100000E+01  1.20100000E+01  1.20100000E+01  1.20100000E+01  1.20100000E+01
  1.20100000E+01  3.20600000E+01  1.20100000E+01  1.00800000E+00  1.20100000E+01
  1.20100000E+01  1.00800000E+00  1.20100000E+01  1.20100000E+01  1.20100000E+01
  1.00800000E+00  1.20100000E+01  1.00800000E+00  1.00800000E+00  1.00800000E+00
  1.20100000E+01  1.20100000E+01  1.20100000E+01  1.20100000E+01  1.00800000E+00
  1.20100000E+01  1.00800000E+00  1.20100000E+01  1.00800000E+00  1.00800000E+00
  1.20100000E+01  1.00800000E+00  1.00800000E+00  1.20100000E+01  1.00800000E+00
  1.00800000E+00  1.00800000E+00  1.20100000E+01  1.00800000E+00  1.00800000E+00
  1.20100000E+01  1.00800000E+00  1.00800000E+00  1.20100000E+01  1.00800000E+00
  1.00800000E+00  1.20100000E+01  1.00800000E+00  1.00800000E+00  1.00800000E+00
  1.00800000E+00  1.20100000E+01  1.20100000E+01  1.00800000E+00  1.00800000E+00
  1.00800000E+00  1.20100000E+01  1.00800000E+00  1.00800000E+00  1.00800000E+00
  1.00800000E+00  3.20600000E+01  1.20100000E+01  1.20100000E+01  1.20100000E+01
  1.20100000E+01  1.20100000E+01  1.20100000E+01  1.20100000E+01  1.20100000E+01
  3.20600000E+01  1.20100000E+01  1.00800000E+00  1.20100000E+01  1.20100000E+01
  1.00800000E+00  1.20100000E+01  1.20100000E+01  1.20100000E+01  1.00800000E+00
  1.20100000E+01  1.00800000E+00  1.00800000E+00  1.00800000E+00  1.20100000E+01
  1.20100000E+01  1.20100000E+01  1.20100000E+01  1.00800000E+00  1.20100000E+01
  1.00800000E+00  1.20100000E+01  1.00800000E+00  1.00800000E+00  1.20100000E+01
  1.00800000E+00  1.00800000E+00  1.20100000E+01  1.00800000E+00  1.00800000E+00
  1.00800000E+00  1.20100000E+01  1.00800000E+00  1.00800000E+00  1.20100000E+01
  1.00800000E+00  1.00800000E+00  1.20100000E+01  1.00800000E+00  1.00800000E+00
  1.20100000E+01  1.00800000E+00  1.00800000E+00  1.00800000E+00  1.00800000E+00
  1.20100000E+01  1.20100000E+01  1.00800000E+00  1.00800000E+00  1.00800000E+00
  1.20100000E+01  1.00800000E+00  1.00800000E+00  1.00800000E+00  1.00800000E+00
  3.20600000E+01  1.20100000E+01  1.20100000E+01  1.20100000E+01  1.20100000E+01
  1.20100000E+01  1.20100000E+01  1.20100000E+01  1.20100000E+01  3.20600000E+01
  1.20100000E+01  1.00800000E+00  1.20100000E+01  1.20100000E+01  1.00800000E+00
  1.20100000E+01  1.20100000E+01  1.20100000E+01  1.00800000E+00  1.20100000E+01
  1.00800000E+00  1.00800000E+00  1.00800000E+00  1.20100000E+01  1.20100000E+01
  1.20100000E+01  1.20100000E+01  1.00800000E+00  1.20100000E+01  1.00800000E+00
  1.20100000E+01  1.00800000E+00  1.00800000E+00  1.20100000E+01  1.00800000E+00
  1.00800000E+00  1.20100000E+01  1.00800000E+00  1.00800000E+00  1.00800000E+00
  1.20100000E+01  1.00800000E+00  1.00800000E+00  1.20100000E+01  1.00800000E+00
  1.00800000E+00  1.20100000E+01  1.00800000E+00  1.00800000E+00  1.20100000E+01
  1.00800000E+00  1.00800000E+00  1.00800000E+00  1.00800000E+00  1.20100000E+01
  1.20100000E+01  1.00800000E+00  1.00800000E+00  1.00800000E+00  1.20100000E+01
  1.00800000E+00  1.00800000E+00  1.00800000E+00  1.00800000E+00  3.20600000E+01
  1.20100000E+01  1.20100000E+01  1.20100000E+01  1.20100000E+01  1.20100000E+01
  1.20100000E+01  1.20100000E+01  1.20100000E+01  3.20600000E+01  1.20100000E+01
  1.00800000E+00  1.20100000E+01  1.20100000E+01  1.00800000E+00  1.20100000E+01
  1.20100000E+01  1.20100000E+01  1.00800000E+00  1.20100000E+01  1.00800000E+00
  1.00800000E+00  1.00800000E+00  1.20100000E+01  1.20100000E+01  1.20100000E+01
  1.20100000E+01  1.00800000E+00  1.20100000E+01  1.00800000E+00  1.20100000E+01
  1.00800000E+00  1.00800000E+00  1.20100000E+01  1.00800000E+00  1.00800000E+00
  1.20100000E+01  1.00800000E+00  1.00800000E+00  1.00800000E+00  1.20100000E+01
  1.00800000E+00  1.00800000E+00  1.20100000E+01  1.00800000E+00  1.00800000E+00
  1.20100000E+01  1.00800000E+00  1.00800000E+00  1.20100000E+01  1.00800000E+00
  1.00800000E+00  1.00800000E+00  1.00800000E+00  1.20100000E+01  1.20100000E+01
  1.00800000E+00  1.00800000E+00  1.00800000E+00  1.20100000E+01  1.00800000E+00
  1.00800000E+00  1.00800000E+00  1.00800000E+00  3.20600000E+01  1.20100000E+01
  1.20100000E+01  1.20100000E+01  1.20100000E+01  1.20100000E+01  1.20100000E+01
  1.20100000E+01  1.20100000E+01  3.20600000E+01  1.20100000E+01  1.00800000E+00
  1.20100000E+01  1.20100000E+01  1.00800000E+00  1.20100000E+01  1.20100000E+01
  1.20100000E+01  1.00800000E+00  1.20100000E+01  1.00800000E+00  1.00800000E+00
  1.00800000E+00  1.20100000E+01  1.20100000E+01  1.20100000E+01  1.20100000E+01
  1.00800000E+00  1.20100000E+01  1.00800000E+00  1.20100000E+01  1.00800000E+00
  1.00800000E+00  1.20100000E+01  1.00800000E+00  1.00800000E+00  1.20100000E+01
  1.00800000E+00  1.00800000E+00  1.00800000E+00  1.20100000E+01  1.00800000E+00
  1.00800000E+00  1.20100000E+01  1.00800000E+00  1.00800000E+00  1.20100000E+01
  1.00800000E+00  1.00800000E+00  1.20100000E+01  1.00800000E+00  1.00800000E+00
  1.00800000E+00  1.00800000E+00  1.20100000E+01  1.20100000E+01  1.00800000E+00
  1.00800000E+00  1.00800000E+00  1.20100000E+01  1.00800000E+00  1.00800000E+00
  1.00800000E+00  1.00800000E+00  3.20600000E+01  1.20100000E+01  1.20100000E+01
  1.20100000E+01  1.20100000E+01  1.20100000E+01  1.20100000E+01  1.20100000E+01
  1.20100000E+01  3.20600000E+01  1.20100000E+01  1.00800000E+00  1.20100000E+01
  1.20100000E+01  1.00800000E+00  1.20100000E+01  1.20100000E+01  1.20100000E+01
  1.00800000E+00  1.20100000E+01  1.00800000E+00  1.00800000E+00  1.00800000E+00
  1.20100000E+01  1.20100000E+01  1.20100000E+01  1.20100000E+01  1.00800000E+00
  1.20100000E+01  1.00800000E+00  1.20100000E+01  1.00800000E+00  1.00800000E+00
  1.20100000E+01  1.00800000E+00  1.00800000E+00  1.20100000E+01  1.00800000E+00
  1.00800000E+00  1.00800000E+00  1.20100000E+01  1.00800000E+00  1.00800000E+00
  1.20100000E+01  1.00800000E+00  1.00800000E+00  1.20100000E+01  1.00800000E+00
  1.00800000E+00  1.20100000E+01  1.00800000E+00  1.00800000E+00  1.00800000E+00
  1.00800000E+00  1.20100000E+01  1.20100000E+01  1.00800000E+00  1.00800000E+00
  1.00800000E+00  1.20100000E+01  1.00800000E+00  1.00800000E+00  1.00800000E+00
  1.00800000E+00  3.20600000E+01  1.20100000E+01  1.20100000E+01  1.20100000E+01
  1.20100000E+01  1.20100000E+01  1.20100000E+01  1.20100000E+01  1.20100000E+01
  3.20600000E+01  1.20100000E+01  1.00800000E+00  1.20100000E+01  1.20100000E+01
  1.00800000E+00  1.20100000E+01  1.20100000E+01  1.20100000E+01  1.00800000E+00
  1.20100000E+01  1.00800000E+00  1.00800000E+00  1.00800000E+00  1.20100000E+01
  1.20100000E+01  1.20100000E+01  1.20100000E+01  1.00800000E+00  1.20100000E+01
  1.00800000E+00  1.20100000E+01  1.00800000E+00  1.00800000E+00  1.20100000E+01
  1.00800000E+00  1.00800000E+00  1.20100000E+01  1.00800000E+00  1.00800000E+00
  1.00800000E+00  1.20100000E+01  1.00800000E+00  1.00800000E+00  1.20100000E+01
  1.00800000E+00  1.00800000E+00  1.20100000E+01  1.00800000E+00  1.00800000E+00
  1.20100000E+01  1.00800000E+00  1.00800000E+00  1.00800000E+00  1.00800000E+00
  1.20100000E+01  1.20100000E+01  1.00800000E+00  1.00800000E+00  1.00800000E+00
  1.20100000E+01  1.00800000E+00  1.00800000E+00  1.00800000E+00  1.00800000E+00
  3.20600000E+01  1.20100000E+01  1.20100000E+01  1.20100000E+01  1.20100000E+01
  1.20100000E+01  1.20100000E+01  1.20100000E+01  1.20100000E+01  3.20600000E+01
  1.20100000E+01  1.00800000E+00  1.20100000E+01  1.20100000E+01  1.00800000E+00
  1.20100000E+01  1.20100000E+01  1.20100000E+01  1.00800000E+00  1.20100000E+01
  1.00800000E+00  1.00800000E+00  1.00800000E+00  1.20100000E+01  1.20100000E+01
  1.20100000E+01  1.20100000E+01  1.00800000E+00  1.20100000E+01  1.00800000E+00
  1.20100000E+01  1.00800000E+00  1.00800000E+00  1.20100000E+01  1.00800000E+00
  1.00800000E+00  1.20100000E+01  1.00800000E+00  1.00800000E+00  1.00800000E+00
  1.20100000E+01  1.00800000E+00  1.00800000E+00  1.20100000E+01  1.00800000E+00
  1.00800000E+00  1.20100000E+01  1.00800000E+00  1.00800000E+00  1.20100000E+01
  1.00800000E+00  1.00800000E+00  1.00800000E+00  1.00800000E+00  1.20100000E+01
  1.20100000E+01  1.00800000E+00  1.00800000E+00  1.00800000E+00  1.20100000E+01
  1.00800000E+00  1.00800000E+00  1.00800000E+00  1.00800000E+00  3.20600000E+01
  1.20100000E+01  1.20100000E+01  1.20100000E+01  1.20100000E+01  1.20100000E+01
  1.20100000E+01  1.20100000E+01  1.20100000E+01  3.20600000E+01  1.20100000E+01
  1.00800000E+00  1.20100000E+01  1.20100000E+01  1.00800000E+00  1.20100000E+01
  1.20100000E+01  1.20100000E+01  1.00800000E+00  1.20100000E+01  1.00800000E+00
  1.00800000E+00  1.00800000E+00  1.20100000E+01  1.20100000E+01  1.20100000E+01
  1.20100000E+01  1.00800000E+00  1.20100000E+01  1.00800000E+00  1.20100000E+01
  1.00800000E+00  1.00800000E+00  1.20100000E+01  1.00800000E+00  1.00800000E+00
  1.20100000E+01  1.00800000E+00  1.00800000E+00  1.00800000E+00  1.20100000E+01
  1.00800000E+00  1.00800000E+00  1.20100000E+01  1.00800000E+00  1.00800000E+00
  1.20100000E+01  1.00800000E+00  1.00800000E+00  1.20100000E+01  1.00800000E+00
  1.00800000E+00  1.00800000E+00  1.00800000E+00  1.20100000E+01  1.20100000E+01
  1.00800000E+00  1.00800000E+00  1.00800000E+00  1.20100000E+01  1.00800000E+00
  1.00800000E+00  1.00800000E+00  1.00800000E+00  3.20600000E+01  1.20100000E+01
  1.20100000E+01  1.20100000E+01  1.20100000E+01  1.20100000E+01  1.20100000E+01
  1.20100000E+01  1.20100000E+01  3.20600000E+01  1.20100000E+01  1.00800000E+00
  1.20100000E+01  1.20100000E+01  1.00800000E+00  1.20100000E+01  1.20100000E+01
  1.20100000E+01  1.00800000E+00  1.20100000E+01  1.00800000E+00  1.00800000E+00
  1.00800000E+00  1.20100000E+01  1.20100000E+01  1.20100000E+01  1.20100000E+01
  1.00800000E+00  1.20100000E+01  1.00800000E+00  1.20100000E+01  1.00800000E+00
  1.00800000E+00  1.20100000E+01  1.00800000E+00  1.00800000E+00  1.20100000E+01
  1.00800000E+00  1.00800000E+00  1.00800000E+00  1.20100000E+01  1.00800000E+00
  1.00800000E+00  1.20100000E+01  1.00800000E+00  1.00800000E+00  1.20100000E+01
  1.00800000E+00  1.00800000E+00  1.20100000E+01  1.00800000E+00  1.00800000E+00
  1.00800000E+00  1.00800000E+00  1.20100000E+01  1.20100000E+01  1.00800000E+00
  1.00800000E+00  1.00800000E+00  1.20100000E+01  1.00800000E+00  1.00800000E+00
  1.00800000E+00  1.00800000E+00  3.20600000E+01  1.20100000E+01  1.20100000E+01
  1.20100000E+01  1.20100000E+01  1.20100000E+01  1.20100000E+01  1.20100000E+01
  1.20100000E+01  3.20600000E+01  1.20100000E+01  1.00800000E+00  1.20100000E+01
  1.20100000E+01  1.00800000E+00  1.20100000E+01  1.20100000E+01  1.20100000E+01
  1.00800000E+00  1.20100000E+01  1.00800000E+00  1.00800000E+00  1.00800000E+00
  1.20100000E+01  1.20100000E+01  1.20100000E+01  1.20100000E+01  1.00800000E+00
  1.20100000E+01  1.00800000E+00  1.20100000E+01  1.00800000E+00  1.00800000E+00
  1.20100000E+01  1.00800000E+00  1.00800000E+00  1.20100000E+01  1.00800000E+00
  1.00800000E+00  1.00800000E+00  1.20100000E+01  1.00800000E+00  1.00800000E+00
  1.20100000E+01  1.00800000E+00  1.00800000E+00  1.20100000E+01  1.00800000E+00
  1.00800000E+00  1.20100000E+01  1.00800000E+00  1.00800000E+00  1.00800000E+00
  1.00800000E+00  1.20100000E+01  1.20100000E+01  1.00800000E+00  1.00800000E+00
  1.00800000E+00  1.20100000E+01  1.00800000E+00  1.00800000E+00  1.00800000E+00
  1.00800000E+00  3.20600000E+01  1.20100000E+01  1.20100000E+01  1.20100000E+01
  1.20100000E+01  1.20100000E+01  1.20100000E+01  1.20100000E+01  1.20100000E+01
  3.20600000E+01  1.20100000E+01  1.00800000E+00  1.20100000E+01  1.20100000E+01
  1.00800000E+00  1.20100000E+01  1.20100000E+01  1.20100000E+01  1.00800000E+00
  1.20100000E+01  1.00800000E+00  1.00800000E+00  1.00800000E+00  1.20100000E+01
  1.20100000E+01  1.20100000E+01  1.20100000E+01  1.00800000E+00  1.20100000E+01
  1.00800000E+00  1.20100000E+01  1.00800000E+00  1.00800000E+00  1.20100000E+01
  1.00800000E+00  1.00800000E+00  1.20100000E+01  1.00800000E+00  1.00800000E+00
  1.00800000E+00  1.20100000E+01  1.00800000E+00  1.00800000E+00  1.20100000E+01
  1.00800000E+00  1.00800000E+00  1.20100000E+01  1.00800000E+00  1.00800000E+00
  1.20100000E+01  1.00800000E+00  1.00800000E+00  1.00800000E+00  1.00800000E+00
  1.20100000E+01  1.20100000E+01  1.00800000E+00  1.00800000E+00  1.00800000E+00
  1.20100000E+01  1.00800000E+00  1.00800000E+00  1.00800000E+00  1.00800000E+00
  3.20600000E+01  1.20100000E+01  1.20100000E+01  1.20100000E+01  1.20100000E+01
  1.20100000E+01  1.20100000E+01  1.20100000E+01  1.20100000E+01  3.20600000E+01
  1.20100000E+01  1.00800000E+00  1.20100000E+01  1.20100000E+01  1.00800000E+00
  1.20100000E+01  1.20100000E+01  1.20100000E+01  1.00800000E+00  1.20100000E+01
  1.00800000E+00  1.00800000E+00  1.00800000E+00  1.20100000E+01  1.20100000E+01
  1.20100000E+01  1.20100000E+01  1.00800000E+00  1.20100000E+01  1.00800000E+00
  1.20100000E+01  1.00800000E+00  1.00800000E+00  1.20100000E+01  1.00800000E+00
  1.00800000E+00  1.20100000E+01  1.00800000E+00  1.00800000E+00  1.00800000E+00
  1.20100000E+01  1.00800000E+00  1.00800000E+00  1.20100000E+01  1.00800000E+00
  1.00800000E+00  1.20100000E+01  1.00800000E+00  1.00800000E+00  1.20100000E+01
  1.00800000E+00  1.00800000E+00  1.00800000E+00  1.00800000E+00  1.20100000E+01
  1.20100000E+01  1.00800000E+00  1.00800000E+00  1.00800000E+00  1.20100000E+01
  1.00800000E+00  1.00800000E+00  1.00800000E+00  1.00800000E+00  3.20600000E+01
  1.20100000E+01  1.20100000E+01  1.20100000E+01  1.20100000E+01  1.20100000E+01
  1.20100000E+01  1.20100000E+01  1.20100000E+01  3.20600000E+01  1.20100000E+01
  1.00800000E+00  1.20100000E+01  1.20100000E+01  1.00800000E+00  1.20100000E+01
  1.20100000E+01  1.20100000E+01  1.00800000E+00  1.20100000E+01  1.00800000E+00
  1.00800000E+00  1.00800000E+00  1.20100000E+01  1.20100000E+01  1.20100000E+01
  1.20100000E+01  1.00800000E+00  1.20100000E+01  1.00800000E+00  1.20100000E+01
  1.00800000E+00  1.00800000E+00  1.20100000E+01  1.00800000E+00  1.00800000E+00
  1.20100000E+01  1.00800000E+00  1.00800000E+00  1.00800000E+00  1.20100000E+01
  1.00800000E+00  1.00800000E+00  1.20100000E+01  1.00800000E+00  1.00800000E+00
  1.20100000E+01  1.00800000E+00  1.00800000E+00  1.20100000E+01  1.00800000E+00
  1.00800000E+00  1.00800000E+00  1.00800000E+00  1.20100000E+01  1.20100000E+01
  1.00800000E+00  1.00800000E+00  1.00800000E+00  1.20100000E+01  1.00800000E+00
  1.00800000E+00  1.00800000E+00  1.00800000E+00  3.20600000E+01  1.20100000E+01
  1.20100000E+01  1.20100000E+01  1.20100000E+01  1.20100000E+01  1.20100000E+01
  1.20100000E+01  1.20100000E+01  3.20600000E+01  1.20100000E+01  1.00800000E+00
  1.20100000E+01  1.20100000E+01  1.00800000E+00  1.20100000E+01  1.20100000E+01
  1.20100000E+01  1.00800000E+00  1.20100000E+01  1.00800000E+00  1.00800000E+00
  1.00800000E+00  1.20100000E+01  1.20100000E+01  1.20100000E+01  1.20100000E+01
  1.00800000E+00  1.20100000E+01  1.00800000E+00  1.20100000E+01  1.00800000E+00
  1.00800000E+00  1.20100000E+01  1.00800000E+00  1.00800000E+00  1.20100000E+01
  1.00800000E+00  1.00800000E+00  1.00800000E+00  1.20100000E+01  1.00800000E+00
  1.00800000E+00  1.20100000E+01  1.00800000E+00  1.00800000E+00  1.20100000E+01
  1.00800000E+00  1.00800000E+00  1.20100000E+01  1.00800000E+00  1.00800000E+00
  1.00800000E+00  1.00800000E+00  1.20100000E+01  1.20100000E+01  1.00800000E+00
  1.00800000E+00  1.00800000E+00  1.20100000E+01  1.00800000E+00  1.00800000E+00
  1.00800000E+00  1.00800000E+00  3.20600000E+01  1.20100000E+01  1.20100000E+01
  1.20100000E+01  1.20100000E+01  1.20100000E+01  1.20100000E+01  1.20100000E+01
  1.20100000E+01  3.20600000E+01  1.20100000E+01  1.00800000E+00  1.20100000E+01
  1.20100000E+01  1.00800000E+00  1.20100000E+01  1.20100000E+01  1.20100000E+01
  1.00800000E+00  1.20100000E+01  1.00800000E+00  1.00800000E+00  1.00800000E+00
  1.20100000E+01  1.20100000E+01  1.20100000E+01  1.20100000E+01  1.00800000E+00
  1.20100000E+01  1.00800000E+00  1.20100000E+01  1.00800000E+00  1.00800000E+00
  1.20100000E+01  1.00800000E+00  1.00800000E+00  1.20100000E+01  1.00800000E+00
  1.00800000E+00  1.00800000E+00  1.20100000E+01  1.00800000E+00  1.00800000E+00
  1.20100000E+01  1.00800000E+00  1.00800000E+00  1.20100000E+01  1.00800000E+00
  1.00800000E+00  1.20100000E+01  1.00800000E+00  1.00800000E+00  1.00800000E+00
  1.00800000E+00  1.20100000E+01  1.20100000E+01  1.00800000E+00  1.00800000E+00
  1.00800000E+00  1.20100000E+01  1.00800000E+00  1.00800000E+00  1.00800000E+00
  1.00800000E+00  3.20600000E+01  1.20100000E+01  1.20100000E+01  1.20100000E+01
  1.20100000E+01  1.20100000E+01  1.20100000E+01  1.20100000E+01  1.20100000E+01
  3.20600000E+01  1.20100000E+01  1.00800000E+00  1.20100000E+01  1.20100000E+01
  1.00800000E+00  1.20100000E+01  1.20100000E+01  1.20100000E+01  1.00800000E+00
  1.20100000E+01  1.00800000E+00  1.00800000E+00  1.00800000E+00  1.20100000E+01
  1.20100000E+01  1.20100000E+01  1.20100000E+01  1.00800000E+00  1.20100000E+01
  1.00800000E+00  1.20100000E+01  1.00800000E+00  1.00800000E+00  1.20100000E+01
  1.00800000E+00  1.00800000E+00  1.20100000E+01  1.00800000E+00  1.00800000E+00
  1.00800000E+00  1.20100000E+01  1.00800000E+00  1.00800000E+00  1.20100000E+01
  1.00800000E+00  1.00800000E+00  1.20100000E+01  1.00800000E+00  1.00800000E+00
  1.20100000E+01  1.00800000E+00  1.00800000E+00  1.00800000E+00  1.00800000E+00
  1.20100000E+01  1.20100000E+01  1.00800000E+00  1.00800000E+00  1.00800000E+00
  1.20100000E+01  1.00800000E+00  1.00800000E+00  1.00800000E+00  1.00800000E+00
  3.20600000E+01  1.20100000E+01  1.20100000E+01  1.20100000E+01  1.20100000E+01
  1.20100000E+01  1.20100000E+01  1.20100000E+01  1.20100000E+01  3.20600000E+01
  1.20100000E+01  1.00800000E+00  1.20100000E+01  1.20100000E+01  1.00800000E+00
  1.20100000E+01  1.20100000E+01  1.20100000E+01  1.00800000E+00  1.20100000E+01
  1.00800000E+00  1.00800000E+00  1.00800000E+00  1.20100000E+01  1.20100000E+01
  1.20100000E+01  1.20100000E+01  1.00800000E+00  1.20100000E+01  1.00800000E+00
  1.20100000E+01  1.00800000E+00  1.00800000E+00  1.20100000E+01  1.00800000E+00
  1.00800000E+00  1.20100000E+01  1.00800000E+00  1.00800000E+00  1.00800000E+00
  1.20100000E+01  1.00800000E+00  1.00800000E+00  1.20100000E+01  1.00800000E+00
  1.00800000E+00  1.20100000E+01  1.00800000E+00  1.00800000E+00  1.20100000E+01
  1.00800000E+00  1.00800000E+00  1.00800000E+00  1.00800000E+00  1.20100000E+01
  1.20100000E+01  1.00800000E+00  1.00800000E+00  1.00800000E+00  1.20100000E+01
  1.00800000E+00  1.00800000E+00  1.00800000E+00  1.00800000E+00  3.20600000E+01
  1.20100000E+01  1.20100000E+01  1.20100000E+01  1.20100000E+01  1.20100000E+01
  1.20100000E+01  1.20100000E+01  1.20100000E+01  3.20600000E+01  1.20100000E+01
  1.00800000E+00  1.20100000E+01  1.20100000E+01  1.00800000E+00  1.20100000E+01
  1.20100000E+01  1.20100000E+01  1.00800000E+00  1.20100000E+01  1.00800000E+00
  1.00800000E+00  1.00800000E+00  1.20100000E+01  1.20100000E+01  1.20100000E+01
  1.20100000E+01  1.00800000E+00  1.20100000E+01  1.00800000E+00  1.20100000E+01
  1.00800000E+00  1.00800000E+00  1.20100000E+01  1.00800000E+00  1.00800000E+00
  1.20100000E+01  1.00800000E+00  1.00800000E+00  1.00800000E+00  1.20100000E+01
  1.00800000E+00  1.00800000E+00  1.20100000E+01  1.00800000E+00  1.00800000E+00
  1.20100000E+01  1.00800000E+00  1.00800000E+00  1.20100000E+01  1.00800000E+00
  1.00800000E+00  1.00800000E+00  1.00800000E+00  1.20100000E+01  1.20100000E+01
  1.00800000E+00  1.00800000E+00  1.00800000E+00  1.20100000E+01  1.00800000E+00
  1.00800000E+00  1.00800000E+00  1.00800000E+00  3.20600000E+01  1.20100000E+01
  1.20100000E+01  1.20100000E+01  1.20100000E+01  1.20100000E+01  1.20100000E+01
  1.20100000E+01  1.20100000E+01  3.20600000E+01  1.20100000E+01  1.00800000E+00
  1.20100000E+01  1.20100000E+01  1.00800000E+00  1.20100000E+01  1.20100000E+01
  1.20100000E+01  1.00800000E+00  1.20100000E+01  1.00800000E+00  1.00800000E+00
  1.00800000E+00  1.20100000E+01  1.20100000E+01  1.20100000E+01  1.20100000E+01
  1.00800000E+00  1.20100000E+01  1.00800000E+00  1.20100000E+01  1.00800000E+00
  1.00800000E+00  1.20100000E+01  1.00800000E+00  1.00800000E+00  1.20100000E+01
  1.00800000E+00  1.00800000E+00  1.00800000E+00  1.20100000E+01  1.00800000E+00
  1.00800000E+00  1.20100000E+01  1.00800000E+00  1.00800000E+00  1.20100000E+01
  1.00800000E+00  1.00800000E+00  1.20100000E+01  1.00800000E+00  1.00800000E+00
  1.00800000E+00  1.00800000E+00  1.20100000E+01  1.20100000E+01  1.00800000E+00
  1.00800000E+00  1.00800000E+00  1.20100000E+01  1.00800000E+00  1.00800000E+00
  1.00800000E+00  1.00800000E+00  3.20600000E+01  1.20100000E+01  1.20100000E+01
  1.20100000E+01  1.20100000E+01  1.20100000E+01  1.20100000E+01  1.20100000E+01
  1.20100000E+01  3.20600000E+01  1.20100000E+01  1.00800000E+00  1.20100000E+01
  1.20100000E+01  1.00800000E+00  1.20100000E+01  1.20100000E+01  1.20100000E+01
  1.00800000E+00  1.20100000E+01  1.00800000E+00  1.00800000E+00  1.00800000E+00
  1.20100000E+01  1.20100000E+01  1.20100000E+01  1.20100000E+01  1.00800000E+00
  1.20100000E+01  1.00800000E+00  1.20100000E+01  1.00800000E+00  1.00800000E+00
  1.20100000E+01  1.00800000E+00  1.00800000E+00  1.20100000E+01  1.00800000E+00
  1.00800000E+00  1.00800000E+00  1.20100000E+01  1.00800000E+00  1.00800000E+00
  1.20100000E+01  1.00800000E+00  1.00800000E+00  1.20100000E+01  1.00800000E+00
  1.00800000E+00  1.20100000E+01  1.00800000E+00  1.00800000E+00  1.00800000E+00
  1.00800000E+00  1.20100000E+01  1.20100000E+01  1.00800000E+00  1.00800000E+00
  1.00800000E+00  1.20100000E+01  1.00800000E+00  1.00800000E+00  1.00800000E+00
  1.00800000E+00  3.20600000E+01  1.20100000E+01  1.20100000E+01  1.20100000E+01
  1.20100000E+01  1.20100000E+01  1.20100000E+01  1.20100000E+01  1.20100000E+01
  3.20600000E+01  1.20100000E+01  1.00800000E+00  1.20100000E+01  1.20100000E+01
  1.00800000E+00  1.20100000E+01  1.20100000E+01  1.20100000E+01  1.00800000E+00
  1.20100000E+01  1.00800000E+00  1.00800000E+00  1.00800000E+00  1.20100000E+01
  1.20100000E+01  1.20100000E+01  1.20100000E+01  1.00800000E+00  1.20100000E+01
  1.00800000E+00  1.20100000E+01  1.00800000E+00  1.00800000E+00  1.20100000E+01
  1.00800000E+00  1.00800000E+00  1.20100000E+01  1.00800000E+00  1.00800000E+00
  1.00800000E+00  1.20100000E+01  1.00800000E+00  1.00800000E+00  1.20100000E+01
  1.00800000E+00  1.00800000E+00  1.20100000E+01  1.00800000E+00  1.00800000E+00
  1.20100000E+01  1.00800000E+00  1.00800000E+00  1.00800000E+00  1.00800000E+00
  1.20100000E+01  1.20100000E+01  1.00800000E+00  1.00800000E+00  1.00800000E+00
  1.20100000E+01  1.00800000E+00  1.00800000E+00  1.00800000E+00  1.00800000E+00
  3.20600000E+01  1.20100000E+01  1.20100000E+01  1.20100000E+01  1.20100000E+01
  1.20100000E+01  1.20100000E+01  1.20100000E+01  1.20100000E+01  3.20600000E+01
  1.20100000E+01  1.00800000E+00  1.20100000E+01  1.20100000E+01  1.00800000E+00
  1.20100000E+01  1.20100000E+01  1.20100000E+01  1.00800000E+00  1.20100000E+01
  1.00800000E+00  1.00800000E+00  1.00800000E+00  1.20100000E+01  1.20100000E+01
  1.20100000E+01  1.20100000E+01  1.00800000E+00  1.20100000E+01  1.00800000E+00
  1.20100000E+01  1.00800000E+00  1.00800000E+00  1.20100000E+01  1.00800000E+00
  1.00800000E+00  1.20100000E+01  1.00800000E+00  1.00800000E+00  1.00800000E+00
  1.20100000E+01  1.00800000E+00  1.00800000E+00  1.20100000E+01  1.00800000E+00
  1.00800000E+00  1.20100000E+01  1.00800000E+00  1.00800000E+00  1.20100000E+01
  1.00800000E+00  1.00800000E+00  1.00800000E+00  1.00800000E+00  1.20100000E+01
  1.20100000E+01  1.00800000E+00  1.00800000E+00  1.00800000E+00  1.20100000E+01
  1.00800000E+00  1.00800000E+00  1.00800000E+00  1.00800000E+00  3.20600000E+01
  1.20100000E+01  1.20100000E+01  1.20100000E+01  1.20100000E+01  1.20100000E+01
  1.20100000E+01  1.20100000E+01  1.20100000E+01  3.20600000E+01  1.20100000E+01
  1.00800000E+00  1.20100000E+01  1.20100000E+01  1.00800000E+00  1.20100000E+01
  1.20100000E+01  1.20100000E+01  1.00800000E+00  1.20100000E+01  1.00800000E+00
  1.00800000E+00  1.00800000E+00  1.20100000E+01  1.20100000E+01  1.20100000E+01
  1.20100000E+01  1.00800000E+00  1.20100000E+01  1.00800000E+00  1.20100000E+01
  1.00800000E+00  1.00800000E+00  1.20100000E+01  1.00800000E+00  1.00800000E+00
  1.20100000E+01  1.00800000E+00  1.00800000E+00  1.00800000E+00  1.20100000E+01
  1.00800000E+00  1.00800000E+00  1.20100000E+01  1.00800000E+00  1.00800000E+00
  1.20100000E+01  1.00800000E+00  1.00800000E+00  1.20100000E+01  1.00800000E+00
  1.00800000E+00  1.00800000E+00  1.00800000E+00  1.20100000E+01  1.20100000E+01
  1.00800000E+00  1.00800000E+00  1.00800000E+00  1.20100000E+01  1.00800000E+00
  1.00800000E+00  1.00800000E+00  1.00800000E+00  3.20600000E+01  1.20100000E+01
  1.20100000E+01  1.20100000E+01  1.20100000E+01  1.20100000E+01  1.20100000E+01
  1.20100000E+01  1.20100000E+01  3.20600000E+01  1.20100000E+01  1.00800000E+00
  1.20100000E+01  1.20100000E+01  1.00800000E+00  1.20100000E+01  1.20100000E+01
  1.20100000E+01  1.00800000E+00  1.20100000E+01  1.00800000E+00  1.00800000E+00
  1.00800000E+00  1.20100000E+01  1.20100000E+01  1.20100000E+01  1.20100000E+01
  1.00800000E+00  1.20100000E+01  1.00800000E+00  1.20100000E+01  1.00800000E+00
  1.00800000E+00  1.20100000E+01  1.00800000E+00  1.00800000E+00  1.20100000E+01
  1.00800000E+00  1.00800000E+00  1.00800000E+00  1.20100000E+01  1.00800000E+00
  1.00800000E+00  1.20100000E+01  1.00800000E+00  1.00800000E+00  1.20100000E+01
  1.00800000E+00  1.00800000E+00  1.20100000E+01  1.00800000E+00  1.00800000E+00
  1.00800000E+00  1.00800000E+00  1.20100000E+01  1.20100000E+01  1.00800000E+00
  1.00800000E+00  1.00800000E+00  1.20100000E+01  1.00800000E+00  1.00800000E+00
  1.00800000E+00  1.00800000E+00  3.20600000E+01  1.20100000E+01  1.20100000E+01
  1.20100000E+01  1.20100000E+01  1.20100000E+01  1.20100000E+01  1.20100000E+01
  1.20100000E+01  3.20600000E+01  1.20100000E+01  1.00800000E+00  1.20100000E+01
  1.20100000E+01  1.00800000E+00  1.20100000E+01  1.20100000E+01  1.20100000E+01
  1.00800000E+00  1.20100000E+01  1.00800000E+00  1.00800000E+00  1.00800000E+00
  1.20100000E+01  1.20100000E+01  1.20100000E+01  1.20100000E+01  1.00800000E+00
  1.20100000E+01  1.00800000E+00  1.20100000E+01  1.00800000E+00  1.00800000E+00
  1.20100000E+01  1.00800000E+00  1.00800000E+00  1.20100000E+01  1.00800000E+00
  1.00800000E+00  1.00800000E+00  1.20100000E+01  1.00800000E+00  1.00800000E+00
  1.20100000E+01  1.00800000E+00  1.00800000E+00  1.20100000E+01  1.00800000E+00
  1.00800000E+00  1.20100000E+01  1.00800000E+00  1.00800000E+00  1.00800000E+00
  1.00800000E+00  1.20100000E+01  1.20100000E+01  1.00800000E+00  1.00800000E+00
  1.00800000E+00  1.20100000E+01  1.00800000E+00  1.00800000E+00  1.00800000E+00
  1.00800000E+00  3.20600000E+01  1.20100000E+01  1.20100000E+01  1.20100000E+01
  1.20100000E+01  1.20100000E+01  1.20100000E+01  1.20100000E+01  1.20100000E+01
  3.20600000E+01  1.20100000E+01  1.00800000E+00  1.20100000E+01  1.20100000E+01
  1.00800000E+00  1.20100000E+01  1.20100000E+01  1.20100000E+01  1.00800000E+00
  1.20100000E+01  1.00800000E+00  1.00800000E+00  1.00800000E+00  1.20100000E+01
  1.20100000E+01  1.20100000E+01  1.20100000E+01  1.00800000E+00  1.20100000E+01
  1.00800000E+00  1.20100000E+01  1.00800000E+00  1.00800000E+00  1.20100000E+01
  1.00800000E+00  1.00800000E+00  1.20100000E+01  1.00800000E+00  1.00800000E+00
  1.00800000E+00  1.20100000E+01  1.00800000E+00  1.00800000E+00  1.20100000E+01
  1.00800000E+00  1.00800000E+00  1.20100000E+01  1.00800000E+00  1.00800000E+00
  1.20100000E+01  1.00800000E+00  1.00800000E+00  1.00800000E+00  1.00800000E+00
  1.20100000E+01  1.20100000E+01  1.00800000E+00  1.00800000E+00  1.00800000E+00
  1.20100000E+01  1.00800000E+00  1.00800000E+00  1.00800000E+00  1.00800000E+00
  3.20600000E+01  1.20100000E+01  1.20100000E+01  1.20100000E+01  1.20100000E+01
  1.20100000E+01  1.20100000E+01  1.20100000E+01  1.20100000E+01  3.20600000E+01
  1.20100000E+01  1.00800000E+00  1.20100000E+01  1.20100000E+01  1.00800000E+00
  1.20100000E+01  1.20100000E+01  1.20100000E+01  1.00800000E+00  1.20100000E+01
  1.00800000E+00  1.00800000E+00  1.00800000E+00  1.20100000E+01  1.20100000E+01
  1.20100000E+01  1.20100000E+01  1.00800000E+00  1.20100000E+01  1.00800000E+00
  1.20100000E+01  1.00800000E+00  1.00800000E+00  1.20100000E+01  1.00800000E+00
  1.00800000E+00  1.20100000E+01  1.00800000E+00  1.00800000E+00  1.00800000E+00
  1.20100000E+01  1.00800000E+00  1.00800000E+00  1.20100000E+01  1.00800000E+00
  1.00800000E+00  1.20100000E+01  1.00800000E+00  1.00800000E+00  1.20100000E+01
  1.00800000E+00  1.00800000E+00  1.00800000E+00  1.00800000E+00  1.20100000E+01
  1.20100000E+01  1.00800000E+00  1.00800000E+00  1.00800000E+00  1.20100000E+01
  1.00800000E+00  1.00800000E+00  1.00800000E+00  1.00800000E+00  3.20600000E+01
  1.20100000E+01  1.20100000E+01  1.20100000E+01  1.20100000E+01  1.20100000E+01
  1.20100000E+01  1.20100000E+01  1.20100000E+01  3.20600000E+01  1.20100000E+01
  1.00800000E+00  1.20100000E+01  1.20100000E+01  1.00800000E+00  1.20100000E+01
  1.20100000E+01  1.20100000E+01  1.00800000E+00  1.20100000E+01  1.00800000E+00
  1.00800000E+00  1.00800000E+00  1.20100000E+01  1.20100000E+01  1.20100000E+01
  1.20100000E+01  1.00800000E+00  1.20100000E+01  1.00800000E+00  1.20100000E+01
  1.00800000E+00  1.00800000E+00  1.20100000E+01  1.00800000E+00  1.00800000E+00
  1.20100000E+01  1.00800000E+00  1.00800000E+00  1.00800000E+00  1.20100000E+01
  1.00800000E+00  1.00800000E+00  1.20100000E+01  1.00800000E+00  1.00800000E+00
  1.20100000E+01  1.00800000E+00  1.00800000E+00  1.20100000E+01  1.00800000E+00
  1.00800000E+00  1.00800000E+00  1.00800000E+00  1.20100000E+01  1.20100000E+01
  1.00800000E+00  1.00800000E+00  1.00800000E+00  1.20100000E+01  1.00800000E+00
  1.00800000E+00  1.00800000E+00  1.00800000E+00  3.20600000E+01  1.20100000E+01
  1.20100000E+01  1.20100000E+01  1.20100000E+01  1.20100000E+01  1.20100000E+01
  1.20100000E+01  1.20100000E+01  3.20600000E+01  1.20100000E+01  1.00800000E+00
  1.20100000E+01  1.20100000E+01  1.00800000E+00  1.20100000E+01  1.20100000E+01
  1.20100000E+01  1.00800000E+00  1.20100000E+01  1.00800000E+00  1.00800000E+00
  1.00800000E+00  1.20100000E+01  1.20100000E+01  1.20100000E+01  1.20100000E+01
  1.00800000E+00  1.20100000E+01  1.00800000E+00  1.20100000E+01  1.00800000E+00
  1.00800000E+00  1.20100000E+01  1.00800000E+00  1.00800000E+00  1.20100000E+01
  1.00800000E+00  1.00800000E+00  1.00800000E+00  1.20100000E+01  1.00800000E+00
  1.00800000E+00  1.20100000E+01  1.00800000E+00  1.00800000E+00  1.20100000E+01
  1.00800000E+00  1.00800000E+00  1.20100000E+01  1.00800000E+00  1.00800000E+00
  1.00800000E+00  1.00800000E+00  1.20100000E+01  1.20100000E+01  1.00800000E+00
  1.00800000E+00  1.00800000E+00  1.20100000E+01  1.00800000E+00  1.00800000E+00
  1.00800000E+00  1.00800000E+00  3.20600000E+01  1.20100000E+01  1.20100000E+01
  1.20100000E+01  1.20100000E+01  1.20100000E+01  1.20100000E+01  1.20100000E+01
  1.20100000E+01  3.20600000E+01  1.20100000E+01  1.00800000E+00  1.20100000E+01
  1.20100000E+01  1.00800000E+00  1.20100000E+01  1.20100000E+01  1.20100000E+01
  1.00800000E+00  1.20100000E+01  1.00800000E+00  1.00800000E+00  1.00800000E+00
  1.20100000E+01  1.20100000E+01  1.20100000E+01  1.20100000E+01  1.00800000E+00
  1.20100000E+01  1.00800000E+00  1.20100000E+01  1.00800000E+00  1.00800000E+00
  1.20100000E+01  1.00800000E+00  1.00800000E+00  1.20100000E+01  1.00800000E+00
  1.00800000E+00  1.00800000E+00  1.20100000E+01  1.00800000E+00  1.00800000E+00
  1.20100000E+01  1.00800000E+00  1.00800000E+00  1.20100000E+01  1.00800000E+00
  1.00800000E+00  1.20100000E+01  1.00800000E+00  1.00800000E+00  1.00800000E+00
  1.00800000E+00  1.20100000E+01  1.20100000E+01  1.00800000E+00  1.00800000E+00
  1.00800000E+00  1.20100000E+01  1.00800000E+00  1.00800000E+00  1.00800000E+00
  1.00800000E+00  3.20600000E+01  1.20100000E+01  1.20100000E+01  1.20100000E+01
  1.20100000E+01  1.20100000E+01  1.20100000E+01  1.20100000E+01  1.20100000E+01
  3.20600000E+01  1.20100000E+01  1.00800000E+00  1.20100000E+01  1.20100000E+01
  1.00800000E+00  1.20100000E+01  1.20100000E+01  1.20100000E+01  1.00800000E+00
  1.20100000E+01  1.00800000E+00  1.00800000E+00  1.00800000E+00  1.20100000E+01
  1.20100000E+01  1.20100000E+01  1.20100000E+01  1.00800000E+00  1.20100000E+01
  1.00800000E+00  1.20100000E+01  1.00800000E+00  1.00800000E+00  1.20100000E+01
  1.00800000E+00  1.00800000E+00  1.20100000E+01  1.00800000E+00  1.00800000E+00
  1.00800000E+00  1.20100000E+01  1.00800000E+00  1.00800000E+00  1.20100000E+01
  1.00800000E+00  1.00800000E+00  1.20100000E+01  1.00800000E+00  1.00800000E+00
  1.20100000E+01  1.00800000E+00  1.00800000E+00  1.00800000E+00  1.00800000E+00
  1.20100000E+01  1.20100000E+01  1.00800000E+00  1.00800000E+00  1.00800000E+00
  1.20100000E+01  1.00800000E+00  1.00800000E+00  1.00800000E+00  1.00800000E+00
  3.20600000E+01  1.20100000E+01  1.20100000E+01  1.20100000E+01  1.20100000E+01
  1.20100000E+01  1.20100000E+01  1.20100000E+01  1.20100000E+01  3.20600000E+01
  1.20100000E+01  1.00800000E+00  1.20100000E+01  1.20100000E+01  1.00800000E+00
  1.20100000E+01  1.20100000E+01  1.20100000E+01  1.00800000E+00  1.20100000E+01
  1.00800000E+00  1.00800000E+00  1.00800000E+00  1.20100000E+01  1.20100000E+01
  1.20100000E+01  1.20100000E+01  1.00800000E+00  1.20100000E+01  1.00800000E+00
  1.20100000E+01  1.00800000E+00  1.00800000E+00  1.20100000E+01  1.00800000E+00
  1.00800000E+00  1.20100000E+01  1.00800000E+00  1.00800000E+00  1.00800000E+00
  1.20100000E+01  1.00800000E+00  1.00800000E+00  1.20100000E+01  1.00800000E+00
  1.00800000E+00  1.20100000E+01  1.00800000E+00  1.00800000E+00  1.20100000E+01
  1.00800000E+00  1.00800000E+00  1.00800000E+00  1.00800000E+00  1.20100000E+01
  1.20100000E+01  1.00800000E+00  1.00800000E+00  1.00800000E+00  1.20100000E+01
  1.00800000E+00  1.00800000E+00  1.00800000E+00  1.00800000E+00  3.20600000E+01
  1.20100000E+01  1.20100000E+01  1.20100000E+01  1.20100000E+01  1.20100000E+01
  1.20100000E+01  1.20100000E+01  1.20100000E+01  3.20600000E+01  1.20100000E+01
  1.00800000E+00  1.20100000E+01  1.20100000E+01  1.00800000E+00  1.20100000E+01
  1.20100000E+01  1.20100000E+01  1.00800000E+00  1.20100000E+01  1.00800000E+00
  1.00800000E+00  1.00800000E+00  1.20100000E+01  1.20100000E+01  1.20100000E+01
  1.20100000E+01  1.00800000E+00  1.20100000E+01  1.00800000E+00  1.20100000E+01
  1.00800000E+00  1.00800000E+00  1.20100000E+01  1.00800000E+00  1.00800000E+00
  1.20100000E+01  1.00800000E+00  1.00800000E+00  1.00800000E+00  1.20100000E+01
  1.00800000E+00  1.00800000E+00  1.20100000E+01  1.00800000E+00  1.00800000E+00
  1.20100000E+01  1.00800000E+00  1.00800000E+00  1.20100000E+01  1.00800000E+00
  1.00800000E+00  1.00800000E+00  1.00800000E+00  1.20100000E+01  1.20100000E+01
  1.00800000E+00  1.00800000E+00  1.00800000E+00  1.20100000E+01  1.00800000E+00
  1.00800000E+00  1.00800000E+00  1.00800000E+00  3.20600000E+01  1.20100000E+01
  1.20100000E+01  1.20100000E+01  1.20100000E+01  1.20100000E+01  1.20100000E+01
  1.20100000E+01  1.20100000E+01  3.20600000E+01  1.20100000E+01  1.00800000E+00
  1.20100000E+01  1.20100000E+01  1.00800000E+00  1.20100000E+01  1.20100000E+01
  1.20100000E+01  1.00800000E+00  1.20100000E+01  1.00800000E+00  1.00800000E+00
  1.00800000E+00  1.20100000E+01  1.20100000E+01  1.20100000E+01  1.20100000E+01
  1.00800000E+00  1.20100000E+01  1.00800000E+00  1.20100000E+01  1.00800000E+00
  1.00800000E+00  1.20100000E+01  1.00800000E+00  1.00800000E+00  1.20100000E+01
  1.00800000E+00  1.00800000E+00  1.00800000E+00  1.20100000E+01  1.00800000E+00
  1.00800000E+00  1.20100000E+01  1.00800000E+00  1.00800000E+00  1.20100000E+01
  1.00800000E+00  1.00800000E+00  1.20100000E+01  1.00800000E+00  1.00800000E+00
  1.00800000E+00  1.00800000E+00  1.20100000E+01  1.20100000E+01  1.00800000E+00
  1.00800000E+00  1.00800000E+00  1.20100000E+01  1.00800000E+00  1.00800000E+00
  1.00800000E+00  1.00800000E+00  3.20600000E+01  1.20100000E+01  1.20100000E+01
  1.20100000E+01  1.20100000E+01  1.20100000E+01  1.20100000E+01  1.20100000E+01
  1.20100000E+01  3.20600000E+01  1.20100000E+01  1.00800000E+00  1.20100000E+01
  1.20100000E+01  1.00800000E+00  1.20100000E+01  1.20100000E+01  1.20100000E+01
  1.00800000E+00  1.20100000E+01  1.00800000E+00  1.00800000E+00  1.00800000E+00
  1.20100000E+01  1.20100000E+01  1.20100000E+01  1.20100000E+01  1.00800000E+00
  1.20100000E+01  1.00800000E+00  1.20100000E+01  1.00800000E+00  1.00800000E+00
  1.20100000E+01  1.00800000E+00  1.00800000E+00  1.20100000E+01  1.00800000E+00
  1.00800000E+00  1.00800000E+00  1.20100000E+01  1.00800000E+00  1.00800000E+00
  1.20100000E+01  1.00800000E+00  1.00800000E+00  1.20100000E+01  1.00800000E+00
  1.00800000E+00  1.20100000E+01  1.00800000E+00  1.00800000E+00  1.00800000E+00
  1.00800000E+00  1.20100000E+01  1.20100000E+01  1.00800000E+00  1.00800000E+00
  1.00800000E+00  1.20100000E+01  1.00800000E+00  1.00800000E+00  1.00800000E+00
  1.00800000E+00  3.20600000E+01  1.20100000E+01  1.20100000E+01  1.20100000E+01
  1.20100000E+01  1.20100000E+01  1.20100000E+01  1.20100000E+01  1.20100000E+01
  3.20600000E+01  1.20100000E+01  1.00800000E+00  1.20100000E+01  1.20100000E+01
  1.00800000E+00  1.20100000E+01  1.20100000E+01  1.20100000E+01  1.00800000E+00
  1.20100000E+01  1.00800000E+00  1.00800000E+00  1.00800000E+00  1.20100000E+01
  1.20100000E+01  1.20100000E+01  1.20100000E+01  1.00800000E+00  1.20100000E+01
  1.00800000E+00  1.20100000E+01  1.00800000E+00  1.00800000E+00  1.20100000E+01
  1.00800000E+00  1.00800000E+00  1.20100000E+01  1.00800000E+00  1.00800000E+00
  1.00800000E+00  1.20100000E+01  1.00800000E+00  1.00800000E+00  1.20100000E+01
  1.00800000E+00  1.00800000E+00  1.20100000E+01  1.00800000E+00  1.00800000E+00
  1.20100000E+01  1.00800000E+00  1.00800000E+00  1.00800000E+00  1.00800000E+00
  1.20100000E+01  1.20100000E+01  1.00800000E+00  1.00800000E+00  1.00800000E+00
  1.20100000E+01  1.00800000E+00  1.00800000E+00  1.00800000E+00  1.00800000E+00
  3.20600000E+01  1.20100000E+01  1.20100000E+01  1.20100000E+01  1.20100000E+01
  1.20100000E+01  1.20100000E+01  1.20100000E+01  1.20100000E+01  3.20600000E+01
  1.20100000E+01  1.00800000E+00  1.20100000E+01  1.20100000E+01  1.00800000E+00
  1.20100000E+01  1.20100000E+01  1.20100000E+01  1.00800000E+00  1.20100000E+01
  1.00800000E+00  1.00800000E+00  1.00800000E+00  1.20100000E+01  1.20100000E+01
  1.20100000E+01  1.20100000E+01  1.00800000E+00  1.20100000E+01  1.00800000E+00
  1.20100000E+01  1.00800000E+00  1.00800000E+00  1.20100000E+01  1.00800000E+00
  1.00800000E+00  1.20100000E+01  1.00800000E+00  1.00800000E+00  1.00800000E+00
  1.20100000E+01  1.00800000E+00  1.00800000E+00  1.20100000E+01  1.00800000E+00
  1.00800000E+00  1.20100000E+01  1.00800000E+00  1.00800000E+00  1.20100000E+01
  1.00800000E+00  1.00800000E+00  1.00800000E+00  1.00800000E+00  1.20100000E+01
  1.20100000E+01  1.00800000E+00  1.00800000E+00  1.00800000E+00  1.20100000E+01
  1.00800000E+00  1.00800000E+00  1.00800000E+00  1.00800000E+00  3.20600000E+01
  1.20100000E+01  1.20100000E+01  1.20100000E+01  1.20100000E+01  1.20100000E+01
  1.20100000E+01  1.20100000E+01  1.20100000E+01  3.20600000E+01  1.20100000E+01
  1.00800000E+00  1.20100000E+01  1.20100000E+01  1.00800000E+00  1.20100000E+01
  1.20100000E+01  1.20100000E+01  1.00800000E+00  1.20100000E+01  1.00800000E+00
  1.00800000E+00  1.00800000E+00  1.20100000E+01  1.20100000E+01  1.20100000E+01
  1.20100000E+01  1.00800000E+00  1.20100000E+01  1.00800000E+00  1.20100000E+01
  1.00800000E+00  1.00800000E+00  1.20100000E+01  1.00800000E+00  1.00800000E+00
  1.20100000E+01  1.00800000E+00  1.00800000E+00  1.00800000E+00  1.20100000E+01
  1.00800000E+00  1.00800000E+00  1.20100000E+01  1.00800000E+00  1.00800000E+00
  1.20100000E+01  1.00800000E+00  1.00800000E+00  1.20100000E+01  1.00800000E+00
  1.00800000E+00  1.00800000E+00  1.00800000E+00  1.20100000E+01  1.20100000E+01
  1.00800000E+00  1.00800000E+00  1.00800000E+00  1.20100000E+01  1.00800000E+00
  1.00800000E+00  1.00800000E+00  1.00800000E+00  3.20600000E+01  1.20100000E+01
  1.20100000E+01  1.20100000E+01  1.20100000E+01  1.20100000E+01  1.20100000E+01
  1.20100000E+01  1.20100000E+01  3.20600000E+01  1.20100000E+01  1.00800000E+00
  1.20100000E+01  1.20100000E+01  1.00800000E+00  1.20100000E+01  1.20100000E+01
  1.20100000E+01  1.00800000E+00  1.20100000E+01  1.00800000E+00  1.00800000E+00
  1.00800000E+00  1.20100000E+01  1.20100000E+01  1.20100000E+01  1.20100000E+01
  1.00800000E+00  1.20100000E+01  1.00800000E+00  1.20100000E+01  1.00800000E+00
  1.00800000E+00  1.20100000E+01  1.00800000E+00  1.00800000E+00  1.20100000E+01
  1.00800000E+00  1.00800000E+00  1.00800000E+00  1.20100000E+01  1.00800000E+00
  1.00800000E+00  1.20100000E+01  1.00800000E+00  1.00800000E+00  1.20100000E+01
  1.00800000E+00  1.00800000E+00  1.20100000E+01  1.00800000E+00  1.00800000E+00
  1.00800000E+00  1.00800000E+00  1.20100000E+01  1.20100000E+01  1.00800000E+00
  1.00800000E+00  1.00800000E+00  1.20100000E+01  1.00800000E+00  1.00800000E+00
  1.00800000E+00  1.00800000E+00  3.20600000E+01  1.20100000E+01  1.20100000E+01
  1.20100000E+01  1.20100000E+01  1.20100000E+01  1.20100000E+01  1.20100000E+01
  1.20100000E+01  3.20600000E+01  1.20100000E+01  1.00800000E+00  1.20100000E+01
  1.20100000E+01  1.00800000E+00  1.20100000E+01  1.20100000E+01  1.20100000E+01
  1.00800000E+00  1.20100000E+01  1.00800000E+00  1.00800000E+00  1.00800000E+00
  1.20100000E+01  1.20100000E+01  1.20100000E+01  1.20100000E+01  1.00800000E+00
  1.20100000E+01  1.00800000E+00  1.20100000E+01  1.00800000E+00  1.00800000E+00
  1.20100000E+01  1.00800000E+00  1.00800000E+00  1.20100000E+01  1.00800000E+00
  1.00800000E+00  1.00800000E+00  1.20100000E+01  1.00800000E+00  1.00800000E+00
  1.20100000E+01  1.00800000E+00  1.00800000E+00  1.20100000E+01  1.00800000E+00
  1.00800000E+00  1.20100000E+01  1.00800000E+00  1.00800000E+00  1.00800000E+00
  1.00800000E+00  1.20100000E+01  1.20100000E+01  1.00800000E+00  1.00800000E+00
  1.00800000E+00  1.20100000E+01  1.00800000E+00  1.00800000E+00  1.00800000E+00
  1.00800000E+00  3.20600000E+01  1.20100000E+01  1.20100000E+01  1.20100000E+01
  1.20100000E+01  1.20100000E+01  1.20100000E+01  1.20100000E+01  1.20100000E+01
  3.20600000E+01  1.20100000E+01  1.00800000E+00  1.20100000E+01  1.20100000E+01
  1.00800000E+00  1.20100000E+01  1.20100000E+01  1.20100000E+01  1.00800000E+00
  1.20100000E+01  1.00800000E+00  1.00800000E+00  1.00800000E+00  1.20100000E+01
  1.20100000E+01  1.20100000E+01  1.20100000E+01  1.00800000E+00  1.20100000E+01
  1.00800000E+00  1.20100000E+01  1.00800000E+00  1.00800000E+00  1.20100000E+01
  1.00800000E+00  1.00800000E+00  1.20100000E+01  1.00800000E+00  1.00800000E+00
  1.00800000E+00  1.20100000E+01  1.00800000E+00  1.00800000E+00  1.20100000E+01
  1.00800000E+00  1.00800000E+00  1.20100000E+01  1.00800000E+00  1.00800000E+00
  1.20100000E+01  1.00800000E+00  1.00800000E+00  1.00800000E+00  1.00800000E+00
  1.20100000E+01  1.20100000E+01  1.00800000E+00  1.00800000E+00  1.00800000E+00
  1.20100000E+01  1.00800000E+00  1.00800000E+00  1.00800000E+00  1.00800000E+00
  3.20600000E+01  1.20100000E+01  1.20100000E+01  1.20100000E+01  1.20100000E+01
  1.20100000E+01  1.20100000E+01  1.20100000E+01  1.20100000E+01  3.20600000E+01
  1.20100000E+01  1.00800000E+00  1.20100000E+01  1.20100000E+01  1.00800000E+00
  1.20100000E+01  1.20100000E+01  1.20100000E+01  1.00800000E+00  1.20100000E+01
  1.00800000E+00  1.00800000E+00  1.00800000E+00  1.20100000E+01  1.20100000E+01
  1.20100000E+01  1.20100000E+01  1.00800000E+00  1.20100000E+01  1.00800000E+00
  1.20100000E+01  1.00800000E+00  1.00800000E+00  1.20100000E+01  1.00800000E+00
  1.00800000E+00  1.20100000E+01  1.00800000E+00  1.00800000E+00  1.00800000E+00
  1.20100000E+01  1.00800000E+00  1.00800000E+00  1.20100000E+01  1.00800000E+00
  1.00800000E+00  1.20100000E+01  1.00800000E+00  1.00800000E+00  1.20100000E+01
  1.00800000E+00  1.00800000E+00  1.00800000E+00  1.00800000E+00  1.20100000E+01
  1.20100000E+01  1.00800000E+00  1.00800000E+00  1.00800000E+00  1.20100000E+01
  1.00800000E+00  1.00800000E+00  1.00800000E+00  1.00800000E+00  3.20600000E+01
  1.20100000E+01  1.20100000E+01  1.20100000E+01  1.20100000E+01  1.20100000E+01
  1.20100000E+01  1.20100000E+01  1.20100000E+01  3.20600000E+01  1.20100000E+01
  1.00800000E+00  1.20100000E+01  1.20100000E+01  1.00800000E+00  1.20100000E+01
  1.20100000E+01  1.20100000E+01  1.00800000E+00  1.20100000E+01  1.00800000E+00
  1.00800000E+00  1.00800000E+00  1.20100000E+01  1.20100000E+01  1.20100000E+01
  1.20100000E+01  1.00800000E+00  1.20100000E+01  1.00800000E+00  1.20100000E+01
  1.00800000E+00  1.00800000E+00  1.20100000E+01  1.00800000E+00  1.00800000E+00
  1.20100000E+01  1.00800000E+00  1.00800000E+00  1.00800000E+00  1.20100000E+01
  1.00800000E+00  1.00800000E+00  1.20100000E+01  1.00800000E+00  1.00800000E+00
  1.20100000E+01  1.00800000E+00  1.00800000E+00  1.20100000E+01  1.00800000E+00
  1.00800000E+00  1.00800000E+00  1.00800000E+00  1.20100000E+01  1.20100000E+01
  1.00800000E+00  1.00800000E+00  1.00800000E+00  1.20100000E+01  1.00800000E+00
  1.00800000E+00  1.00800000E+00  1.00800000E+00  3.20600000E+01  1.20100000E+01
  1.20100000E+01  1.20100000E+01  1.20100000E+01  1.20100000E+01  1.20100000E+01
  1.20100000E+01  1.20100000E+01  3.20600000E+01  1.20100000E+01  1.00800000E+00
  1.20100000E+01  1.20100000E+01  1.00800000E+00  1.20100000E+01  1.20100000E+01
  1.20100000E+01  1.00800000E+00  1.20100000E+01  1.00800000E+00  1.00800000E+00
  1.00800000E+00  1.20100000E+01  1.20100000E+01  1.20100000E+01  1.20100000E+01
  1.00800000E+00  1.20100000E+01  1.00800000E+00  1.20100000E+01  1.00800000E+00
  1.00800000E+00  1.20100000E+01  1.00800000E+00  1.00800000E+00  1.20100000E+01
  1.00800000E+00  1.00800000E+00  1.00800000E+00  1.20100000E+01  1.00800000E+00
  1.00800000E+00  1.20100000E+01  1.00800000E+00  1.00800000E+00  1.20100000E+01
  1.00800000E+00  1.00800000E+00  1.20100000E+01  1.00800000E+00  1.00800000E+00
  1.00800000E+00  1.00800000E+00  1.20100000E+01  1.20100000E+01  1.00800000E+00
  1.00800000E+00  1.00800000E+00  1.20100000E+01  1.00800000E+00  1.00800000E+00
  1.00800000E+00  1.00800000E+00  3.20600000E+01  1.20100000E+01  1.20100000E+01
  1.20100000E+01  1.20100000E+01  1.20100000E+01  1.20100000E+01  1.20100000E+01
  1.20100000E+01  3.20600000E+01  1.20100000E+01  1.00800000E+00  1.20100000E+01
  1.20100000E+01  1.00800000E+00  1.20100000E+01  1.20100000E+01  1.20100000E+01
  1.00800000E+00  1.20100000E+01  1.00800000E+00  1.00800000E+00  1.00800000E+00
  1.20100000E+01  1.20100000E+01  1.20100000E+01  1.20100000E+01  1.00800000E+00
  1.20100000E+01  1.00800000E+00  1.20100000E+01  1.00800000E+00  1.00800000E+00
  1.20100000E+01  1.00800000E+00  1.00800000E+00  1.20100000E+01  1.00800000E+00
  1.00800000E+00  1.00800000E+00  1.20100000E+01  1.00800000E+00  1.00800000E+00
  1.20100000E+01  1.00800000E+00  1.00800000E+00  1.20100000E+01  1.00800000E+00
  1.00800000E+00  1.20100000E+01  1.00800000E+00  1.00800000E+00  1.00800000E+00
  1.00800000E+00  1.20100000E+01  1.20100000E+01  1.00800000E+00  1.00800000E+00
  1.00800000E+00  1.20100000E+01  1.00800000E+00  1.00800000E+00  1.00800000E+00
  1.00800000E+00  3.20600000E+01  1.20100000E+01  1.20100000E+01  1.20100000E+01
  1.20100000E+01  1.20100000E+01  1.20100000E+01  1.20100000E+01  1.20100000E+01
  3.20600000E+01  1.20100000E+01  1.00800000E+00  1.20100000E+01  1.20100000E+01
  1.00800000E+00  1.20100000E+01  1.20100000E+01  1.20100000E+01  1.00800000E+00
  1.20100000E+01  1.00800000E+00  1.00800000E+00  1.00800000E+00  1.20100000E+01
  1.20100000E+01  1.20100000E+01  1.20100000E+01  1.00800000E+00  1.20100000E+01
  1.00800000E+00  1.20100000E+01  1.00800000E+00  1.00800000E+00  1.20100000E+01
  1.00800000E+00  1.00800000E+00  1.20100000E+01  1.00800000E+00  1.00800000E+00
  1.00800000E+00  1.20100000E+01  1.00800000E+00  1.00800000E+00  1.20100000E+01
  1.00800000E+00  1.00800000E+00  1.20100000E+01  1.00800000E+00  1.00800000E+00
  1.20100000E+01  1.00800000E+00  1.00800000E+00  1.00800000E+00  1.00800000E+00
  1.20100000E+01  1.20100000E+01  1.00800000E+00  1.00800000E+00  1.00800000E+00
  1.20100000E+01  1.00800000E+00  1.00800000E+00  1.00800000E+00  1.00800000E+00
  3.20600000E+01  1.20100000E+01  1.20100000E+01  1.20100000E+01  1.20100000E+01
  1.20100000E+01  1.20100000E+01  1.20100000E+01  1.20100000E+01  3.20600000E+01
  1.20100000E+01  1.00800000E+00  1.20100000E+01  1.20100000E+01  1.00800000E+00
  1.20100000E+01  1.20100000E+01  1.20100000E+01  1.00800000E+00  1.20100000E+01
  1.00800000E+00  1.00800000E+00  1.00800000E+00  1.20100000E+01  1.20100000E+01
  1.20100000E+01  1.20100000E+01  1.00800000E+00  1.20100000E+01  1.00800000E+00
  1.20100000E+01  1.00800000E+00  1.00800000E+00  1.20100000E+01  1.00800000E+00
  1.00800000E+00  1.20100000E+01  1.00800000E+00  1.00800000E+00  1.00800000E+00
  1.20100000E+01  1.00800000E+00  1.00800000E+00  1.20100000E+01  1.00800000E+00
  1.00800000E+00  1.20100000E+01  1.00800000E+00  1.00800000E+00  1.20100000E+01
  1.00800000E+00  1.00800000E+00  1.00800000E+00  1.00800000E+00  1.20100000E+01
  1.20100000E+01  1.00800000E+00  1.00800000E+00  1.00800000E+00  1.20100000E+01
  1.00800000E+00  1.00800000E+00  1.00800000E+00  1.00800000E+00  3.20600000E+01
  1.20100000E+01  1.20100000E+01  1.20100000E+01  1.20100000E+01  1.20100000E+01
  1.20100000E+01  1.20100000E+01  1.20100000E+01  3.20600000E+01  1.20100000E+01
  1.00800000E+00  1.20100000E+01  1.20100000E+01  1.00800000E+00  1.20100000E+01
  1.20100000E+01  1.20100000E+01  1.00800000E+00  1.20100000E+01  1.00800000E+00
  1.00800000E+00  1.00800000E+00  1.20100000E+01  1.20100000E+01  1.20100000E+01
  1.20100000E+01  1.00800000E+00  1.20100000E+01  1.00800000E+00  1.20100000E+01
  1.00800000E+00  1.00800000E+00  1.20100000E+01  1.00800000E+00  1.00800000E+00
  1.20100000E+01  1.00800000E+00  1.00800000E+00  1.00800000E+00  1.20100000E+01
  1.00800000E+00  1.00800000E+00  1.20100000E+01  1.00800000E+00  1.00800000E+00
  1.20100000E+01  1.00800000E+00  1.00800000E+00  1.20100000E+01  1.00800000E+00
  1.00800000E+00  1.00800000E+00  1.00800000E+00  1.20100000E+01  1.20100000E+01
  1.00800000E+00  1.00800000E+00  1.00800000E+00  1.20100000E+01  1.00800000E+00
  1.00800000E+00  1.00800000E+00  1.00800000E+00  3.20600000E+01  1.20100000E+01
  1.20100000E+01  1.20100000E+01  1.20100000E+01  1.20100000E+01  1.20100000E+01
  1.20100000E+01  1.20100000E+01  3.20600000E+01  1.20100000E+01  1.00800000E+00
  1.20100000E+01  1.20100000E+01  1.00800000E+00  1.20100000E+01  1.20100000E+01
  1.20100000E+01  1.00800000E+00  1.20100000E+01  1.00800000E+00  1.00800000E+00
  1.00800000E+00  1.20100000E+01  1.20100000E+01  1.20100000E+01  1.20100000E+01
  1.00800000E+00  1.20100000E+01  1.00800000E+00  1.20100000E+01  1.00800000E+00
  1.00800000E+00  1.20100000E+01  1.00800000E+00  1.00800000E+00  1.20100000E+01
  1.00800000E+00  1.00800000E+00  1.00800000E+00  1.20100000E+01  1.00800000E+00
  1.00800000E+00  1.20100000E+01  1.00800000E+00  1.00800000E+00  1.20100000E+01
  1.00800000E+00  1.00800000E+00  1.20100000E+01  1.00800000E+00  1.00800000E+00
  1.00800000E+00  1.00800000E+00  1.20100000E+01  1.20100000E+01  1.00800000E+00
  1.00800000E+00  1.00800000E+00  1.20100000E+01  1.00800000E+00  1.00800000E+00
  1.00800000E+00  1.00800000E+00  3.20600000E+01  1.20100000E+01  1.20100000E+01
  1.20100000E+01  1.20100000E+01  1.20100000E+01  1.20100000E+01  1.20100000E+01
  1.20100000E+01  3.20600000E+01  1.20100000E+01  1.00800000E+00  1.20100000E+01
  1.20100000E+01  1.00800000E+00  1.20100000E+01  1.20100000E+01  1.20100000E+01
  1.00800000E+00  1.20100000E+01  1.00800000E+00  1.00800000E+00  1.00800000E+00
  1.20100000E+01  1.20100000E+01  1.20100000E+01  1.20100000E+01  1.00800000E+00
  1.20100000E+01  1.00800000E+00  1.20100000E+01  1.00800000E+00  1.00800000E+00
  1.20100000E+01  1.00800000E+00  1.00800000E+00  1.20100000E+01  1.00800000E+00
  1.00800000E+00  1.00800000E+00  1.20100000E+01  1.00800000E+00  1.00800000E+00
  1.20100000E+01  1.00800000E+00  1.00800000E+00  1.20100000E+01  1.00800000E+00
  1.00800000E+00  1.20100000E+01  1.00800000E+00  1.00800000E+00  1.00800000E+00
  1.00800000E+00  1.20100000E+01  1.20100000E+01  1.00800000E+00  1.00800000E+00
  1.00800000E+00  1.20100000E+01  1.00800000E+00  1.00800000E+00  1.00800000E+00
  1.00800000E+00  3.20600000E+01  1.20100000E+01  1.20100000E+01  1.20100000E+01
  1.20100000E+01  1.20100000E+01  1.20100000E+01  1.20100000E+01  1.20100000E+01
  3.20600000E+01  1.20100000E+01  1.00800000E+00  1.20100000E+01  1.20100000E+01
  1.00800000E+00  1.20100000E+01  1.20100000E+01  1.20100000E+01  1.00800000E+00
  1.20100000E+01  1.00800000E+00  1.00800000E+00  1.00800000E+00  1.20100000E+01
  1.20100000E+01  1.20100000E+01  1.20100000E+01  1.00800000E+00  1.20100000E+01
  1.00800000E+00  1.20100000E+01  1.00800000E+00  1.00800000E+00  1.20100000E+01
  1.00800000E+00  1.00800000E+00  1.20100000E+01  1.00800000E+00  1.00800000E+00
  1.00800000E+00  1.20100000E+01  1.00800000E+00  1.00800000E+00  1.20100000E+01
  1.00800000E+00  1.00800000E+00  1.20100000E+01  1.00800000E+00  1.00800000E+00
  1.20100000E+01  1.00800000E+00  1.00800000E+00  1.00800000E+00  1.00800000E+00
  1.20100000E+01  1.20100000E+01  1.00800000E+00  1.00800000E+00  1.00800000E+00
  1.20100000E+01  1.00800000E+00  1.00800000E+00  1.00800000E+00  1.00800000E+00
  3.20600000E+01  1.20100000E+01  1.20100000E+01  1.20100000E+01  1.20100000E+01
  1.20100000E+01  1.20100000E+01  1.20100000E+01  1.20100000E+01  3.20600000E+01
  1.20100000E+01  1.00800000E+00  1.20100000E+01  1.20100000E+01  1.00800000E+00
  1.20100000E+01  1.20100000E+01  1.20100000E+01  1.00800000E+00  1.20100000E+01
  1.00800000E+00  1.00800000E+00  1.00800000E+00  1.20100000E+01  1.20100000E+01
  1.20100000E+01  1.20100000E+01  1.00800000E+00  1.20100000E+01  1.00800000E+00
  1.20100000E+01  1.00800000E+00  1.00800000E+00  1.20100000E+01  1.00800000E+00
  1.00800000E+00  1.20100000E+01  1.00800000E+00  1.00800000E+00  1.00800000E+00
  1.20100000E+01  1.00800000E+00  1.00800000E+00  1.20100000E+01  1.00800000E+00
  1.00800000E+00  1.20100000E+01  1.00800000E+00  1.00800000E+00  1.20100000E+01
  1.00800000E+00  1.00800000E+00  1.00800000E+00  1.00800000E+00  1.20100000E+01
  1.20100000E+01  1.00800000E+00  1.00800000E+00  1.00800000E+00  1.20100000E+01
  1.00800000E+00  1.00800000E+00  1.00800000E+00  1.00800000E+00  3.20600000E+01
  1.20100000E+01  1.20100000E+01  1.20100000E+01  1.20100000E+01  1.20100000E+01
  1.20100000E+01  1.20100000E+01  1.20100000E+01  3.20600000E+01  1.20100000E+01
  1.00800000E+00  1.20100000E+01  1.20100000E+01  1.00800000E+00  1.20100000E+01
  1.20100000E+01  1.20100000E+01  1.00800000E+00  1.20100000E+01  1.00800000E+00
  1.00800000E+00  1.00800000E+00  1.20100000E+01  1.20100000E+01  1.20100000E+01
  1.20100000E+01  1.00800000E+00  1.20100000E+01  1.00800000E+00  1.20100000E+01
  1.00800000E+00  1.00800000E+00  1.20100000E+01  1.00800000E+00  1.00800000E+00
  1.20100000E+01  1.00800000E+00  1.00800000E+00  1.00800000E+00  1.20100000E+01
  1.00800000E+00  1.00800000E+00  1.20100000E+01  1.00800000E+00  1.00800000E+00
  1.20100000E+01  1.00800000E+00  1.00800000E+00  1.20100000E+01  1.00800000E+00
  1.00800000E+00  1.00800000E+00  1.00800000E+00  1.20100000E+01  1.20100000E+01
  1.00800000E+00  1.00800000E+00  1.00800000E+00  1.20100000E+01  1.00800000E+00
  1.00800000E+00  1.00800000E+00  1.00800000E+00  3.20600000E+01  1.20100000E+01
  1.20100000E+01  1.20100000E+01  1.20100000E+01  1.20100000E+01  1.20100000E+01
  1.20100000E+01  1.20100000E+01  3.20600000E+01  1.20100000E+01  1.00800000E+00
  1.20100000E+01  1.20100000E+01  1.00800000E+00  1.20100000E+01  1.20100000E+01
  1.20100000E+01  1.00800000E+00  1.20100000E+01  1.00800000E+00  1.00800000E+00
  1.00800000E+00  1.20100000E+01  1.20100000E+01  1.20100000E+01  1.20100000E+01
  1.00800000E+00  1.20100000E+01  1.00800000E+00  1.20100000E+01  1.00800000E+00
  1.00800000E+00  1.20100000E+01  1.00800000E+00  1.00800000E+00  1.20100000E+01
  1.00800000E+00  1.00800000E+00  1.00800000E+00  1.20100000E+01  1.00800000E+00
  1.00800000E+00  1.20100000E+01  1.00800000E+00  1.00800000E+00  1.20100000E+01
  1.00800000E+00  1.00800000E+00  1.20100000E+01  1.00800000E+00  1.00800000E+00
  1.00800000E+00  1.00800000E+00  1.20100000E+01  1.20100000E+01  1.00800000E+00
  1.00800000E+00  1.00800000E+00  1.20100000E+01  1.00800000E+00  1.00800000E+00
  1.00800000E+00  1.00800000E+00  3.20600000E+01  1.20100000E+01  1.20100000E+01
  1.20100000E+01  1.20100000E+01  1.20100000E+01  1.20100000E+01  1.20100000E+01
  1.20100000E+01  3.20600000E+01  1.20100000E+01  1.00800000E+00  1.20100000E+01
  1.20100000E+01  1.00800000E+00  1.20100000E+01  1.20100000E+01  1.20100000E+01
  1.00800000E+00  1.20100000E+01  1.00800000E+00  1.00800000E+00  1.00800000E+00
  1.20100000E+01  1.20100000E+01  1.20100000E+01  1.20100000E+01  1.00800000E+00
  1.20100000E+01  1.00800000E+00  1.20100000E+01  1.00800000E+00  1.00800000E+00
  1.20100000E+01  1.00800000E+00  1.00800000E+00  1.20100000E+01  1.00800000E+00
  1.00800000E+00  1.00800000E+00  1.20100000E+01  1.00800000E+00  1.00800000E+00
  1.20100000E+01  1.00800000E+00  1.00800000E+00  1.20100000E+01  1.00800000E+00
  1.00800000E+00  1.20100000E+01  1.00800000E+00  1.00800000E+00  1.00800000E+00
  1.00800000E+00  1.20100000E+01  1.20100000E+01  1.00800000E+00  1.00800000E+00
  1.00800000E+00  1.20100000E+01  1.00800000E+00  1.00800000E+00  1.00800000E+00
  1.00800000E+00  3.20600000E+01  1.20100000E+01  1.20100000E+01  1.20100000E+01
  1.20100000E+01  1.20100000E+01  1.20100000E+01  1.20100000E+01  1.20100000E+01
  3.20600000E+01  1.20100000E+01  1.00800000E+00  1.20100000E+01  1.20100000E+01
  1.00800000E+00  1.20100000E+01  1.20100000E+01  1.20100000E+01  1.00800000E+00
  1.20100000E+01  1.00800000E+00  1.00800000E+00  1.00800000E+00  1.20100000E+01
  1.20100000E+01  1.20100000E+01  1.20100000E+01  1.00800000E+00  1.20100000E+01
  1.00800000E+00  1.20100000E+01  1.00800000E+00  1.00800000E+00  1.20100000E+01
  1.00800000E+00  1.00800000E+00  1.20100000E+01  1.00800000E+00  1.00800000E+00
  1.00800000E+00  1.20100000E+01  1.00800000E+00  1.00800000E+00  1.20100000E+01
  1.00800000E+00  1.00800000E+00  1.20100000E+01  1.00800000E+00  1.00800000E+00
  1.20100000E+01  1.00800000E+00  1.00800000E+00  1.00800000E+00  1.00800000E+00
  1.20100000E+01  1.20100000E+01  1.00800000E+00  1.00800000E+00  1.00800000E+00
  1.20100000E+01  1.00800000E+00  1.00800000E+00  1.00800000E+00  1.00800000E+00
  3.20600000E+01  1.20100000E+01  1.20100000E+01  1.20100000E+01  1.20100000E+01
  1.20100000E+01  1.20100000E+01  1.20100000E+01  1.20100000E+01  3.20600000E+01
  1.20100000E+01  1.00800000E+00  1.20100000E+01  1.20100000E+01  1.00800000E+00
  1.20100000E+01  1.20100000E+01  1.20100000E+01  1.00800000E+00  1.20100000E+01
  1.00800000E+00  1.00800000E+00  1.00800000E+00  1.20100000E+01  1.20100000E+01
  1.20100000E+01  1.20100000E+01  1.00800000E+00  1.20100000E+01  1.00800000E+00
  1.20100000E+01  1.00800000E+00  1.00800000E+00  1.20100000E+01  1.00800000E+00
  1.00800000E+00  1.20100000E+01  1.00800000E+00  1.00800000E+00  1.00800000E+00
  1.20100000E+01  1.00800000E+00  1.00800000E+00  1.20100000E+01  1.00800000E+00
  1.00800000E+00  1.20100000E+01  1.00800000E+00  1.00800000E+00  1.20100000E+01
  1.00800000E+00  1.00800000E+00  1.00800000E+00  1.00800000E+00  1.20100000E+01
  1.20100000E+01  1.00800000E+00  1.00800000E+00  1.00800000E+00  1.20100000E+01
  1.00800000E+00  1.00800000E+00  1.00800000E+00  1.00800000E+00  3.20600000E+01
  1.20100000E+01  1.20100000E+01  1.20100000E+01  1.20100000E+01  1.20100000E+01
  1.20100000E+01  1.20100000E+01  1.20100000E+01  3.20600000E+01  1.20100000E+01
  1.00800000E+00  1.20100000E+01  1.20100000E+01  1.00800000E+00  1.20100000E+01
  1.20100000E+01  1.20100000E+01  1.00800000E+00  1.20100000E+01  1.00800000E+00
  1.00800000E+00  1.00800000E+00  1.20100000E+01  1.20100000E+01  1.20100000E+01
  1.20100000E+01  1.00800000E+00  1.20100000E+01  1.00800000E+00  1.20100000E+01
  1.00800000E+00  1.00800000E+00  1.20100000E+01  1.00800000E+00  1.00800000E+00
  1.20100000E+01  1.00800000E+00  1.00800000E+00  1.00800000E+00  1.20100000E+01
  1.00800000E+00  1.00800000E+00  1.20100000E+01  1.00800000E+00  1.00800000E+00
  1.20100000E+01  1.00800000E+00  1.00800000E+00  1.20100000E+01  1.00800000E+00
  1.00800000E+00  1.00800000E+00  1.00800000E+00  1.20100000E+01  1.20100000E+01
  1.00800000E+00  1.00800000E+00  1.00800000E+00  1.20100000E+01  1.00800000E+00
  1.00800000E+00  1.00800000E+00  1.00800000E+00  3.20600000E+01  1.20100000E+01
  1.20100000E+01  1.20100000E+01  1.20100000E+01  1.20100000E+01  1.20100000E+01
  1.20100000E+01  1.20100000E+01  3.20600000E+01  1.20100000E+01  1.00800000E+00
  1.20100000E+01  1.20100000E+01  1.00800000E+00  1.20100000E+01  1.20100000E+01
  1.20100000E+01  1.00800000E+00  1.20100000E+01  1.00800000E+00  1.00800000E+00
  1.00800000E+00  1.20100000E+01  1.20100000E+01  1.20100000E+01  1.20100000E+01
  1.00800000E+00  1.20100000E+01  1.00800000E+00  1.20100000E+01  1.00800000E+00
  1.00800000E+00  1.20100000E+01  1.00800000E+00  1.00800000E+00  1.20100000E+01
  1.00800000E+00  1.00800000E+00  1.00800000E+00  1.20100000E+01  1.00800000E+00
  1.00800000E+00  1.20100000E+01  1.00800000E+00  1.00800000E+00  1.20100000E+01
  1.00800000E+00  1.00800000E+00  1.20100000E+01  1.00800000E+00  1.00800000E+00
  1.00800000E+00  1.00800000E+00  1.20100000E+01  1.20100000E+01  1.00800000E+00
  1.00800000E+00  1.00800000E+00  1.20100000E+01  1.00800000E+00  1.00800000E+00
  1.00800000E+00  1.00800000E+00  3.20600000E+01  1.20100000E+01  1.20100000E+01
  1.20100000E+01  1.20100000E+01  1.20100000E+01  1.20100000E+01  1.20100000E+01
  1.20100000E+01  3.20600000E+01  1.20100000E+01  1.00800000E+00  1.20100000E+01
  1.20100000E+01  1.00800000E+00  1.20100000E+01  1.20100000E+01  1.20100000E+01
  1.00800000E+00  1.20100000E+01  1.00800000E+00  1.00800000E+00  1.00800000E+00
  1.20100000E+01  1.20100000E+01  1.20100000E+01  1.20100000E+01  1.00800000E+00
  1.20100000E+01  1.00800000E+00  1.20100000E+01  1.00800000E+00  1.00800000E+00
  1.20100000E+01  1.00800000E+00  1.00800000E+00  1.20100000E+01  1.00800000E+00
  1.00800000E+00  1.00800000E+00  1.20100000E+01  1.00800000E+00  1.00800000E+00
  1.20100000E+01  1.00800000E+00  1.00800000E+00  1.20100000E+01  1.00800000E+00
  1.00800000E+00  1.20100000E+01  1.00800000E+00  1.00800000E+00  1.00800000E+00
  1.00800000E+00  1.20100000E+01  1.20100000E+01  1.00800000E+00  1.00800000E+00
  1.00800000E+00  1.20100000E+01  1.00800000E+00  1.00800000E+00  1.00800000E+00
  1.00800000E+00  3.20600000E+01  1.20100000E+01  1.20100000E+01  1.20100000E+01
  1.20100000E+01  1.20100000E+01  1.20100000E+01  1.20100000E+01  1.20100000E+01
  3.20600000E+01  1.20100000E+01  1.00800000E+00  1.20100000E+01  1.20100000E+01
  1.00800000E+00  1.20100000E+01  1.20100000E+01  1.20100000E+01  1.00800000E+00
  1.20100000E+01  1.00800000E+00  1.00800000E+00  1.00800000E+00  1.20100000E+01
  1.20100000E+01  1.20100000E+01  1.20100000E+01  1.00800000E+00  1.20100000E+01
  1.00800000E+00  1.20100000E+01  1.00800000E+00  1.00800000E+00  1.20100000E+01
  1.00800000E+00  1.00800000E+00  1.20100000E+01  1.00800000E+00  1.00800000E+00
  1.00800000E+00  1.20100000E+01  1.00800000E+00  1.00800000E+00  1.20100000E+01
  1.00800000E+00  1.00800000E+00  1.20100000E+01  1.00800000E+00  1.00800000E+00
  1.20100000E+01  1.00800000E+00  1.00800000E+00  1.00800000E+00  1.00800000E+00
  1.20100000E+01  1.20100000E+01  1.00800000E+00  1.00800000E+00  1.00800000E+00
  1.20100000E+01  1.00800000E+00  1.00800000E+00  1.00800000E+00  1.00800000E+00
  3.20600000E+01  1.20100000E+01  1.20100000E+01  1.20100000E+01  1.20100000E+01
  1.20100000E+01  1.20100000E+01  1.20100000E+01  1.20100000E+01  3.20600000E+01
  1.20100000E+01  1.00800000E+00  1.20100000E+01  1.20100000E+01  1.00800000E+00
  1.20100000E+01  1.20100000E+01  1.20100000E+01  1.00800000E+00  1.20100000E+01
  1.00800000E+00  1.00800000E+00  1.00800000E+00  1.20100000E+01  1.20100000E+01
  1.20100000E+01  1.20100000E+01  1.00800000E+00  1.20100000E+01  1.00800000E+00
  1.20100000E+01  1.00800000E+00  1.00800000E+00  1.20100000E+01  1.00800000E+00
  1.00800000E+00  1.20100000E+01  1.00800000E+00  1.00800000E+00  1.00800000E+00
  1.20100000E+01  1.00800000E+00  1.00800000E+00  1.20100000E+01  1.00800000E+00
  1.00800000E+00  1.20100000E+01  1.00800000E+00  1.00800000E+00  1.20100000E+01
  1.00800000E+00  1.00800000E+00  1.00800000E+00  1.00800000E+00  1.20100000E+01
  1.20100000E+01  1.00800000E+00  1.00800000E+00  1.00800000E+00  1.20100000E+01
  1.00800000E+00  1.00800000E+00  1.00800000E+00  1.00800000E+00  3.20600000E+01
  1.20100000E+01  1.20100000E+01  1.20100000E+01  1.20100000E+01  1.20100000E+01
  1.20100000E+01  1.20100000E+01  1.20100000E+01  3.20600000E+01  1.20100000E+01
  1.00800000E+00  1.20100000E+01  1.20100000E+01  1.00800000E+00  1.20100000E+01
  1.20100000E+01  1.20100000E+01  1.00800000E+00  1.20100000E+01  1.00800000E+00
  1.00800000E+00  1.00800000E+00  1.20100000E+01  1.20100000E+01  1.20100000E+01
  1.20100000E+01  1.00800000E+00  1.20100000E+01  1.00800000E+00  1.20100000E+01
  1.00800000E+00  1.00800000E+00  1.20100000E+01  1.00800000E+00  1.00800000E+00
  1.20100000E+01  1.00800000E+00  1.00800000E+00  1.00800000E+00  1.20100000E+01
  1.00800000E+00  1.00800000E+00  1.20100000E+01  1.00800000E+00  1.00800000E+00
  1.20100000E+01  1.00800000E+00  1.00800000E+00  1.20100000E+01  1.00800000E+00
  1.00800000E+00  1.00800000E+00  1.00800000E+00  1.20100000E+01  1.20100000E+01
  1.00800000E+00  1.00800000E+00  1.00800000E+00  1.20100000E+01  1.00800000E+00
  1.00800000E+00  1.00800000E+00  1.00800000E+00  3.20600000E+01  1.20100000E+01
  1.20100000E+01  1.20100000E+01  1.20100000E+01  1.20100000E+01  1.20100000E+01
  1.20100000E+01  1.20100000E+01  3.20600000E+01  1.20100000E+01  1.00800000E+00
  1.20100000E+01  1.20100000E+01  1.00800000E+00  1.20100000E+01  1.20100000E+01
  1.20100000E+01  1.00800000E+00  1.20100000E+01  1.00800000E+00  1.00800000E+00
  1.00800000E+00  1.20100000E+01  1.20100000E+01  1.20100000E+01  1.20100000E+01
  1.00800000E+00  1.20100000E+01  1.00800000E+00  1.20100000E+01  1.00800000E+00
  1.00800000E+00  1.20100000E+01  1.00800000E+00  1.00800000E+00  1.20100000E+01
  1.00800000E+00  1.00800000E+00  1.00800000E+00  1.20100000E+01  1.00800000E+00
  1.00800000E+00  1.20100000E+01  1.00800000E+00  1.00800000E+00  1.20100000E+01
  1.00800000E+00  1.00800000E+00  1.20100000E+01  1.00800000E+00  1.00800000E+00
  1.00800000E+00  1.00800000E+00  1.20100000E+01  1.20100000E+01  1.00800000E+00
  1.00800000E+00  1.00800000E+00  1.20100000E+01  1.00800000E+00  1.00800000E+00
  1.00800000E+00  1.00800000E+00  3.20600000E+01  1.20100000E+01  1.20100000E+01
  1.20100000E+01  1.20100000E+01  1.20100000E+01  1.20100000E+01  1.20100000E+01
  1.20100000E+01  3.20600000E+01  1.20100000E+01  1.00800000E+00  1.20100000E+01
  1.20100000E+01  1.00800000E+00  1.20100000E+01  1.20100000E+01  1.20100000E+01
  1.00800000E+00  1.20100000E+01  1.00800000E+00  1.00800000E+00  1.00800000E+00
  1.20100000E+01  1.20100000E+01  1.20100000E+01  1.20100000E+01  1.00800000E+00
  1.20100000E+01  1.00800000E+00  1.20100000E+01  1.00800000E+00  1.00800000E+00
  1.20100000E+01  1.00800000E+00  1.00800000E+00  1.20100000E+01  1.00800000E+00
  1.00800000E+00  1.00800000E+00  1.20100000E+01  1.00800000E+00  1.00800000E+00
  1.20100000E+01  1.00800000E+00  1.00800000E+00  1.20100000E+01  1.00800000E+00
  1.00800000E+00  1.20100000E+01  1.00800000E+00  1.00800000E+00  1.00800000E+00
  1.00800000E+00  1.20100000E+01  1.20100000E+01  1.00800000E+00  1.00800000E+00
  1.00800000E+00  1.20100000E+01  1.00800000E+00  1.00800000E+00  1.00800000E+00
  1.00800000E+00  3.20600000E+01  1.20100000E+01  1.20100000E+01  1.20100000E+01
  1.20100000E+01  1.20100000E+01  1.20100000E+01  1.20100000E+01  1.20100000E+01
  3.20600000E+01  1.20100000E+01  1.00800000E+00  1.20100000E+01  1.20100000E+01
  1.00800000E+00  1.20100000E+01  1.20100000E+01  1.20100000E+01  1.00800000E+00
  1.20100000E+01  1.00800000E+00  1.00800000E+00  1.00800000E+00  1.20100000E+01
  1.20100000E+01  1.20100000E+01  1.20100000E+01  1.00800000E+00  1.20100000E+01
  1.00800000E+00  1.20100000E+01  1.00800000E+00  1.00800000E+00  1.20100000E+01
  1.00800000E+00  1.00800000E+00  1.20100000E+01  1.00800000E+00  1.00800000E+00
  1.00800000E+00  1.20100000E+01  1.00800000E+00  1.00800000E+00  1.20100000E+01
  1.00800000E+00  1.00800000E+00  1.20100000E+01  1.00800000E+00  1.00800000E+00
  1.20100000E+01  1.00800000E+00  1.00800000E+00  1.00800000E+00  1.00800000E+00
  1.20100000E+01  1.20100000E+01  1.00800000E+00  1.00800000E+00  1.00800000E+00
  1.20100000E+01  1.00800000E+00  1.00800000E+00  1.00800000E+00  1.00800000E+00
  3.20600000E+01  1.20100000E+01  1.20100000E+01  1.20100000E+01  1.20100000E+01
  1.20100000E+01  1.20100000E+01  1.20100000E+01  1.20100000E+01  3.20600000E+01
  1.20100000E+01  1.00800000E+00  1.20100000E+01  1.20100000E+01  1.00800000E+00
  1.20100000E+01  1.20100000E+01  1.20100000E+01  1.00800000E+00  1.20100000E+01
  1.00800000E+00  1.00800000E+00  1.00800000E+00  1.20100000E+01  1.20100000E+01
  1.20100000E+01  1.20100000E+01  1.00800000E+00  1.20100000E+01  1.00800000E+00
  1.20100000E+01  1.00800000E+00  1.00800000E+00  1.20100000E+01  1.00800000E+00
  1.00800000E+00  1.20100000E+01  1.00800000E+00  1.00800000E+00  1.00800000E+00
  1.20100000E+01  1.00800000E+00  1.00800000E+00  1.20100000E+01  1.00800000E+00
  1.00800000E+00  1.20100000E+01  1.00800000E+00  1.00800000E+00  1.20100000E+01
  1.00800000E+00  1.00800000E+00  1.00800000E+00  1.00800000E+00  1.20100000E+01
  1.20100000E+01  1.00800000E+00  1.00800000E+00  1.00800000E+00  1.20100000E+01
  1.00800000E+00  1.00800000E+00  1.00800000E+00  1.00800000E+00  3.20600000E+01
  1.20100000E+01  1.20100000E+01  1.20100000E+01  1.20100000E+01  1.20100000E+01
  1.20100000E+01  1.20100000E+01  1.20100000E+01  3.20600000E+01  1.20100000E+01
  1.00800000E+00  1.20100000E+01  1.20100000E+01  1.00800000E+00  1.20100000E+01
  1.20100000E+01  1.20100000E+01  1.00800000E+00  1.20100000E+01  1.00800000E+00
  1.00800000E+00  1.00800000E+00  1.20100000E+01  1.20100000E+01  1.20100000E+01
  1.20100000E+01  1.00800000E+00  1.20100000E+01  1.00800000E+00  1.20100000E+01
  1.00800000E+00  1.00800000E+00  1.20100000E+01  1.00800000E+00  1.00800000E+00
  1.20100000E+01  1.00800000E+00  1.00800000E+00  1.00800000E+00  1.20100000E+01
  1.00800000E+00  1.00800000E+00  1.20100000E+01  1.00800000E+00  1.00800000E+00
  1.20100000E+01  1.00800000E+00  1.00800000E+00  1.20100000E+01  1.00800000E+00
  1.00800000E+00  1.00800000E+00  1.00800000E+00  1.20100000E+01  1.20100000E+01
  1.00800000E+00  1.00800000E+00  1.00800000E+00  1.20100000E+01  1.00800000E+00
  1.00800000E+00  1.00800000E+00  1.00800000E+00  3.20600000E+01  1.20100000E+01
  1.20100000E+01  1.20100000E+01  1.20100000E+01  1.20100000E+01  1.20100000E+01
  1.20100000E+01  1.20100000E+01  3.20600000E+01  1.20100000E+01  1.00800000E+00
  1.20100000E+01  1.20100000E+01  1.00800000E+00  1.20100000E+01  1.20100000E+01
  1.20100000E+01  1.00800000E+00  1.20100000E+01  1.00800000E+00  1.00800000E+00
  1.00800000E+00  1.20100000E+01  1.20100000E+01  1.20100000E+01  1.20100000E+01
  1.00800000E+00  1.20100000E+01  1.00800000E+00  1.20100000E+01  1.00800000E+00
  1.00800000E+00  1.20100000E+01  1.00800000E+00  1.00800000E+00  1.20100000E+01
  1.00800000E+00  1.00800000E+00  1.00800000E+00  1.20100000E+01  1.00800000E+00
  1.00800000E+00  1.20100000E+01  1.00800000E+00  1.00800000E+00  1.20100000E+01
  1.00800000E+00  1.00800000E+00  1.20100000E+01  1.00800000E+00  1.00800000E+00
  1.00800000E+00  1.00800000E+00  1.20100000E+01  1.20100000E+01  1.00800000E+00
  1.00800000E+00  1.00800000E+00  1.20100000E+01  1.00800000E+00  1.00800000E+00
  1.00800000E+00  1.00800000E+00  3.20600000E+01  1.20100000E+01  1.20100000E+01
  1.20100000E+01  1.20100000E+01  1.20100000E+01  1.20100000E+01  1.20100000E+01
  1.20100000E+01  3.20600000E+01  1.20100000E+01  1.00800000E+00  1.20100000E+01
  1.20100000E+01  1.00800000E+00  1.20100000E+01  1.20100000E+01  1.20100000E+01
  1.00800000E+00  1.20100000E+01  1.00800000E+00  1.00800000E+00  1.00800000E+00
  1.20100000E+01  1.20100000E+01  1.20100000E+01  1.20100000E+01  1.00800000E+00
  1.20100000E+01  1.00800000E+00  1.20100000E+01  1.00800000E+00  1.00800000E+00
  1.20100000E+01  1.00800000E+00  1.00800000E+00  1.20100000E+01  1.00800000E+00
  1.00800000E+00  1.00800000E+00  1.20100000E+01  1.00800000E+00  1.00800000E+00
  1.20100000E+01  1.00800000E+00  1.00800000E+00  1.20100000E+01  1.00800000E+00
  1.00800000E+00  1.20100000E+01  1.00800000E+00  1.00800000E+00  1.00800000E+00
  1.00800000E+00  1.20100000E+01  1.20100000E+01  1.00800000E+00  1.00800000E+00
  1.00800000E+00  1.20100000E+01  1.00800000E+00  1.00800000E+00  1.00800000E+00
  1.00800000E+00  3.20600000E+01  1.20100000E+01  1.20100000E+01  1.20100000E+01
  1.20100000E+01  1.20100000E+01  1.20100000E+01  1.20100000E+01  1.20100000E+01
  3.20600000E+01  1.20100000E+01  1.00800000E+00  1.20100000E+01  1.20100000E+01
  1.00800000E+00  1.20100000E+01  1.20100000E+01  1.20100000E+01  1.00800000E+00
  1.20100000E+01  1.00800000E+00  1.00800000E+00  1.00800000E+00  1.20100000E+01
  1.20100000E+01  1.20100000E+01  1.20100000E+01  1.00800000E+00  1.20100000E+01
  1.00800000E+00  1.20100000E+01  1.00800000E+00  1.00800000E+00  1.20100000E+01
  1.00800000E+00  1.00800000E+00  1.20100000E+01  1.00800000E+00  1.00800000E+00
  1.00800000E+00  1.20100000E+01  1.00800000E+00  1.00800000E+00  1.20100000E+01
  1.00800000E+00  1.00800000E+00  1.20100000E+01  1.00800000E+00  1.00800000E+00
  1.20100000E+01  1.00800000E+00  1.00800000E+00  1.00800000E+00  1.00800000E+00
  1.20100000E+01  1.20100000E+01  1.00800000E+00  1.00800000E+00  1.00800000E+00
  1.20100000E+01  1.00800000E+00  1.00800000E+00  1.00800000E+00  1.00800000E+00
  3.20600000E+01  1.20100000E+01  1.20100000E+01  1.20100000E+01  1.20100000E+01
  1.20100000E+01  1.20100000E+01  1.20100000E+01  1.20100000E+01  3.20600000E+01
  1.20100000E+01  1.00800000E+00  1.20100000E+01  1.20100000E+01  1.00800000E+00
  1.20100000E+01  1.20100000E+01  1.20100000E+01  1.00800000E+00  1.20100000E+01
  1.00800000E+00  1.00800000E+00  1.00800000E+00  1.20100000E+01  1.20100000E+01
  1.20100000E+01  1.20100000E+01  1.00800000E+00  1.20100000E+01  1.00800000E+00
  1.20100000E+01  1.00800000E+00  1.00800000E+00  1.20100000E+01  1.00800000E+00
  1.00800000E+00  1.20100000E+01  1.00800000E+00  1.00800000E+00  1.00800000E+00
  1.20100000E+01  1.00800000E+00  1.00800000E+00  1.20100000E+01  1.00800000E+00
  1.00800000E+00  1.20100000E+01  1.00800000E+00  1.00800000E+00  1.20100000E+01
  1.00800000E+00  1.00800000E+00  1.00800000E+00  1.00800000E+00  1.20100000E+01
  1.20100000E+01  1.00800000E+00  1.00800000E+00  1.00800000E+00  1.20100000E+01
  1.00800000E+00  1.00800000E+00  1.00800000E+00  1.00800000E+00  3.20600000E+01
  1.20100000E+01  1.20100000E+01  1.20100000E+01  1.20100000E+01  1.20100000E+01
  1.20100000E+01  1.20100000E+01  1.20100000E+01  3.20600000E+01  1.20100000E+01
  1.00800000E+00  1.20100000E+01  1.20100000E+01  1.00800000E+00  1.20100000E+01
  1.20100000E+01  1.20100000E+01  1.00800000E+00  1.20100000E+01  1.00800000E+00
  1.00800000E+00  1.00800000E+00  1.20100000E+01  1.20100000E+01  1.20100000E+01
  1.20100000E+01  1.00800000E+00  1.20100000E+01  1.00800000E+00  1.20100000E+01
  1.00800000E+00  1.00800000E+00  1.20100000E+01  1.00800000E+00  1.00800000E+00
  1.20100000E+01  1.00800000E+00  1.00800000E+00  1.00800000E+00  1.20100000E+01
  1.00800000E+00  1.00800000E+00  1.20100000E+01  1.00800000E+00  1.00800000E+00
  1.20100000E+01  1.00800000E+00  1.00800000E+00  1.20100000E+01  1.00800000E+00
  1.00800000E+00  1.00800000E+00  1.00800000E+00  1.20100000E+01  1.20100000E+01
  1.00800000E+00  1.00800000E+00  1.00800000E+00  1.20100000E+01  1.00800000E+00
  1.00800000E+00  1.00800000E+00  1.00800000E+00  3.20600000E+01  1.20100000E+01
  1.20100000E+01  1.20100000E+01  1.20100000E+01  1.20100000E+01  1.20100000E+01
  1.20100000E+01  1.20100000E+01  3.20600000E+01  1.20100000E+01  1.00800000E+00
  1.20100000E+01  1.20100000E+01  1.00800000E+00  1.20100000E+01  1.20100000E+01
  1.20100000E+01  1.00800000E+00  1.20100000E+01  1.00800000E+00  1.00800000E+00
  1.00800000E+00  1.20100000E+01  1.20100000E+01  1.20100000E+01  1.20100000E+01
  1.00800000E+00  1.20100000E+01  1.00800000E+00  1.20100000E+01  1.00800000E+00
  1.00800000E+00  1.20100000E+01  1.00800000E+00  1.00800000E+00  1.20100000E+01
  1.00800000E+00  1.00800000E+00  1.00800000E+00  1.20100000E+01  1.00800000E+00
  1.00800000E+00  1.20100000E+01  1.00800000E+00  1.00800000E+00  1.20100000E+01
  1.00800000E+00  1.00800000E+00  1.20100000E+01  1.00800000E+00  1.00800000E+00
  1.00800000E+00  1.00800000E+00  1.20100000E+01  1.20100000E+01  1.00800000E+00
  1.00800000E+00  1.00800000E+00  1.20100000E+01  1.00800000E+00  1.00800000E+00
  1.00800000E+00  1.00800000E+00  3.20600000E+01  1.20100000E+01  1.20100000E+01
  1.20100000E+01  1.20100000E+01  1.20100000E+01  1.20100000E+01  1.20100000E+01
  1.20100000E+01  3.20600000E+01  1.20100000E+01  1.00800000E+00  1.20100000E+01
  1.20100000E+01  1.00800000E+00  1.20100000E+01  1.20100000E+01  1.20100000E+01
  1.00800000E+00  1.20100000E+01  1.00800000E+00  1.00800000E+00  1.00800000E+00
  1.20100000E+01  1.20100000E+01  1.20100000E+01  1.20100000E+01  1.00800000E+00
  1.20100000E+01  1.00800000E+00  1.20100000E+01  1.00800000E+00  1.00800000E+00
  1.20100000E+01  1.00800000E+00  1.00800000E+00  1.20100000E+01  1.00800000E+00
  1.00800000E+00  1.00800000E+00  1.20100000E+01  1.00800000E+00  1.00800000E+00
  1.20100000E+01  1.00800000E+00  1.00800000E+00  1.20100000E+01  1.00800000E+00
  1.00800000E+00  1.20100000E+01  1.00800000E+00  1.00800000E+00  1.00800000E+00
  1.00800000E+00  1.20100000E+01  1.20100000E+01  1.00800000E+00  1.00800000E+00
  1.00800000E+00  1.20100000E+01  1.00800000E+00  1.00800000E+00  1.00800000E+00
  1.00800000E+00  3.20600000E+01  1.20100000E+01  1.20100000E+01  1.20100000E+01
  1.20100000E+01  1.20100000E+01  1.20100000E+01  1.20100000E+01  1.20100000E+01
  3.20600000E+01  1.20100000E+01  1.00800000E+00  1.20100000E+01  1.20100000E+01
  1.00800000E+00  1.20100000E+01  1.20100000E+01  1.20100000E+01  1.00800000E+00
  1.20100000E+01  1.00800000E+00  1.00800000E+00  1.00800000E+00  1.20100000E+01
  1.20100000E+01  1.20100000E+01  1.20100000E+01  1.00800000E+00  1.20100000E+01
  1.00800000E+00  1.20100000E+01  1.00800000E+00  1.00800000E+00  1.20100000E+01
  1.00800000E+00  1.00800000E+00  1.20100000E+01  1.00800000E+00  1.00800000E+00
  1.00800000E+00  1.20100000E+01  1.00800000E+00  1.00800000E+00  1.20100000E+01
  1.00800000E+00  1.00800000E+00  1.20100000E+01  1.00800000E+00  1.00800000E+00
  1.20100000E+01  1.00800000E+00  1.00800000E+00  1.00800000E+00  1.00800000E+00
  1.20100000E+01  1.20100000E+01  1.00800000E+00  1.00800000E+00  1.00800000E+00
  1.20100000E+01  1.00800000E+00  1.00800000E+00  1.00800000E+00  1.00800000E+00
  3.20600000E+01  1.20100000E+01  1.20100000E+01  1.20100000E+01  1.20100000E+01
  1.20100000E+01  1.20100000E+01  1.20100000E+01  1.20100000E+01  3.20600000E+01
  1.20100000E+01  1.00800000E+00  1.20100000E+01  1.20100000E+01  1.00800000E+00
  1.20100000E+01  1.20100000E+01  1.20100000E+01  1.00800000E+00  1.20100000E+01
  1.00800000E+00  1.00800000E+00  1.00800000E+00  1.20100000E+01  1.20100000E+01
  1.20100000E+01  1.20100000E+01  1.00800000E+00  1.20100000E+01  1.00800000E+00
  1.20100000E+01  1.00800000E+00  1.00800000E+00  1.20100000E+01  1.00800000E+00
  1.00800000E+00  1.20100000E+01  1.00800000E+00  1.00800000E+00  1.00800000E+00
  1.20100000E+01  1.00800000E+00  1.00800000E+00  1.20100000E+01  1.00800000E+00
  1.00800000E+00  1.20100000E+01  1.00800000E+00  1.00800000E+00  1.20100000E+01
  1.00800000E+00  1.00800000E+00  1.00800000E+00  1.00800000E+00  1.20100000E+01
  1.20100000E+01  1.00800000E+00  1.00800000E+00  1.00800000E+00  1.20100000E+01
  1.00800000E+00  1.00800000E+00  1.00800000E+00  1.00800000E+00  3.20600000E+01
  1.20100000E+01  1.20100000E+01  1.20100000E+01  1.20100000E+01  1.20100000E+01
  1.20100000E+01  1.20100000E+01  1.20100000E+01  3.20600000E+01  1.20100000E+01
  1.00800000E+00  1.20100000E+01  1.20100000E+01  1.00800000E+00  1.20100000E+01
  1.20100000E+01  1.20100000E+01  1.00800000E+00  1.20100000E+01  1.00800000E+00
  1.00800000E+00  1.00800000E+00  1.20100000E+01  1.20100000E+01  1.20100000E+01
  1.20100000E+01  1.00800000E+00  1.20100000E+01  1.00800000E+00  1.20100000E+01
  1.00800000E+00  1.00800000E+00  1.20100000E+01  1.00800000E+00  1.00800000E+00
  1.20100000E+01  1.00800000E+00  1.00800000E+00  1.00800000E+00  1.20100000E+01
  1.00800000E+00  1.00800000E+00  1.20100000E+01  1.00800000E+00  1.00800000E+00
  1.20100000E+01  1.00800000E+00  1.00800000E+00  1.20100000E+01  1.00800000E+00
  1.00800000E+00  1.00800000E+00  1.00800000E+00  1.20100000E+01  1.20100000E+01
  1.00800000E+00  1.00800000E+00  1.00800000E+00  1.20100000E+01  1.00800000E+00
  1.00800000E+00  1.00800000E+00  1.00800000E+00  3.20600000E+01  1.20100000E+01
  1.20100000E+01  1.20100000E+01  1.20100000E+01  1.20100000E+01  1.20100000E+01
  1.20100000E+01  1.20100000E+01  3.20600000E+01  1.20100000E+01  1.00800000E+00
  1.20100000E+01  1.20100000E+01  1.00800000E+00  1.20100000E+01  1.20100000E+01
  1.20100000E+01  1.00800000E+00  1.20100000E+01  1.00800000E+00  1.00800000E+00
  1.00800000E+00  1.20100000E+01  1.20100000E+01  1.20100000E+01  1.20100000E+01
  1.00800000E+00  1.20100000E+01  1.00800000E+00  1.20100000E+01  1.00800000E+00
  1.00800000E+00  1.20100000E+01  1.00800000E+00  1.00800000E+00  1.20100000E+01
  1.00800000E+00  1.00800000E+00  1.00800000E+00  1.20100000E+01  1.00800000E+00
  1.00800000E+00  1.20100000E+01  1.00800000E+00  1.00800000E+00  1.20100000E+01
  1.00800000E+00  1.00800000E+00  1.20100000E+01  1.00800000E+00  1.00800000E+00
  1.00800000E+00  1.00800000E+00  1.20100000E+01  1.20100000E+01  1.00800000E+00
  1.00800000E+00  1.00800000E+00  1.20100000E+01  1.00800000E+00  1.00800000E+00
  1.00800000E+00  1.00800000E+00  3.20600000E+01  1.20100000E+01  1.20100000E+01
  1.20100000E+01  1.20100000E+01  1.20100000E+01  1.20100000E+01  1.20100000E+01
  1.20100000E+01  3.20600000E+01  1.20100000E+01  1.00800000E+00  1.20100000E+01
  1.20100000E+01  1.00800000E+00  1.20100000E+01  1.20100000E+01  1.20100000E+01
  1.00800000E+00  1.20100000E+01  1.00800000E+00  1.00800000E+00  1.00800000E+00
  1.20100000E+01  1.20100000E+01  1.20100000E+01  1.20100000E+01  1.00800000E+00
  1.20100000E+01  1.00800000E+00  1.20100000E+01  1.00800000E+00  1.00800000E+00
  1.20100000E+01  1.00800000E+00  1.00800000E+00  1.20100000E+01  1.00800000E+00
  1.00800000E+00  1.00800000E+00  1.20100000E+01  1.00800000E+00  1.00800000E+00
  1.20100000E+01  1.00800000E+00  1.00800000E+00  1.20100000E+01  1.00800000E+00
  1.00800000E+00  1.20100000E+01  1.00800000E+00  1.00800000E+00  1.00800000E+00
  1.00800000E+00  1.20100000E+01  1.20100000E+01  1.00800000E+00  1.00800000E+00
  1.00800000E+00  1.20100000E+01  1.00800000E+00  1.00800000E+00  1.00800000E+00
  1.00800000E+00  3.20600000E+01  1.20100000E+01  1.20100000E+01  1.20100000E+01
  1.20100000E+01  1.20100000E+01  1.20100000E+01  1.20100000E+01  1.20100000E+01
  3.20600000E+01  1.20100000E+01  1.00800000E+00  1.20100000E+01  1.20100000E+01
  1.00800000E+00  1.20100000E+01  1.20100000E+01  1.20100000E+01  1.00800000E+00
  1.20100000E+01  1.00800000E+00  1.00800000E+00  1.00800000E+00  1.20100000E+01
  1.20100000E+01  1.20100000E+01  1.20100000E+01  1.00800000E+00  1.20100000E+01
  1.00800000E+00  1.20100000E+01  1.00800000E+00  1.00800000E+00  1.20100000E+01
  1.00800000E+00  1.00800000E+00  1.20100000E+01  1.00800000E+00  1.00800000E+00
  1.00800000E+00  1.20100000E+01  1.00800000E+00  1.00800000E+00  1.20100000E+01
  1.00800000E+00  1.00800000E+00  1.20100000E+01  1.00800000E+00  1.00800000E+00
  1.20100000E+01  1.00800000E+00  1.00800000E+00  1.00800000E+00  1.00800000E+00
  1.20100000E+01  1.20100000E+01  1.00800000E+00  1.00800000E+00  1.00800000E+00
  1.20100000E+01  1.00800000E+00  1.00800000E+00  1.00800000E+00  1.00800000E+00
  3.20600000E+01  1.20100000E+01  1.20100000E+01  1.20100000E+01  1.20100000E+01
  1.20100000E+01  1.20100000E+01  1.20100000E+01  1.20100000E+01  3.20600000E+01
  1.20100000E+01  1.00800000E+00  1.20100000E+01  1.20100000E+01  1.00800000E+00
  1.20100000E+01  1.20100000E+01  1.20100000E+01  1.00800000E+00  1.20100000E+01
  1.00800000E+00  1.00800000E+00  1.00800000E+00  1.20100000E+01  1.20100000E+01
  1.20100000E+01  1.20100000E+01  1.00800000E+00  1.20100000E+01  1.00800000E+00
  1.20100000E+01  1.00800000E+00  1.00800000E+00  1.20100000E+01  1.00800000E+00
  1.00800000E+00  1.20100000E+01  1.00800000E+00  1.00800000E+00  1.00800000E+00
  1.20100000E+01  1.00800000E+00  1.00800000E+00  1.20100000E+01  1.00800000E+00
  1.00800000E+00  1.20100000E+01  1.00800000E+00  1.00800000E+00  1.20100000E+01
  1.00800000E+00  1.00800000E+00  1.00800000E+00  1.00800000E+00  1.20100000E+01
  1.20100000E+01  1.00800000E+00  1.00800000E+00  1.00800000E+00  1.20100000E+01
  1.00800000E+00  1.00800000E+00  1.00800000E+00  1.00800000E+00  3.20600000E+01
  1.20100000E+01  1.20100000E+01  1.20100000E+01  1.20100000E+01  1.20100000E+01
  1.20100000E+01  1.20100000E+01  1.20100000E+01  3.20600000E+01  1.20100000E+01
  1.00800000E+00  1.20100000E+01  1.20100000E+01  1.00800000E+00  1.20100000E+01
  1.20100000E+01  1.20100000E+01  1.00800000E+00  1.20100000E+01  1.00800000E+00
  1.00800000E+00  1.00800000E+00  1.20100000E+01  1.20100000E+01  1.20100000E+01
  1.20100000E+01  1.00800000E+00  1.20100000E+01  1.00800000E+00  1.20100000E+01
  1.00800000E+00  1.00800000E+00  1.20100000E+01  1.00800000E+00  1.00800000E+00
  1.20100000E+01  1.00800000E+00  1.00800000E+00  1.00800000E+00  1.20100000E+01
  1.00800000E+00  1.00800000E+00  1.20100000E+01  1.00800000E+00  1.00800000E+00
  1.20100000E+01  1.00800000E+00  1.00800000E+00  1.20100000E+01  1.00800000E+00
  1.00800000E+00  1.00800000E+00  1.00800000E+00  1.20100000E+01  1.20100000E+01
  1.00800000E+00  1.00800000E+00  1.00800000E+00  1.20100000E+01  1.00800000E+00
  1.00800000E+00  1.00800000E+00  1.00800000E+00  3.20600000E+01  1.20100000E+01
  1.20100000E+01  1.20100000E+01  1.20100000E+01  1.20100000E+01  1.20100000E+01
  1.20100000E+01  1.20100000E+01  3.20600000E+01  1.20100000E+01  1.00800000E+00
  1.20100000E+01  1.20100000E+01  1.00800000E+00  1.20100000E+01  1.20100000E+01
  1.20100000E+01  1.00800000E+00  1.20100000E+01  1.00800000E+00  1.00800000E+00
  1.00800000E+00  1.20100000E+01  1.20100000E+01  1.20100000E+01  1.20100000E+01
  1.00800000E+00  1.20100000E+01  1.00800000E+00  1.20100000E+01  1.00800000E+00
  1.00800000E+00  1.20100000E+01  1.00800000E+00  1.00800000E+00  1.20100000E+01
  1.00800000E+00  1.00800000E+00  1.00800000E+00  1.20100000E+01  1.00800000E+00
  1.00800000E+00  1.20100000E+01  1.00800000E+00  1.00800000E+00  1.20100000E+01
  1.00800000E+00  1.00800000E+00  1.20100000E+01  1.00800000E+00  1.00800000E+00
  1.00800000E+00  1.00800000E+00  1.20100000E+01  1.20100000E+01  1.00800000E+00
  1.00800000E+00  1.00800000E+00  1.20100000E+01  1.00800000E+00  1.00800000E+00
  1.00800000E+00  1.00800000E+00  3.20600000E+01  1.20100000E+01  1.20100000E+01
  1.20100000E+01  1.20100000E+01  1.20100000E+01  1.20100000E+01  1.20100000E+01
  1.20100000E+01  3.20600000E+01  1.20100000E+01  1.00800000E+00  1.20100000E+01
  1.20100000E+01  1.00800000E+00  1.20100000E+01  1.20100000E+01  1.20100000E+01
  1.00800000E+00  1.20100000E+01  1.00800000E+00  1.00800000E+00  1.00800000E+00
  1.20100000E+01  1.20100000E+01  1.20100000E+01  1.20100000E+01  1.00800000E+00
  1.20100000E+01  1.00800000E+00  1.20100000E+01  1.00800000E+00  1.00800000E+00
  1.20100000E+01  1.00800000E+00  1.00800000E+00  1.20100000E+01  1.00800000E+00
  1.00800000E+00  1.00800000E+00  1.20100000E+01  1.00800000E+00  1.00800000E+00
  1.20100000E+01  1.00800000E+00  1.00800000E+00  1.20100000E+01  1.00800000E+00
  1.00800000E+00  1.20100000E+01  1.00800000E+00  1.00800000E+00  1.00800000E+00
  1.00800000E+00  1.20100000E+01  1.20100000E+01  1.00800000E+00  1.00800000E+00
  1.00800000E+00  1.20100000E+01  1.00800000E+00  1.00800000E+00  1.00800000E+00
  1.00800000E+00  3.20600000E+01  1.20100000E+01  1.20100000E+01  1.20100000E+01
  1.20100000E+01  1.20100000E+01  1.20100000E+01  1.20100000E+01  1.20100000E+01
  3.20600000E+01  1.20100000E+01  1.00800000E+00  1.20100000E+01  1.20100000E+01
  1.00800000E+00  1.20100000E+01  1.20100000E+01  1.20100000E+01  1.00800000E+00
  1.20100000E+01  1.00800000E+00  1.00800000E+00  1.00800000E+00  1.20100000E+01
  1.20100000E+01  1.20100000E+01  1.20100000E+01  1.00800000E+00  1.20100000E+01
  1.00800000E+00  1.20100000E+01  1.00800000E+00  1.00800000E+00  1.20100000E+01
  1.00800000E+00  1.00800000E+00  1.20100000E+01  1.00800000E+00  1.00800000E+00
  1.00800000E+00  1.20100000E+01  1.00800000E+00  1.00800000E+00  1.20100000E+01
  1.00800000E+00  1.00800000E+00  1.20100000E+01  1.00800000E+00  1.00800000E+00
  1.20100000E+01  1.00800000E+00  1.00800000E+00  1.00800000E+00  1.00800000E+00
  1.20100000E+01  1.20100000E+01  1.00800000E+00  1.00800000E+00  1.00800000E+00
  1.20100000E+01  1.00800000E+00  1.00800000E+00  1.00800000E+00  1.00800000E+00
  3.20600000E+01  1.20100000E+01  1.20100000E+01  1.20100000E+01  1.20100000E+01
  1.20100000E+01  1.20100000E+01  1.20100000E+01  1.20100000E+01  3.20600000E+01
  1.20100000E+01  1.00800000E+00  1.20100000E+01  1.20100000E+01  1.00800000E+00
  1.20100000E+01  1.20100000E+01  1.20100000E+01  1.00800000E+00  1.20100000E+01
  1.00800000E+00  1.00800000E+00  1.00800000E+00  1.20100000E+01  1.20100000E+01
  1.20100000E+01  1.20100000E+01  1.00800000E+00  1.20100000E+01  1.00800000E+00
  1.20100000E+01  1.00800000E+00  1.00800000E+00  1.20100000E+01  1.00800000E+00
  1.00800000E+00  1.20100000E+01  1.00800000E+00  1.00800000E+00  1.00800000E+00
  1.20100000E+01  1.00800000E+00  1.00800000E+00  1.20100000E+01  1.00800000E+00
  1.00800000E+00  1.20100000E+01  1.00800000E+00  1.00800000E+00  1.20100000E+01
  1.00800000E+00  1.00800000E+00  1.00800000E+00  1.00800000E+00  1.20100000E+01
  1.20100000E+01  1.00800000E+00  1.00800000E+00  1.00800000E+00  1.20100000E+01
  1.00800000E+00  1.00800000E+00  1.00800000E+00  1.00800000E+00  3.20600000E+01
  1.20100000E+01  1.20100000E+01  1.20100000E+01  1.20100000E+01  1.20100000E+01
  1.20100000E+01  1.20100000E+01  1.20100000E+01  3.20600000E+01  1.20100000E+01
  1.00800000E+00  1.20100000E+01  1.20100000E+01  1.00800000E+00  1.20100000E+01
  1.20100000E+01  1.20100000E+01  1.00800000E+00  1.20100000E+01  1.00800000E+00
  1.00800000E+00  1.00800000E+00  1.20100000E+01  1.20100000E+01  1.20100000E+01
  1.20100000E+01  1.00800000E+00  1.20100000E+01  1.00800000E+00  1.20100000E+01
  1.00800000E+00  1.00800000E+00  1.20100000E+01  1.00800000E+00  1.00800000E+00
  1.20100000E+01  1.00800000E+00  1.00800000E+00  1.00800000E+00  1.20100000E+01
  1.00800000E+00  1.00800000E+00  1.20100000E+01  1.00800000E+00  1.00800000E+00
  1.20100000E+01  1.00800000E+00  1.00800000E+00  1.20100000E+01  1.00800000E+00
  1.00800000E+00  1.00800000E+00  1.00800000E+00  1.20100000E+01  1.20100000E+01
  1.00800000E+00  1.00800000E+00  1.00800000E+00  1.20100000E+01  1.00800000E+00
  1.00800000E+00  1.00800000E+00  1.00800000E+00  3.20600000E+01  1.20100000E+01
  1.20100000E+01  1.20100000E+01  1.20100000E+01  1.20100000E+01  1.20100000E+01
  1.20100000E+01  1.20100000E+01  3.20600000E+01  1.20100000E+01  1.00800000E+00
  1.20100000E+01  1.20100000E+01  1.00800000E+00  1.20100000E+01  1.20100000E+01
  1.20100000E+01  1.00800000E+00  1.20100000E+01  1.00800000E+00  1.00800000E+00
  1.00800000E+00  1.20100000E+01  1.20100000E+01  1.20100000E+01  1.20100000E+01
  1.00800000E+00  1.20100000E+01  1.00800000E+00  1.20100000E+01  1.00800000E+00
  1.00800000E+00  1.20100000E+01  1.00800000E+00  1.00800000E+00  1.20100000E+01
  1.00800000E+00  1.00800000E+00  1.00800000E+00  1.20100000E+01  1.00800000E+00
  1.00800000E+00  1.20100000E+01  1.00800000E+00  1.00800000E+00  1.20100000E+01
  1.00800000E+00  1.00800000E+00  1.20100000E+01  1.00800000E+00  1.00800000E+00
  1.00800000E+00  1.00800000E+00  1.20100000E+01  1.20100000E+01  1.00800000E+00
  1.00800000E+00  1.00800000E+00  1.20100000E+01  1.00800000E+00  1.00800000E+00
  1.00800000E+00  1.00800000E+00  3.20600000E+01  1.20100000E+01  1.20100000E+01
  1.20100000E+01  1.20100000E+01  1.20100000E+01  1.20100000E+01  1.20100000E+01
  1.20100000E+01  3.20600000E+01  1.20100000E+01  1.00800000E+00  1.20100000E+01
  1.20100000E+01  1.00800000E+00  1.20100000E+01  1.20100000E+01  1.20100000E+01
  1.00800000E+00  1.20100000E+01  1.00800000E+00  1.00800000E+00  1.00800000E+00
  1.20100000E+01  1.20100000E+01  1.20100000E+01  1.20100000E+01  1.00800000E+00
  1.20100000E+01  1.00800000E+00  1.20100000E+01  1.00800000E+00  1.00800000E+00
  1.20100000E+01  1.00800000E+00  1.00800000E+00  1.20100000E+01  1.00800000E+00
  1.00800000E+00  1.00800000E+00  1.20100000E+01  1.00800000E+00  1.00800000E+00
  1.20100000E+01  1.00800000E+00  1.00800000E+00  1.20100000E+01  1.00800000E+00
  1.00800000E+00  1.20100000E+01  1.00800000E+00  1.00800000E+00  1.00800000E+00
  1.00800000E+00  1.20100000E+01  1.20100000E+01  1.00800000E+00  1.00800000E+00
  1.00800000E+00  1.20100000E+01  1.00800000E+00  1.00800000E+00  1.00800000E+00
  1.00800000E+00  3.20600000E+01  1.20100000E+01  1.20100000E+01  1.20100000E+01
  1.20100000E+01  1.20100000E+01  1.20100000E+01  1.20100000E+01  1.20100000E+01
  3.20600000E+01  1.20100000E+01  1.00800000E+00  1.20100000E+01  1.20100000E+01
  1.00800000E+00  1.20100000E+01  1.20100000E+01  1.20100000E+01  1.00800000E+00
  1.20100000E+01  1.00800000E+00  1.00800000E+00  1.00800000E+00  1.20100000E+01
  1.20100000E+01  1.20100000E+01  1.20100000E+01  1.00800000E+00  1.20100000E+01
  1.00800000E+00  1.20100000E+01  1.00800000E+00  1.00800000E+00  1.20100000E+01
  1.00800000E+00  1.00800000E+00  1.20100000E+01  1.00800000E+00  1.00800000E+00
  1.00800000E+00  1.20100000E+01  1.00800000E+00  1.00800000E+00  1.20100000E+01
  1.00800000E+00  1.00800000E+00  1.20100000E+01  1.00800000E+00  1.00800000E+00
  1.20100000E+01  1.00800000E+00  1.00800000E+00  1.00800000E+00  1.00800000E+00
  1.20100000E+01  1.20100000E+01  1.00800000E+00  1.00800000E+00  1.00800000E+00
  1.20100000E+01  1.00800000E+00  1.00800000E+00  1.00800000E+00  1.00800000E+00
  3.20600000E+01  1.20100000E+01  1.20100000E+01  1.20100000E+01  1.20100000E+01
  1.20100000E+01  1.20100000E+01  1.20100000E+01  1.20100000E+01  3.20600000E+01
  1.20100000E+01  1.00800000E+00  1.20100000E+01  1.20100000E+01  1.00800000E+00
  1.20100000E+01  1.20100000E+01  1.20100000E+01  1.00800000E+00  1.20100000E+01
  1.00800000E+00  1.00800000E+00  1.00800000E+00  1.20100000E+01  1.20100000E+01
  1.20100000E+01  1.20100000E+01  1.00800000E+00  1.20100000E+01  1.00800000E+00
  1.20100000E+01  1.00800000E+00  1.00800000E+00  1.20100000E+01  1.00800000E+00
  1.00800000E+00  1.20100000E+01  1.00800000E+00  1.00800000E+00  1.00800000E+00
  1.20100000E+01  1.00800000E+00  1.00800000E+00  1.20100000E+01  1.00800000E+00
  1.00800000E+00  1.20100000E+01  1.00800000E+00  1.00800000E+00  1.20100000E+01
  1.00800000E+00  1.00800000E+00  1.00800000E+00  1.00800000E+00  1.20100000E+01
  1.20100000E+01  1.00800000E+00  1.00800000E+00  1.00800000E+00  1.20100000E+01
  1.00800000E+00  1.00800000E+00  1.00800000E+00  1.00800000E+00  3.20600000E+01
  1.20100000E+01  1.20100000E+01  1.20100000E+01  1.20100000E+01  1.20100000E+01
  1.20100000E+01  1.20100000E+01  1.20100000E+01  3.20600000E+01  1.20100000E+01
  1.00800000E+00  1.20100000E+01  1.20100000E+01  1.00800000E+00  1.20100000E+01
  1.20100000E+01  1.20100000E+01  1.00800000E+00  1.20100000E+01  1.00800000E+00
  1.00800000E+00  1.00800000E+00  1.20100000E+01  1.20100000E+01  1.20100000E+01
  1.20100000E+01  1.00800000E+00  1.20100000E+01  1.00800000E+00  1.20100000E+01
  1.00800000E+00  1.00800000E+00  1.20100000E+01  1.00800000E+00  1.00800000E+00
  1.20100000E+01  1.00800000E+00  1.00800000E+00  1.00800000E+00  1.20100000E+01
  1.00800000E+00  1.00800000E+00  1.20100000E+01  1.00800000E+00  1.00800000E+00
  1.20100000E+01  1.00800000E+00  1.00800000E+00  1.20100000E+01  1.00800000E+00
  1.00800000E+00  1.00800000E+00  1.00800000E+00  1.20100000E+01  1.20100000E+01
  1.00800000E+00  1.00800000E+00  1.00800000E+00  1.20100000E+01  1.00800000E+00
  1.00800000E+00  1.00800000E+00  1.00800000E+00  3.20600000E+01  1.20100000E+01
  1.20100000E+01  1.20100000E+01  1.20100000E+01  1.20100000E+01  1.20100000E+01
  1.20100000E+01  1.20100000E+01  3.20600000E+01  1.20100000E+01  1.00800000E+00
  1.20100000E+01  1.20100000E+01  1.00800000E+00  1.20100000E+01  1.20100000E+01
  1.20100000E+01  1.00800000E+00  1.20100000E+01  1.00800000E+00  1.00800000E+00
  1.00800000E+00  1.20100000E+01  1.20100000E+01  1.20100000E+01  1.20100000E+01
  1.00800000E+00  1.20100000E+01  1.00800000E+00  1.20100000E+01  1.00800000E+00
  1.00800000E+00  1.20100000E+01  1.00800000E+00  1.00800000E+00  1.20100000E+01
  1.00800000E+00  1.00800000E+00  1.00800000E+00  1.20100000E+01  1.00800000E+00
  1.00800000E+00  1.20100000E+01  1.00800000E+00  1.00800000E+00  1.20100000E+01
  1.00800000E+00  1.00800000E+00  1.20100000E+01  1.00800000E+00  1.00800000E+00
  1.00800000E+00  1.00800000E+00  1.20100000E+01  1.20100000E+01  1.00800000E+00
  1.00800000E+00  1.00800000E+00  1.20100000E+01  1.00800000E+00  1.00800000E+00
  1.00800000E+00  1.00800000E+00  3.20600000E+01  1.20100000E+01  1.20100000E+01
  1.20100000E+01  1.20100000E+01  1.20100000E+01  1.20100000E+01  1.20100000E+01
  1.20100000E+01  3.20600000E+01  1.20100000E+01  1.00800000E+00  1.20100000E+01
  1.20100000E+01  1.00800000E+00  1.20100000E+01  1.20100000E+01  1.20100000E+01
  1.00800000E+00  1.20100000E+01  1.00800000E+00  1.00800000E+00  1.00800000E+00
  1.20100000E+01  1.20100000E+01  1.20100000E+01  1.20100000E+01  1.00800000E+00
  1.20100000E+01  1.00800000E+00  1.20100000E+01  1.00800000E+00  1.00800000E+00
  1.20100000E+01  1.00800000E+00  1.00800000E+00  1.20100000E+01  1.00800000E+00
  1.00800000E+00  1.00800000E+00  1.20100000E+01  1.00800000E+00  1.00800000E+00
  1.20100000E+01  1.00800000E+00  1.00800000E+00  1.20100000E+01  1.00800000E+00
  1.00800000E+00  1.20100000E+01  1.00800000E+00  1.00800000E+00  1.00800000E+00
  1.00800000E+00  1.20100000E+01  1.20100000E+01  1.00800000E+00  1.00800000E+00
  1.00800000E+00  1.20100000E+01  1.00800000E+00  1.00800000E+00  1.00800000E+00
  1.00800000E+00  3.20600000E+01  1.20100000E+01  1.20100000E+01  1.20100000E+01
  1.20100000E+01  1.20100000E+01  1.20100000E+01  1.20100000E+01  1.20100000E+01
  3.20600000E+01  1.20100000E+01  1.00800000E+00  1.20100000E+01  1.20100000E+01
  1.00800000E+00  1.20100000E+01  1.20100000E+01  1.20100000E+01  1.00800000E+00
  1.20100000E+01  1.00800000E+00  1.00800000E+00  1.00800000E+00  1.20100000E+01
  1.20100000E+01  1.20100000E+01  1.20100000E+01  1.00800000E+00  1.20100000E+01
  1.00800000E+00  1.20100000E+01  1.00800000E+00  1.00800000E+00  1.20100000E+01
  1.00800000E+00  1.00800000E+00  1.20100000E+01  1.00800000E+00  1.00800000E+00
  1.00800000E+00  1.20100000E+01  1.00800000E+00  1.00800000E+00  1.20100000E+01
  1.00800000E+00  1.00800000E+00  1.20100000E+01  1.00800000E+00  1.00800000E+00
  1.20100000E+01  1.00800000E+00  1.00800000E+00  1.00800000E+00  1.00800000E+00
  1.20100000E+01  1.20100000E+01  1.00800000E+00  1.00800000E+00  1.00800000E+00
  1.20100000E+01  1.00800000E+00  1.00800000E+00  1.00800000E+00  1.00800000E+00
  3.20600000E+01  1.20100000E+01  1.20100000E+01  1.20100000E+01  1.20100000E+01
  1.20100000E+01  1.20100000E+01  1.20100000E+01  1.20100000E+01  3.20600000E+01
  1.20100000E+01  1.00800000E+00  1.20100000E+01  1.20100000E+01  1.00800000E+00
  1.20100000E+01  1.20100000E+01  1.20100000E+01  1.00800000E+00  1.20100000E+01
  1.00800000E+00  1.00800000E+00  1.00800000E+00  1.20100000E+01  1.20100000E+01
  1.20100000E+01  1.20100000E+01  1.00800000E+00  1.20100000E+01  1.00800000E+00
  1.20100000E+01  1.00800000E+00  1.00800000E+00  1.20100000E+01  1.00800000E+00
  1.00800000E+00  1.20100000E+01  1.00800000E+00  1.00800000E+00  1.00800000E+00
  1.20100000E+01  1.00800000E+00  1.00800000E+00  1.20100000E+01  1.00800000E+00
  1.00800000E+00  1.20100000E+01  1.00800000E+00  1.00800000E+00  1.20100000E+01
  1.00800000E+00  1.00800000E+00  1.00800000E+00  1.00800000E+00  1.20100000E+01
  1.20100000E+01  1.00800000E+00  1.00800000E+00  1.00800000E+00  1.20100000E+01
  1.00800000E+00  1.00800000E+00  1.00800000E+00  1.00800000E+00  3.20600000E+01
  1.20100000E+01  1.20100000E+01  1.20100000E+01  1.20100000E+01  1.20100000E+01
  1.20100000E+01  1.20100000E+01  1.20100000E+01  3.20600000E+01  1.20100000E+01
  1.00800000E+00  1.20100000E+01  1.20100000E+01  1.00800000E+00  1.20100000E+01
  1.20100000E+01  1.20100000E+01  1.00800000E+00  1.20100000E+01  1.00800000E+00
  1.00800000E+00  1.00800000E+00  1.20100000E+01  1.20100000E+01  1.20100000E+01
  1.20100000E+01  1.00800000E+00  1.20100000E+01  1.00800000E+00  1.20100000E+01
  1.00800000E+00  1.00800000E+00  1.20100000E+01  1.00800000E+00  1.00800000E+00
  1.20100000E+01  1.00800000E+00  1.00800000E+00  1.00800000E+00  1.20100000E+01
  1.00800000E+00  1.00800000E+00  1.20100000E+01  1.00800000E+00  1.00800000E+00
  1.20100000E+01  1.00800000E+00  1.00800000E+00  1.20100000E+01  1.00800000E+00
  1.00800000E+00  1.00800000E+00  1.00800000E+00  1.20100000E+01  1.20100000E+01
  1.00800000E+00  1.00800000E+00  1.00800000E+00  1.20100000E+01  1.00800000E+00
  1.00800000E+00  1.00800000E+00  1.00800000E+00  3.20600000E+01  1.20100000E+01
  1.20100000E+01  1.20100000E+01  1.20100000E+01  1.20100000E+01  1.20100000E+01
  1.20100000E+01  1.20100000E+01  3.20600000E+01  1.20100000E+01  1.00800000E+00
  1.20100000E+01  1.20100000E+01  1.00800000E+00  1.20100000E+01  1.20100000E+01
  1.20100000E+01  1.00800000E+00  1.20100000E+01  1.00800000E+00  1.00800000E+00
  1.00800000E+00  1.20100000E+01  1.20100000E+01  1.20100000E+01  1.20100000E+01
  1.00800000E+00  1.20100000E+01  1.00800000E+00  1.20100000E+01  1.00800000E+00
  1.00800000E+00  1.20100000E+01  1.00800000E+00  1.00800000E+00  1.20100000E+01
  1.00800000E+00  1.00800000E+00  1.00800000E+00  1.20100000E+01  1.00800000E+00
  1.00800000E+00  1.20100000E+01  1.00800000E+00  1.00800000E+00  1.20100000E+01
  1.00800000E+00  1.00800000E+00  1.20100000E+01  1.00800000E+00  1.00800000E+00
  1.00800000E+00  1.00800000E+00  1.20100000E+01  1.20100000E+01  1.00800000E+00
  1.00800000E+00  1.00800000E+00  1.20100000E+01  1.00800000E+00  1.00800000E+00
  1.00800000E+00  1.00800000E+00  3.20600000E+01  1.20100000E+01  1.20100000E+01
  1.20100000E+01  1.20100000E+01  1.20100000E+01  1.20100000E+01  1.20100000E+01
  1.20100000E+01  3.20600000E+01  1.20100000E+01  1.00800000E+00  1.20100000E+01
  1.20100000E+01  1.00800000E+00  1.20100000E+01  1.20100000E+01  1.20100000E+01
  1.00800000E+00  1.20100000E+01  1.00800000E+00  1.00800000E+00  1.00800000E+00
  1.20100000E+01  1.20100000E+01  1.20100000E+01  1.20100000E+01  1.00800000E+00
  1.20100000E+01  1.00800000E+00  1.20100000E+01  1.00800000E+00  1.00800000E+00
  1.20100000E+01  1.00800000E+00  1.00800000E+00  1.20100000E+01  1.00800000E+00
  1.00800000E+00  1.00800000E+00  1.20100000E+01  1.00800000E+00  1.00800000E+00
  1.20100000E+01  1.00800000E+00  1.00800000E+00  1.20100000E+01  1.00800000E+00
  1.00800000E+00  1.20100000E+01  1.00800000E+00  1.00800000E+00  1.00800000E+00
  1.00800000E+00  1.20100000E+01  1.20100000E+01  1.00800000E+00  1.00800000E+00
  1.00800000E+00  1.20100000E+01  1.00800000E+00  1.00800000E+00  1.00800000E+00
  1.00800000E+00  3.20600000E+01  1.20100000E+01  1.20100000E+01  1.20100000E+01
  1.20100000E+01  1.20100000E+01  1.20100000E+01  1.20100000E+01  1.20100000E+01
  3.20600000E+01  1.20100000E+01  1.00800000E+00  1.20100000E+01  1.20100000E+01
  1.00800000E+00  1.20100000E+01  1.20100000E+01  1.20100000E+01  1.00800000E+00
  1.20100000E+01  1.00800000E+00  1.00800000E+00  1.00800000E+00  1.20100000E+01
  1.20100000E+01  1.20100000E+01  1.20100000E+01  1.00800000E+00  1.20100000E+01
  1.00800000E+00  1.20100000E+01  1.00800000E+00  1.00800000E+00  1.20100000E+01
  1.00800000E+00  1.00800000E+00  1.20100000E+01  1.00800000E+00  1.00800000E+00
  1.00800000E+00  1.20100000E+01  1.00800000E+00  1.00800000E+00  1.20100000E+01
  1.00800000E+00  1.00800000E+00  1.20100000E+01  1.00800000E+00  1.00800000E+00
  1.20100000E+01  1.00800000E+00  1.00800000E+00  1.00800000E+00  1.00800000E+00
  1.20100000E+01  1.20100000E+01  1.00800000E+00  1.00800000E+00  1.00800000E+00
  1.20100000E+01  1.00800000E+00  1.00800000E+00  1.00800000E+00  1.00800000E+00
  3.20600000E+01  1.20100000E+01  1.20100000E+01  1.20100000E+01  1.20100000E+01
  1.20100000E+01  1.20100000E+01  1.20100000E+01  1.20100000E+01  3.20600000E+01
  1.20100000E+01  1.00800000E+00  1.20100000E+01  1.20100000E+01  1.00800000E+00
  1.20100000E+01  1.20100000E+01  1.20100000E+01  1.00800000E+00  1.20100000E+01
  1.00800000E+00  1.00800000E+00  1.00800000E+00  1.20100000E+01  1.20100000E+01
  1.20100000E+01  1.20100000E+01  1.00800000E+00  1.20100000E+01  1.00800000E+00
  1.20100000E+01  1.00800000E+00  1.00800000E+00  1.20100000E+01  1.00800000E+00
  1.00800000E+00  1.20100000E+01  1.00800000E+00  1.00800000E+00  1.00800000E+00
  1.20100000E+01  1.00800000E+00  1.00800000E+00  1.20100000E+01  1.00800000E+00
  1.00800000E+00  1.20100000E+01  1.00800000E+00  1.00800000E+00  1.20100000E+01
  1.00800000E+00  1.00800000E+00  1.00800000E+00  1.00800000E+00  1.20100000E+01
  1.20100000E+01  1.00800000E+00  1.00800000E+00  1.00800000E+00  1.20100000E+01
  1.00800000E+00  1.00800000E+00  1.00800000E+00  1.00800000E+00  3.20600000E+01
  1.20100000E+01  1.20100000E+01  1.20100000E+01  1.20100000E+01  1.20100000E+01
  1.20100000E+01  1.20100000E+01  1.20100000E+01  3.20600000E+01  1.20100000E+01
  1.00800000E+00  1.20100000E+01  1.20100000E+01  1.00800000E+00  1.20100000E+01
  1.20100000E+01  1.20100000E+01  1.00800000E+00  1.20100000E+01  1.00800000E+00
  1.00800000E+00  1.00800000E+00  1.20100000E+01  1.20100000E+01  1.20100000E+01
  1.20100000E+01  1.00800000E+00  1.20100000E+01  1.00800000E+00  1.20100000E+01
  1.00800000E+00  1.00800000E+00  1.20100000E+01  1.00800000E+00  1.00800000E+00
  1.20100000E+01  1.00800000E+00  1.00800000E+00  1.00800000E+00  1.20100000E+01
  1.00800000E+00  1.00800000E+00  1.20100000E+01  1.00800000E+00  1.00800000E+00
  1.20100000E+01  1.00800000E+00  1.00800000E+00  1.20100000E+01  1.00800000E+00
  1.00800000E+00  1.00800000E+00  1.00800000E+00  1.20100000E+01  1.20100000E+01
  1.00800000E+00  1.00800000E+00  1.00800000E+00  1.20100000E+01  1.00800000E+00
  1.00800000E+00  1.00800000E+00  1.00800000E+00  3.20600000E+01  1.20100000E+01
  1.20100000E+01  1.20100000E+01  1.20100000E+01  1.20100000E+01  1.20100000E+01
  1.20100000E+01  1.20100000E+01  3.20600000E+01  1.20100000E+01  1.00800000E+00
  1.20100000E+01  1.20100000E+01  1.00800000E+00  1.20100000E+01  1.20100000E+01
  1.20100000E+01  1.00800000E+00  1.20100000E+01  1.00800000E+00  1.00800000E+00
  1.00800000E+00  1.20100000E+01  1.20100000E+01  1.20100000E+01  1.20100000E+01
  1.00800000E+00  1.20100000E+01  1.00800000E+00  1.20100000E+01  1.00800000E+00
  1.00800000E+00  1.20100000E+01  1.00800000E+00  1.00800000E+00  1.20100000E+01
  1.00800000E+00  1.00800000E+00  1.00800000E+00  1.20100000E+01  1.00800000E+00
  1.00800000E+00  1.20100000E+01  1.00800000E+00  1.00800000E+00  1.20100000E+01
  1.00800000E+00  1.00800000E+00  1.20100000E+01  1.00800000E+00  1.00800000E+00
  1.00800000E+00  1.00800000E+00  1.20100000E+01  1.20100000E+01  1.00800000E+00
  1.00800000E+00  1.00800000E+00  1.20100000E+01  1.00800000E+00  1.00800000E+00
  1.00800000E+00  1.00800000E+00  3.20600000E+01  1.20100000E+01  1.20100000E+01
  1.20100000E+01  1.20100000E+01  1.20100000E+01  1.20100000E+01  1.20100000E+01
  1.20100000E+01  3.20600000E+01  1.20100000E+01  1.00800000E+00  1.20100000E+01
  1.20100000E+01  1.00800000E+00  1.20100000E+01  1.20100000E+01  1.20100000E+01
  1.00800000E+00  1.20100000E+01  1.00800000E+00  1.00800000E+00  1.00800000E+00
  1.20100000E+01  1.20100000E+01  1.20100000E+01  1.20100000E+01  1.00800000E+00
  1.20100000E+01  1.00800000E+00  1.20100000E+01  1.00800000E+00  1.00800000E+00
  1.20100000E+01  1.00800000E+00  1.00800000E+00  1.20100000E+01  1.00800000E+00
  1.00800000E+00  1.00800000E+00  1.20100000E+01  1.00800000E+00  1.00800000E+00
  1.20100000E+01  1.00800000E+00  1.00800000E+00  1.20100000E+01  1.00800000E+00
  1.00800000E+00  1.20100000E+01  1.00800000E+00  1.00800000E+00  1.00800000E+00
  1.00800000E+00  1.20100000E+01  1.20100000E+01  1.00800000E+00  1.00800000E+00
  1.00800000E+00  1.20100000E+01  1.00800000E+00  1.00800000E+00  1.00800000E+00
  1.00800000E+00  3.20600000E+01  1.20100000E+01  1.20100000E+01  1.20100000E+01
  1.20100000E+01  1.20100000E+01  1.20100000E+01  1.20100000E+01  1.20100000E+01
  3.20600000E+01  1.20100000E+01  1.00800000E+00  1.20100000E+01  1.20100000E+01
  1.00800000E+00  1.20100000E+01  1.20100000E+01  1.20100000E+01  1.00800000E+00
  1.20100000E+01  1.00800000E+00  1.00800000E+00  1.00800000E+00  1.20100000E+01
  1.20100000E+01  1.20100000E+01  1.20100000E+01  1.00800000E+00  1.20100000E+01
  1.00800000E+00  1.20100000E+01  1.00800000E+00  1.00800000E+00  1.20100000E+01
  1.00800000E+00  1.00800000E+00  1.20100000E+01  1.00800000E+00  1.00800000E+00
  1.00800000E+00  1.20100000E+01  1.00800000E+00  1.00800000E+00  1.20100000E+01
  1.00800000E+00  1.00800000E+00  1.20100000E+01  1.00800000E+00  1.00800000E+00
  1.20100000E+01  1.00800000E+00  1.00800000E+00  1.00800000E+00  1.00800000E+00
  1.20100000E+01  1.20100000E+01  1.00800000E+00  1.00800000E+00  1.00800000E+00
  1.20100000E+01  1.00800000E+00  1.00800000E+00  1.00800000E+00  1.00800000E+00
  3.20600000E+01  1.20100000E+01  1.20100000E+01  1.20100000E+01  1.20100000E+01
  1.20100000E+01  1.20100000E+01  1.20100000E+01  1.20100000E+01  3.20600000E+01
  1.20100000E+01  1.00800000E+00  1.20100000E+01  1.20100000E+01  1.00800000E+00
  1.20100000E+01  1.20100000E+01  1.20100000E+01  1.00800000E+00  1.20100000E+01
  1.00800000E+00  1.00800000E+00  1.00800000E+00  1.20100000E+01  1.20100000E+01
  1.20100000E+01  1.20100000E+01  1.00800000E+00  1.20100000E+01  1.00800000E+00
  1.20100000E+01  1.00800000E+00  1.00800000E+00  1.20100000E+01  1.00800000E+00
  1.00800000E+00  1.20100000E+01  1.00800000E+00  1.00800000E+00  1.00800000E+00
  1.20100000E+01  1.00800000E+00  1.00800000E+00  1.20100000E+01  1.00800000E+00
  1.00800000E+00  1.20100000E+01  1.00800000E+00  1.00800000E+00  1.20100000E+01
  1.00800000E+00  1.00800000E+00  1.00800000E+00  1.00800000E+00  1.20100000E+01
  1.20100000E+01  1.00800000E+00  1.00800000E+00  1.00800000E+00  1.20100000E+01
  1.00800000E+00  1.00800000E+00  1.00800000E+00  1.00800000E+00  3.20600000E+01
  1.20100000E+01  1.20100000E+01  1.20100000E+01  1.20100000E+01  1.20100000E+01
  1.20100000E+01  1.20100000E+01  1.20100000E+01  3.20600000E+01  1.20100000E+01
  1.00800000E+00  1.20100000E+01  1.20100000E+01  1.00800000E+00  1.20100000E+01
  1.20100000E+01  1.20100000E+01  1.00800000E+00  1.20100000E+01  1.00800000E+00
  1.00800000E+00  1.00800000E+00  1.20100000E+01  1.20100000E+01  1.20100000E+01
  1.20100000E+01  1.00800000E+00  1.20100000E+01  1.00800000E+00  1.20100000E+01
  1.00800000E+00  1.00800000E+00  1.20100000E+01  1.00800000E+00  1.00800000E+00
  1.20100000E+01  1.00800000E+00  1.00800000E+00  1.00800000E+00  1.20100000E+01
  1.00800000E+00  1.00800000E+00  1.20100000E+01  1.00800000E+00  1.00800000E+00
  1.20100000E+01  1.00800000E+00  1.00800000E+00  1.20100000E+01  1.00800000E+00
  1.00800000E+00  1.00800000E+00  1.00800000E+00  1.20100000E+01  1.20100000E+01
  1.00800000E+00  1.00800000E+00  1.00800000E+00  1.20100000E+01  1.00800000E+00
  1.00800000E+00  1.00800000E+00  1.00800000E+00  3.20600000E+01  1.20100000E+01
  1.20100000E+01  1.20100000E+01  1.20100000E+01  1.20100000E+01  1.20100000E+01
  1.20100000E+01  1.20100000E+01  3.20600000E+01  1.20100000E+01  1.00800000E+00
  1.20100000E+01  1.20100000E+01  1.00800000E+00  1.20100000E+01  1.20100000E+01
  1.20100000E+01  1.00800000E+00  1.20100000E+01  1.00800000E+00  1.00800000E+00
  1.00800000E+00  1.20100000E+01  1.20100000E+01  1.20100000E+01  1.20100000E+01
  1.00800000E+00  1.20100000E+01  1.00800000E+00  1.20100000E+01  1.00800000E+00
  1.00800000E+00  1.20100000E+01  1.00800000E+00  1.00800000E+00  1.20100000E+01
  1.00800000E+00  1.00800000E+00  1.00800000E+00  1.20100000E+01  1.00800000E+00
  1.00800000E+00  1.20100000E+01  1.00800000E+00  1.00800000E+00  1.20100000E+01
  1.00800000E+00  1.00800000E+00  1.20100000E+01  1.00800000E+00  1.00800000E+00
  1.00800000E+00  1.00800000E+00  1.20100000E+01  1.20100000E+01  1.00800000E+00
  1.00800000E+00  1.00800000E+00  1.20100000E+01  1.00800000E+00  1.00800000E+00
  1.00800000E+00  1.00800000E+00  3.20600000E+01  1.20100000E+01  1.20100000E+01
  1.20100000E+01  1.20100000E+01  1.20100000E+01  1.20100000E+01  1.20100000E+01
  1.20100000E+01  3.20600000E+01  1.20100000E+01  1.00800000E+00  1.20100000E+01
  1.20100000E+01  1.00800000E+00  1.20100000E+01  1.20100000E+01  1.20100000E+01
  1.00800000E+00  1.20100000E+01  1.00800000E+00  1.00800000E+00  1.00800000E+00
  1.20100000E+01  1.20100000E+01  1.20100000E+01  1.20100000E+01  1.00800000E+00
  1.20100000E+01  1.00800000E+00  1.20100000E+01  1.00800000E+00  1.00800000E+00
  1.20100000E+01  1.00800000E+00  1.00800000E+00  1.20100000E+01  1.00800000E+00
  1.00800000E+00  1.00800000E+00  1.20100000E+01  1.00800000E+00  1.00800000E+00
  1.20100000E+01  1.00800000E+00  1.00800000E+00  1.20100000E+01  1.00800000E+00
  1.00800000E+00  1.20100000E+01  1.00800000E+00  1.00800000E+00  1.00800000E+00
  1.00800000E+00  1.20100000E+01  1.20100000E+01  1.00800000E+00  1.00800000E+00
  1.00800000E+00  1.20100000E+01  1.00800000E+00  1.00800000E+00  1.00800000E+00
  1.00800000E+00  3.20600000E+01  1.20100000E+01  1.20100000E+01  1.20100000E+01
  1.20100000E+01  1.20100000E+01  1.20100000E+01  1.20100000E+01  1.20100000E+01
  3.20600000E+01  1.20100000E+01  1.00800000E+00  1.20100000E+01  1.20100000E+01
  1.00800000E+00  1.20100000E+01  1.20100000E+01  1.20100000E+01  1.00800000E+00
  1.20100000E+01  1.00800000E+00  1.00800000E+00  1.00800000E+00  1.20100000E+01
  1.20100000E+01  1.20100000E+01  1.20100000E+01  1.00800000E+00  1.20100000E+01
  1.00800000E+00  1.20100000E+01  1.00800000E+00  1.00800000E+00  1.20100000E+01
  1.00800000E+00  1.00800000E+00  1.20100000E+01  1.00800000E+00  1.00800000E+00
  1.00800000E+00  1.20100000E+01  1.00800000E+00  1.00800000E+00  1.20100000E+01
  1.00800000E+00  1.00800000E+00  1.20100000E+01  1.00800000E+00  1.00800000E+00
  1.20100000E+01  1.00800000E+00  1.00800000E+00  1.00800000E+00  1.00800000E+00
  1.20100000E+01  1.20100000E+01  1.00800000E+00  1.00800000E+00  1.00800000E+00
  1.20100000E+01  1.00800000E+00  1.00800000E+00  1.00800000E+00  1.00800000E+00
  3.20600000E+01  1.20100000E+01  1.20100000E+01  1.20100000E+01  1.20100000E+01
  1.20100000E+01  1.20100000E+01  1.20100000E+01  1.20100000E+01  3.20600000E+01
  1.20100000E+01  1.00800000E+00  1.20100000E+01  1.20100000E+01  1.00800000E+00
  1.20100000E+01  1.20100000E+01  1.20100000E+01  1.00800000E+00  1.20100000E+01
  1.00800000E+00  1.00800000E+00  1.00800000E+00  1.20100000E+01  1.20100000E+01
  1.20100000E+01  1.20100000E+01  1.00800000E+00  1.20100000E+01  1.00800000E+00
  1.20100000E+01  1.00800000E+00  1.00800000E+00  1.20100000E+01  1.00800000E+00
  1.00800000E+00  1.20100000E+01  1.00800000E+00  1.00800000E+00  1.00800000E+00
  1.20100000E+01  1.00800000E+00  1.00800000E+00  1.20100000E+01  1.00800000E+00
  1.00800000E+00  1.20100000E+01  1.00800000E+00  1.00800000E+00  1.20100000E+01
  1.00800000E+00  1.00800000E+00  1.00800000E+00  1.00800000E+00  1.20100000E+01
  1.20100000E+01  1.00800000E+00  1.00800000E+00  1.00800000E+00  1.20100000E+01
  1.00800000E+00  1.00800000E+00  1.00800000E+00  1.00800000E+00  3.20600000E+01
  1.20100000E+01  1.20100000E+01  1.20100000E+01  1.20100000E+01  1.20100000E+01
  1.20100000E+01  1.20100000E+01  1.20100000E+01  3.20600000E+01  1.20100000E+01
  1.00800000E+00  1.20100000E+01  1.20100000E+01  1.00800000E+00  1.20100000E+01
  1.20100000E+01  1.20100000E+01  1.00800000E+00  1.20100000E+01  1.00800000E+00
  1.00800000E+00  1.00800000E+00  1.20100000E+01  1.20100000E+01  1.20100000E+01
  1.20100000E+01  1.00800000E+00  1.20100000E+01  1.00800000E+00  1.20100000E+01
  1.00800000E+00  1.00800000E+00  1.20100000E+01  1.00800000E+00  1.00800000E+00
  1.20100000E+01  1.00800000E+00  1.00800000E+00  1.00800000E+00  1.20100000E+01
  1.00800000E+00  1.00800000E+00  1.20100000E+01  1.00800000E+00  1.00800000E+00
  1.20100000E+01  1.00800000E+00  1.00800000E+00  1.20100000E+01  1.00800000E+00
  1.00800000E+00  1.00800000E+00  1.00800000E+00  1.20100000E+01  1.20100000E+01
  1.00800000E+00  1.00800000E+00  1.00800000E+00  1.20100000E+01  1.00800000E+00
  1.00800000E+00  1.00800000E+00  1.00800000E+00  3.20600000E+01  1.20100000E+01
  1.20100000E+01  1.20100000E+01  1.20100000E+01  1.20100000E+01  1.20100000E+01
  1.20100000E+01  1.20100000E+01  3.20600000E+01  1.20100000E+01  1.00800000E+00
  1.20100000E+01  1.20100000E+01  1.00800000E+00  1.20100000E+01  1.20100000E+01
  1.20100000E+01  1.00800000E+00  1.20100000E+01  1.00800000E+00  1.00800000E+00
  1.00800000E+00  1.20100000E+01  1.20100000E+01  1.20100000E+01  1.20100000E+01
  1.00800000E+00  1.20100000E+01  1.00800000E+00  1.20100000E+01  1.00800000E+00
  1.00800000E+00  1.20100000E+01  1.00800000E+00  1.00800000E+00  1.20100000E+01
  1.00800000E+00  1.00800000E+00  1.00800000E+00  1.20100000E+01  1.00800000E+00
  1.00800000E+00  1.20100000E+01  1.00800000E+00  1.00800000E+00  1.20100000E+01
  1.00800000E+00  1.00800000E+00  1.20100000E+01  1.00800000E+00  1.00800000E+00
  1.00800000E+00  1.00800000E+00  1.20100000E+01  1.20100000E+01  1.00800000E+00
  1.00800000E+00  1.00800000E+00  1.20100000E+01  1.00800000E+00  1.00800000E+00
  1.00800000E+00  1.00800000E+00  3.20600000E+01  1.20100000E+01  1.20100000E+01
  1.20100000E+01  1.20100000E+01  1.20100000E+01  1.20100000E+01  1.20100000E+01
  1.20100000E+01  3.20600000E+01  1.20100000E+01  1.00800000E+00  1.20100000E+01
  1.20100000E+01  1.00800000E+00  1.20100000E+01  1.20100000E+01  1.20100000E+01
  1.00800000E+00  1.20100000E+01  1.00800000E+00  1.00800000E+00  1.00800000E+00
  1.20100000E+01  1.20100000E+01  1.20100000E+01  1.20100000E+01  1.00800000E+00
  1.20100000E+01  1.00800000E+00  1.20100000E+01  1.00800000E+00  1.00800000E+00
  1.20100000E+01  1.00800000E+00  1.00800000E+00  1.20100000E+01  1.00800000E+00
  1.00800000E+00  1.00800000E+00  1.20100000E+01  1.00800000E+00  1.00800000E+00
  1.20100000E+01  1.00800000E+00  1.00800000E+00  1.20100000E+01  1.00800000E+00
  1.00800000E+00  1.20100000E+01  1.00800000E+00  1.00800000E+00  1.00800000E+00
  1.00800000E+00  1.20100000E+01  1.20100000E+01  1.00800000E+00  1.00800000E+00
  1.00800000E+00  1.20100000E+01  1.00800000E+00  1.00800000E+00  1.00800000E+00
  1.00800000E+00  3.20600000E+01  1.20100000E+01  1.20100000E+01  1.20100000E+01
  1.20100000E+01  1.20100000E+01  1.20100000E+01  1.20100000E+01  1.20100000E+01
  3.20600000E+01  1.20100000E+01  1.00800000E+00  1.20100000E+01  1.20100000E+01
  1.00800000E+00  1.20100000E+01  1.20100000E+01  1.20100000E+01  1.00800000E+00
  1.20100000E+01  1.00800000E+00  1.00800000E+00  1.00800000E+00  1.20100000E+01
  1.20100000E+01  1.20100000E+01  1.20100000E+01  1.00800000E+00  1.20100000E+01
  1.00800000E+00  1.20100000E+01  1.00800000E+00  1.00800000E+00  1.20100000E+01
  1.00800000E+00  1.00800000E+00  1.20100000E+01  1.00800000E+00  1.00800000E+00
  1.00800000E+00  1.20100000E+01  1.00800000E+00  1.00800000E+00  1.20100000E+01
  1.00800000E+00  1.00800000E+00  1.20100000E+01  1.00800000E+00  1.00800000E+00
  1.20100000E+01  1.00800000E+00  1.00800000E+00  1.00800000E+00  1.00800000E+00
  1.20100000E+01  1.20100000E+01  1.00800000E+00  1.00800000E+00  1.00800000E+00
  1.20100000E+01  1.00800000E+00  1.00800000E+00  1.00800000E+00  1.00800000E+00
  3.20600000E+01  1.20100000E+01  1.20100000E+01  1.20100000E+01  1.20100000E+01
  1.20100000E+01  1.20100000E+01  1.20100000E+01  1.20100000E+01  3.20600000E+01
  1.20100000E+01  1.00800000E+00  1.20100000E+01  1.20100000E+01  1.00800000E+00
  1.20100000E+01  1.20100000E+01  1.20100000E+01  1.00800000E+00  1.20100000E+01
  1.00800000E+00  1.00800000E+00  1.00800000E+00  1.20100000E+01  1.20100000E+01
  1.20100000E+01  1.20100000E+01  1.00800000E+00  1.20100000E+01  1.00800000E+00
  1.20100000E+01  1.00800000E+00  1.00800000E+00  1.20100000E+01  1.00800000E+00
  1.00800000E+00  1.20100000E+01  1.00800000E+00  1.00800000E+00  1.00800000E+00
  1.20100000E+01  1.00800000E+00  1.00800000E+00  1.20100000E+01  1.00800000E+00
  1.00800000E+00  1.20100000E+01  1.00800000E+00  1.00800000E+00  1.20100000E+01
  1.00800000E+00  1.00800000E+00  1.00800000E+00  1.00800000E+00  1.20100000E+01
  1.20100000E+01  1.00800000E+00  1.00800000E+00  1.00800000E+00  1.20100000E+01
  1.00800000E+00  1.00800000E+00  1.00800000E+00  1.00800000E+00  3.20600000E+01
  1.20100000E+01  1.20100000E+01  1.20100000E+01  1.20100000E+01  1.20100000E+01
  1.20100000E+01  1.20100000E+01  1.20100000E+01  3.20600000E+01  1.20100000E+01
  1.00800000E+00  1.20100000E+01  1.20100000E+01  1.00800000E+00  1.20100000E+01
  1.20100000E+01  1.20100000E+01  1.00800000E+00  1.20100000E+01  1.00800000E+00
  1.00800000E+00  1.00800000E+00  1.20100000E+01  1.20100000E+01  1.20100000E+01
  1.20100000E+01  1.00800000E+00  1.20100000E+01  1.00800000E+00  1.20100000E+01
  1.00800000E+00  1.00800000E+00  1.20100000E+01  1.00800000E+00  1.00800000E+00
  1.20100000E+01  1.00800000E+00  1.00800000E+00  1.00800000E+00  1.20100000E+01
  1.00800000E+00  1.00800000E+00  1.20100000E+01  1.00800000E+00  1.00800000E+00
  1.20100000E+01  1.00800000E+00  1.00800000E+00  1.20100000E+01  1.00800000E+00
  1.00800000E+00  1.00800000E+00  1.00800000E+00  1.20100000E+01  1.20100000E+01
  1.00800000E+00  1.00800000E+00  1.00800000E+00  1.20100000E+01  1.00800000E+00
  1.00800000E+00  1.00800000E+00  1.00800000E+00  3.20600000E+01  1.20100000E+01
  1.20100000E+01  1.20100000E+01  1.20100000E+01  1.20100000E+01  1.20100000E+01
  1.20100000E+01  1.20100000E+01  3.20600000E+01  1.20100000E+01  1.00800000E+00
  1.20100000E+01  1.20100000E+01  1.00800000E+00  1.20100000E+01  1.20100000E+01
  1.20100000E+01  1.00800000E+00  1.20100000E+01  1.00800000E+00  1.00800000E+00
  1.00800000E+00  1.20100000E+01  1.20100000E+01  1.20100000E+01  1.20100000E+01
  1.00800000E+00  1.20100000E+01  1.00800000E+00  1.20100000E+01  1.00800000E+00
  1.00800000E+00  1.20100000E+01  1.00800000E+00  1.00800000E+00  1.20100000E+01
  1.00800000E+00  1.00800000E+00  1.00800000E+00  1.20100000E+01  1.00800000E+00
  1.00800000E+00  1.20100000E+01  1.00800000E+00  1.00800000E+00  1.20100000E+01
  1.00800000E+00  1.00800000E+00  1.20100000E+01  1.00800000E+00  1.00800000E+00
  1.00800000E+00  1.00800000E+00  1.20100000E+01  1.20100000E+01  1.00800000E+00
  1.00800000E+00  1.00800000E+00  1.20100000E+01  1.00800000E+00  1.00800000E+00
  1.00800000E+00  1.00800000E+00  3.20600000E+01  1.20100000E+01  1.20100000E+01
  1.20100000E+01  1.20100000E+01  1.20100000E+01  1.20100000E+01  1.20100000E+01
  1.20100000E+01  3.20600000E+01  1.20100000E+01  1.00800000E+00  1.20100000E+01
  1.20100000E+01  1.00800000E+00  1.20100000E+01  1.20100000E+01  1.20100000E+01
  1.00800000E+00  1.20100000E+01  1.00800000E+00  1.00800000E+00  1.00800000E+00
  1.20100000E+01  1.20100000E+01  1.20100000E+01  1.20100000E+01  1.00800000E+00
  1.20100000E+01  1.00800000E+00  1.20100000E+01  1.00800000E+00  1.00800000E+00
  1.20100000E+01  1.00800000E+00  1.00800000E+00  1.20100000E+01  1.00800000E+00
  1.00800000E+00  1.00800000E+00  1.20100000E+01  1.00800000E+00  1.00800000E+00
  1.20100000E+01  1.00800000E+00  1.00800000E+00  1.20100000E+01  1.00800000E+00
  1.00800000E+00  1.20100000E+01  1.00800000E+00  1.00800000E+00  1.00800000E+00
  1.00800000E+00  1.20100000E+01  1.20100000E+01  1.00800000E+00  1.00800000E+00
  1.00800000E+00  1.20100000E+01  1.00800000E+00  1.00800000E+00  1.00800000E+00
  1.00800000E+00  3.20600000E+01  1.20100000E+01  1.20100000E+01  1.20100000E+01
  1.20100000E+01  1.20100000E+01  1.20100000E+01  1.20100000E+01  1.20100000E+01
  3.20600000E+01  1.20100000E+01  1.00800000E+00  1.20100000E+01  1.20100000E+01
  1.00800000E+00  1.20100000E+01  1.20100000E+01  1.20100000E+01  1.00800000E+00
  1.20100000E+01  1.00800000E+00  1.00800000E+00  1.00800000E+00  1.20100000E+01
  1.20100000E+01  1.20100000E+01  1.20100000E+01  1.00800000E+00  1.20100000E+01
  1.00800000E+00  1.20100000E+01  1.00800000E+00  1.00800000E+00  1.20100000E+01
  1.00800000E+00  1.00800000E+00  1.20100000E+01  1.00800000E+00  1.00800000E+00
  1.00800000E+00  1.20100000E+01  1.00800000E+00  1.00800000E+00  1.20100000E+01
  1.00800000E+00  1.00800000E+00  1.20100000E+01  1.00800000E+00  1.00800000E+00
  1.20100000E+01  1.00800000E+00  1.00800000E+00  1.00800000E+00  1.00800000E+00
  1.20100000E+01  1.20100000E+01  1.00800000E+00  1.00800000E+00  1.00800000E+00
  1.20100000E+01  1.00800000E+00  1.00800000E+00  1.00800000E+00  1.00800000E+00
  3.20600000E+01  1.20100000E+01  1.20100000E+01  1.20100000E+01  1.20100000E+01
  1.20100000E+01  1.20100000E+01  1.20100000E+01  1.20100000E+01  3.20600000E+01
  1.20100000E+01  1.00800000E+00  1.20100000E+01  1.20100000E+01  1.00800000E+00
  1.20100000E+01  1.20100000E+01  1.20100000E+01  1.00800000E+00  1.20100000E+01
  1.00800000E+00  1.00800000E+00  1.00800000E+00  1.20100000E+01  1.20100000E+01
  1.20100000E+01  1.20100000E+01  1.00800000E+00  1.20100000E+01  1.00800000E+00
  1.20100000E+01  1.00800000E+00  1.00800000E+00  1.20100000E+01  1.00800000E+00
  1.00800000E+00  1.20100000E+01  1.00800000E+00  1.00800000E+00  1.00800000E+00
  1.20100000E+01  1.00800000E+00  1.00800000E+00  1.20100000E+01  1.00800000E+00
  1.00800000E+00  1.20100000E+01  1.00800000E+00  1.00800000E+00  1.20100000E+01
  1.00800000E+00  1.00800000E+00  1.00800000E+00  1.00800000E+00  1.20100000E+01
  1.20100000E+01  1.00800000E+00  1.00800000E+00  1.00800000E+00  1.20100000E+01
  1.00800000E+00  1.00800000E+00  1.00800000E+00  1.00800000E+00  3.20600000E+01
  1.20100000E+01  1.20100000E+01  1.20100000E+01  1.20100000E+01  1.20100000E+01
  1.20100000E+01  1.20100000E+01  1.20100000E+01  3.20600000E+01  1.20100000E+01
  1.00800000E+00  1.20100000E+01  1.20100000E+01  1.00800000E+00  1.20100000E+01
  1.20100000E+01  1.20100000E+01  1.00800000E+00  1.20100000E+01  1.00800000E+00
  1.00800000E+00  1.00800000E+00  1.20100000E+01  1.20100000E+01  1.20100000E+01
  1.20100000E+01  1.00800000E+00  1.20100000E+01  1.00800000E+00  1.20100000E+01
  1.00800000E+00  1.00800000E+00  1.20100000E+01  1.00800000E+00  1.00800000E+00
  1.20100000E+01  1.00800000E+00  1.00800000E+00  1.00800000E+00  1.20100000E+01
  1.00800000E+00  1.00800000E+00  1.20100000E+01  1.00800000E+00  1.00800000E+00
  1.20100000E+01  1.00800000E+00  1.00800000E+00  1.20100000E+01  1.00800000E+00
  1.00800000E+00  1.00800000E+00  1.00800000E+00  1.20100000E+01  1.20100000E+01
  1.00800000E+00  1.00800000E+00  1.00800000E+00  1.20100000E+01  1.00800000E+00
  1.00800000E+00  1.00800000E+00  1.00800000E+00  3.20600000E+01  1.20100000E+01
  1.20100000E+01  1.20100000E+01  1.20100000E+01  1.20100000E+01  1.20100000E+01
  1.20100000E+01  1.20100000E+01  3.20600000E+01  1.20100000E+01  1.00800000E+00
  1.20100000E+01  1.20100000E+01  1.00800000E+00  1.20100000E+01  1.20100000E+01
  1.20100000E+01  1.00800000E+00  1.20100000E+01  1.00800000E+00  1.00800000E+00
  1.00800000E+00  1.20100000E+01  1.20100000E+01  1.20100000E+01  1.20100000E+01
  1.00800000E+00  1.20100000E+01  1.00800000E+00  1.20100000E+01  1.00800000E+00
  1.00800000E+00  1.20100000E+01  1.00800000E+00  1.00800000E+00  1.20100000E+01
  1.00800000E+00  1.00800000E+00  1.00800000E+00  1.20100000E+01  1.00800000E+00
  1.00800000E+00  1.20100000E+01  1.00800000E+00  1.00800000E+00  1.20100000E+01
  1.00800000E+00  1.00800000E+00  1.20100000E+01  1.00800000E+00  1.00800000E+00
  1.00800000E+00  1.00800000E+00  1.20100000E+01  1.20100000E+01  1.00800000E+00
  1.00800000E+00  1.00800000E+00  1.20100000E+01  1.00800000E+00  1.00800000E+00
  1.00800000E+00  1.00800000E+00  3.20600000E+01  1.20100000E+01  1.20100000E+01
  1.20100000E+01  1.20100000E+01  1.20100000E+01  1.20100000E+01  1.20100000E+01
  1.20100000E+01  3.20600000E+01  1.20100000E+01  1.00800000E+00  1.20100000E+01
  1.20100000E+01  1.00800000E+00  1.20100000E+01  1.20100000E+01  1.20100000E+01
  1.00800000E+00  1.20100000E+01  1.00800000E+00  1.00800000E+00  1.00800000E+00
  1.20100000E+01  1.20100000E+01  1.20100000E+01  1.20100000E+01  1.00800000E+00
  1.20100000E+01  1.00800000E+00  1.20100000E+01  1.00800000E+00  1.00800000E+00
  1.20100000E+01  1.00800000E+00  1.00800000E+00  1.20100000E+01  1.00800000E+00
  1.00800000E+00  1.00800000E+00  1.20100000E+01  1.00800000E+00  1.00800000E+00
  1.20100000E+01  1.00800000E+00  1.00800000E+00  1.20100000E+01  1.00800000E+00
  1.00800000E+00  1.20100000E+01  1.00800000E+00  1.00800000E+00  1.00800000E+00
  1.00800000E+00  1.20100000E+01  1.20100000E+01  1.00800000E+00  1.00800000E+00
  1.00800000E+00  1.20100000E+01  1.00800000E+00  1.00800000E+00  1.00800000E+00
  1.00800000E+00  3.20600000E+01  1.20100000E+01  1.20100000E+01  1.20100000E+01
  1.20100000E+01  1.20100000E+01  1.20100000E+01  1.20100000E+01  1.20100000E+01
  3.20600000E+01  1.20100000E+01  1.00800000E+00  1.20100000E+01  1.20100000E+01
  1.00800000E+00  1.20100000E+01  1.20100000E+01  1.20100000E+01  1.00800000E+00
  1.20100000E+01  1.00800000E+00  1.00800000E+00  1.00800000E+00  1.20100000E+01
  1.20100000E+01  1.20100000E+01  1.20100000E+01  1.00800000E+00  1.20100000E+01
  1.00800000E+00  1.20100000E+01  1.00800000E+00  1.00800000E+00  1.20100000E+01
  1.00800000E+00  1.00800000E+00  1.20100000E+01  1.00800000E+00  1.00800000E+00
  1.00800000E+00  1.20100000E+01  1.00800000E+00  1.00800000E+00  1.20100000E+01
  1.00800000E+00  1.00800000E+00  1.20100000E+01  1.00800000E+00  1.00800000E+00
  1.20100000E+01  1.00800000E+00  1.00800000E+00  1.00800000E+00  1.00800000E+00
  1.20100000E+01  1.20100000E+01  1.00800000E+00  1.00800000E+00  1.00800000E+00
  1.20100000E+01  1.00800000E+00  1.00800000E+00  1.00800000E+00  1.00800000E+00
  3.20600000E+01  1.20100000E+01  1.20100000E+01  1.20100000E+01  1.20100000E+01
  1.20100000E+01  1.20100000E+01  1.20100000E+01  1.20100000E+01  3.20600000E+01
  1.20100000E+01  1.00800000E+00  1.20100000E+01  1.20100000E+01  1.00800000E+00
  1.20100000E+01  1.20100000E+01  1.20100000E+01  1.00800000E+00  1.20100000E+01
  1.00800000E+00  1.00800000E+00  1.00800000E+00  1.20100000E+01  1.20100000E+01
  1.20100000E+01  1.20100000E+01  1.00800000E+00  1.20100000E+01  1.00800000E+00
  1.20100000E+01  1.00800000E+00  1.00800000E+00  1.20100000E+01  1.00800000E+00
  1.00800000E+00  1.20100000E+01  1.00800000E+00  1.00800000E+00  1.00800000E+00
  1.20100000E+01  1.00800000E+00  1.00800000E+00  1.20100000E+01  1.00800000E+00
  1.00800000E+00  1.20100000E+01  1.00800000E+00  1.00800000E+00  1.20100000E+01
  1.00800000E+00  1.00800000E+00  1.00800000E+00  1.00800000E+00  1.20100000E+01
  1.20100000E+01  1.00800000E+00  1.00800000E+00  1.00800000E+00  1.20100000E+01
  1.00800000E+00  1.00800000E+00  1.00800000E+00  1.00800000E+00  3.20600000E+01
  1.20100000E+01  1.20100000E+01  1.20100000E+01  1.20100000E+01  1.20100000E+01
  1.20100000E+01  1.20100000E+01  1.20100000E+01  3.20600000E+01  1.20100000E+01
  1.00800000E+00  1.20100000E+01  1.20100000E+01  1.00800000E+00  1.20100000E+01
  1.20100000E+01  1.20100000E+01  1.00800000E+00  1.20100000E+01  1.00800000E+00
  1.00800000E+00  1.00800000E+00  1.20100000E+01  1.20100000E+01  1.20100000E+01
  1.20100000E+01  1.00800000E+00  1.20100000E+01  1.00800000E+00  1.20100000E+01
  1.00800000E+00  1.00800000E+00  1.20100000E+01  1.00800000E+00  1.00800000E+00
  1.20100000E+01  1.00800000E+00  1.00800000E+00  1.00800000E+00  1.20100000E+01
  1.00800000E+00  1.00800000E+00  1.20100000E+01  1.00800000E+00  1.00800000E+00
  1.20100000E+01  1.00800000E+00  1.00800000E+00  1.20100000E+01  1.00800000E+00
  1.00800000E+00  1.00800000E+00  1.00800000E+00  1.20100000E+01  1.20100000E+01
  1.00800000E+00  1.00800000E+00  1.00800000E+00  1.20100000E+01  1.00800000E+00
  1.00800000E+00  1.00800000E+00  1.00800000E+00  3.20600000E+01  1.20100000E+01
  1.20100000E+01  1.20100000E+01  1.20100000E+01  1.20100000E+01  1.20100000E+01
  1.20100000E+01  1.20100000E+01  3.20600000E+01  1.20100000E+01  1.00800000E+00
  1.20100000E+01  1.20100000E+01  1.00800000E+00  1.20100000E+01  1.20100000E+01
  1.20100000E+01  1.00800000E+00  1.20100000E+01  1.00800000E+00  1.00800000E+00
  1.00800000E+00  1.20100000E+01  1.20100000E+01  1.20100000E+01  1.20100000E+01
  1.00800000E+00  1.20100000E+01  1.00800000E+00  1.20100000E+01  1.00800000E+00
  1.00800000E+00  1.20100000E+01  1.00800000E+00  1.00800000E+00  1.20100000E+01
  1.00800000E+00  1.00800000E+00  1.00800000E+00  1.20100000E+01  1.00800000E+00
  1.00800000E+00  1.20100000E+01  1.00800000E+00  1.00800000E+00  1.20100000E+01
  1.00800000E+00  1.00800000E+00  1.20100000E+01  1.00800000E+00  1.00800000E+00
  1.00800000E+00  1.00800000E+00  1.20100000E+01  1.20100000E+01  1.00800000E+00
  1.00800000E+00  1.00800000E+00  1.20100000E+01  1.00800000E+00  1.00800000E+00
  1.00800000E+00  1.00800000E+00  3.20600000E+01  1.20100000E+01  1.20100000E+01
  1.20100000E+01  1.20100000E+01  1.20100000E+01  1.20100000E+01  1.20100000E+01
  1.20100000E+01  3.20600000E+01  1.20100000E+01  1.00800000E+00  1.20100000E+01
  1.20100000E+01  1.00800000E+00  1.20100000E+01  1.20100000E+01  1.20100000E+01
  1.00800000E+00  1.20100000E+01  1.00800000E+00  1.00800000E+00  1.00800000E+00
  1.20100000E+01  1.20100000E+01  1.20100000E+01  1.20100000E+01  1.00800000E+00
  1.20100000E+01  1.00800000E+00  1.20100000E+01  1.00800000E+00  1.00800000E+00
  1.20100000E+01  1.00800000E+00  1.00800000E+00  1.20100000E+01  1.00800000E+00
  1.00800000E+00  1.00800000E+00  1.20100000E+01  1.00800000E+00  1.00800000E+00
  1.20100000E+01  1.00800000E+00  1.00800000E+00  1.20100000E+01  1.00800000E+00
  1.00800000E+00  1.20100000E+01  1.00800000E+00  1.00800000E+00  1.00800000E+00
  1.00800000E+00  1.20100000E+01  1.20100000E+01  1.00800000E+00  1.00800000E+00
  1.00800000E+00  1.20100000E+01  1.00800000E+00  1.00800000E+00  1.00800000E+00
  1.00800000E+00  3.20600000E+01  1.20100000E+01  1.20100000E+01  1.20100000E+01
  1.20100000E+01  1.20100000E+01  1.20100000E+01  1.20100000E+01  1.20100000E+01
  3.20600000E+01  1.20100000E+01  1.00800000E+00  1.20100000E+01  1.20100000E+01
  1.00800000E+00  1.20100000E+01  1.20100000E+01  1.20100000E+01  1.00800000E+00
  1.20100000E+01  1.00800000E+00  1.00800000E+00  1.00800000E+00  1.20100000E+01
  1.20100000E+01  1.20100000E+01  1.20100000E+01  1.00800000E+00  1.20100000E+01
  1.00800000E+00  1.20100000E+01  1.00800000E+00  1.00800000E+00  1.20100000E+01
  1.00800000E+00  1.00800000E+00  1.20100000E+01  1.00800000E+00  1.00800000E+00
  1.00800000E+00  1.20100000E+01  1.00800000E+00  1.00800000E+00  1.20100000E+01
  1.00800000E+00  1.00800000E+00  1.20100000E+01  1.00800000E+00  1.00800000E+00
  1.20100000E+01  1.00800000E+00  1.00800000E+00  1.00800000E+00  1.00800000E+00
  1.20100000E+01  1.20100000E+01  1.00800000E+00  1.00800000E+00  1.00800000E+00
  1.20100000E+01  1.00800000E+00  1.00800000E+00  1.00800000E+00  1.00800000E+00
  3.20600000E+01  1.20100000E+01  1.20100000E+01  1.20100000E+01  1.20100000E+01
  1.20100000E+01  1.20100000E+01  1.20100000E+01  1.20100000E+01  3.20600000E+01
  1.20100000E+01  1.00800000E+00  1.20100000E+01  1.20100000E+01  1.00800000E+00
  1.20100000E+01  1.20100000E+01  1.20100000E+01  1.00800000E+00  1.20100000E+01
  1.00800000E+00  1.00800000E+00  1.00800000E+00  1.20100000E+01  1.20100000E+01
  1.20100000E+01  1.20100000E+01  1.00800000E+00  1.20100000E+01  1.00800000E+00
  1.20100000E+01  1.00800000E+00  1.00800000E+00  1.20100000E+01  1.00800000E+00
  1.00800000E+00  1.20100000E+01  1.00800000E+00  1.00800000E+00  1.00800000E+00
  1.20100000E+01  1.00800000E+00  1.00800000E+00  1.20100000E+01  1.00800000E+00
  1.00800000E+00  1.20100000E+01  1.00800000E+00  1.00800000E+00  1.20100000E+01
  1.00800000E+00  1.00800000E+00  1.00800000E+00  1.00800000E+00  1.20100000E+01
  1.20100000E+01  1.00800000E+00  1.00800000E+00  1.00800000E+00  1.20100000E+01
  1.00800000E+00  1.00800000E+00  1.00800000E+00  1.00800000E+00  3.20600000E+01
  1.20100000E+01  1.20100000E+01  1.20100000E+01  1.20100000E+01  1.20100000E+01
  1.20100000E+01  1.20100000E+01  1.20100000E+01  3.20600000E+01  1.20100000E+01
  1.00800000E+00  1.20100000E+01  1.20100000E+01  1.00800000E+00  1.20100000E+01
  1.20100000E+01  1.20100000E+01  1.00800000E+00  1.20100000E+01  1.00800000E+00
  1.00800000E+00  1.00800000E+00  1.20100000E+01  1.20100000E+01  1.20100000E+01
  1.20100000E+01  1.00800000E+00  1.20100000E+01  1.00800000E+00  1.20100000E+01
  1.00800000E+00  1.00800000E+00  1.20100000E+01  1.00800000E+00  1.00800000E+00
  1.20100000E+01  1.00800000E+00  1.00800000E+00  1.00800000E+00  1.20100000E+01
  1.00800000E+00  1.00800000E+00  1.20100000E+01  1.00800000E+00  1.00800000E+00
  1.20100000E+01  1.00800000E+00  1.00800000E+00  1.20100000E+01  1.00800000E+00
  1.00800000E+00  1.00800000E+00  1.00800000E+00  1.20100000E+01  1.20100000E+01
  1.00800000E+00  1.00800000E+00  1.00800000E+00  1.20100000E+01  1.00800000E+00
  1.00800000E+00  1.00800000E+00  1.00800000E+00  3.20600000E+01  1.20100000E+01
  1.20100000E+01  1.20100000E+01  1.20100000E+01  1.20100000E+01  1.20100000E+01
  1.20100000E+01  1.20100000E+01  3.20600000E+01  1.20100000E+01  1.00800000E+00
  1.20100000E+01  1.20100000E+01  1.00800000E+00  1.20100000E+01  1.20100000E+01
  1.20100000E+01  1.00800000E+00  1.20100000E+01  1.00800000E+00  1.00800000E+00
  1.00800000E+00  1.20100000E+01  1.20100000E+01  1.20100000E+01  1.20100000E+01
  1.00800000E+00  1.20100000E+01  1.00800000E+00  1.20100000E+01  1.00800000E+00
  1.00800000E+00  1.20100000E+01  1.00800000E+00  1.00800000E+00  1.20100000E+01
  1.00800000E+00  1.00800000E+00  1.00800000E+00  1.20100000E+01  1.00800000E+00
  1.00800000E+00  1.20100000E+01  1.00800000E+00  1.00800000E+00  1.20100000E+01
  1.00800000E+00  1.00800000E+00  1.20100000E+01  1.00800000E+00  1.00800000E+00
  1.00800000E+00  1.00800000E+00  1.20100000E+01  1.20100000E+01  1.00800000E+00
  1.00800000E+00  1.00800000E+00  1.20100000E+01  1.00800000E+00  1.00800000E+00
  1.00800000E+00  1.00800000E+00  3.20600000E+01  1.20100000E+01  1.20100000E+01
  1.20100000E+01  1.20100000E+01  1.20100000E+01  1.20100000E+01  1.20100000E+01
  1.20100000E+01  3.20600000E+01  1.20100000E+01  1.00800000E+00  1.20100000E+01
  1.20100000E+01  1.00800000E+00  1.20100000E+01  1.20100000E+01  1.20100000E+01
  1.00800000E+00  1.20100000E+01  1.00800000E+00  1.00800000E+00  1.00800000E+00
  1.20100000E+01  1.20100000E+01  1.20100000E+01  1.20100000E+01  1.00800000E+00
  1.20100000E+01  1.00800000E+00  1.20100000E+01  1.00800000E+00  1.00800000E+00
  1.20100000E+01  1.00800000E+00  1.00800000E+00  1.20100000E+01  1.00800000E+00
  1.00800000E+00  1.00800000E+00  1.20100000E+01  1.00800000E+00  1.00800000E+00
  1.20100000E+01  1.00800000E+00  1.00800000E+00  1.20100000E+01  1.00800000E+00
  1.00800000E+00  1.20100000E+01  1.00800000E+00  1.00800000E+00  1.00800000E+00
  1.00800000E+00  1.20100000E+01  1.20100000E+01  1.00800000E+00  1.00800000E+00
  1.00800000E+00  1.20100000E+01  1.00800000E+00  1.00800000E+00  1.00800000E+00
  1.00800000E+00  3.20600000E+01  1.20100000E+01  1.20100000E+01  1.20100000E+01
  1.20100000E+01  1.20100000E+01  1.20100000E+01  1.20100000E+01  1.20100000E+01
  3.20600000E+01  1.20100000E+01  1.00800000E+00  1.20100000E+01  1.20100000E+01
  1.00800000E+00  1.20100000E+01  1.20100000E+01  1.20100000E+01  1.00800000E+00
  1.20100000E+01  1.00800000E+00  1.00800000E+00  1.00800000E+00  1.20100000E+01
  1.20100000E+01  1.20100000E+01  1.20100000E+01  1.00800000E+00  1.20100000E+01
  1.00800000E+00  1.20100000E+01  1.00800000E+00  1.00800000E+00  1.20100000E+01
  1.00800000E+00  1.00800000E+00  1.20100000E+01  1.00800000E+00  1.00800000E+00
  1.00800000E+00  1.20100000E+01  1.00800000E+00  1.00800000E+00  1.20100000E+01
  1.00800000E+00  1.00800000E+00  1.20100000E+01  1.00800000E+00  1.00800000E+00
  1.20100000E+01  1.00800000E+00  1.00800000E+00  1.00800000E+00  1.00800000E+00
  1.20100000E+01  1.20100000E+01  1.00800000E+00  1.00800000E+00  1.00800000E+00
  1.20100000E+01  1.00800000E+00  1.00800000E+00  1.00800000E+00  1.00800000E+00
  3.20600000E+01  1.20100000E+01  1.20100000E+01  1.20100000E+01  1.20100000E+01
  1.20100000E+01  1.20100000E+01  1.20100000E+01  1.20100000E+01  3.20600000E+01
  1.20100000E+01  1.00800000E+00  1.20100000E+01  1.20100000E+01  1.00800000E+00
  1.20100000E+01  1.20100000E+01  1.20100000E+01  1.00800000E+00  1.20100000E+01
  1.00800000E+00  1.00800000E+00  1.00800000E+00  1.20100000E+01  1.20100000E+01
  1.20100000E+01  1.20100000E+01  1.00800000E+00  1.20100000E+01  1.00800000E+00
  1.20100000E+01  1.00800000E+00  1.00800000E+00  1.20100000E+01  1.00800000E+00
  1.00800000E+00  1.20100000E+01  1.00800000E+00  1.00800000E+00  1.00800000E+00
  1.20100000E+01  1.00800000E+00  1.00800000E+00  1.20100000E+01  1.00800000E+00
  1.00800000E+00  1.20100000E+01  1.00800000E+00  1.00800000E+00  1.20100000E+01
  1.00800000E+00  1.00800000E+00  1.00800000E+00  1.00800000E+00  1.20100000E+01
  1.20100000E+01  1.00800000E+00  1.00800000E+00  1.00800000E+00  1.20100000E+01
  1.00800000E+00  1.00800000E+00  1.00800000E+00  1.00800000E+00  3.20600000E+01
  1.20100000E+01  1.20100000E+01  1.20100000E+01  1.20100000E+01  1.20100000E+01
  1.20100000E+01  1.20100000E+01  1.20100000E+01  3.20600000E+01  1.20100000E+01
  1.00800000E+00  1.20100000E+01  1.20100000E+01  1.00800000E+00  1.20100000E+01
  1.20100000E+01  1.20100000E+01  1.00800000E+00  1.20100000E+01  1.00800000E+00
  1.00800000E+00  1.00800000E+00  1.20100000E+01  1.20100000E+01  1.20100000E+01
  1.20100000E+01  1.00800000E+00  1.20100000E+01  1.00800000E+00  1.20100000E+01
  1.00800000E+00  1.00800000E+00  1.20100000E+01  1.00800000E+00  1.00800000E+00
  1.20100000E+01  1.00800000E+00  1.00800000E+00  1.00800000E+00  1.20100000E+01
  1.00800000E+00  1.00800000E+00  1.20100000E+01  1.00800000E+00  1.00800000E+00
  1.20100000E+01  1.00800000E+00  1.00800000E+00  1.20100000E+01  1.00800000E+00
  1.00800000E+00  1.00800000E+00  1.00800000E+00  1.20100000E+01  1.20100000E+01
  1.00800000E+00  1.00800000E+00  1.00800000E+00  1.20100000E+01  1.00800000E+00
  1.00800000E+00  1.00800000E+00  1.00800000E+00  3.20600000E+01  1.20100000E+01
  1.20100000E+01  1.20100000E+01  1.20100000E+01  1.20100000E+01  1.20100000E+01
  1.20100000E+01  1.20100000E+01  3.20600000E+01  1.20100000E+01  1.00800000E+00
  1.20100000E+01  1.20100000E+01  1.00800000E+00  1.20100000E+01  1.20100000E+01
  1.20100000E+01  1.00800000E+00  1.20100000E+01  1.00800000E+00  1.00800000E+00
  1.00800000E+00  1.20100000E+01  1.20100000E+01  1.20100000E+01  1.20100000E+01
  1.00800000E+00  1.20100000E+01  1.00800000E+00  1.20100000E+01  1.00800000E+00
  1.00800000E+00  1.20100000E+01  1.00800000E+00  1.00800000E+00  1.20100000E+01
  1.00800000E+00  1.00800000E+00  1.00800000E+00  1.20100000E+01  1.00800000E+00
  1.00800000E+00  1.20100000E+01  1.00800000E+00  1.00800000E+00  1.20100000E+01
  1.00800000E+00  1.00800000E+00  1.20100000E+01  1.00800000E+00  1.00800000E+00
  1.00800000E+00  1.00800000E+00  1.20100000E+01  1.20100000E+01  1.00800000E+00
  1.00800000E+00  1.00800000E+00  1.20100000E+01  1.00800000E+00  1.00800000E+00
  1.00800000E+00  1.00800000E+00  3.20600000E+01  1.20100000E+01  1.20100000E+01
  1.20100000E+01  1.20100000E+01  1.20100000E+01  1.20100000E+01  1.20100000E+01
  1.20100000E+01  3.20600000E+01  1.20100000E+01  1.00800000E+00  1.20100000E+01
  1.20100000E+01  1.00800000E+00  1.20100000E+01  1.20100000E+01  1.20100000E+01
  1.00800000E+00  1.20100000E+01  1.00800000E+00  1.00800000E+00  1.00800000E+00
  1.20100000E+01  1.20100000E+01  1.20100000E+01  1.20100000E+01  1.00800000E+00
  1.20100000E+01  1.00800000E+00  1.20100000E+01  1.00800000E+00  1.00800000E+00
  1.20100000E+01  1.00800000E+00  1.00800000E+00  1.20100000E+01  1.00800000E+00
  1.00800000E+00  1.00800000E+00  1.20100000E+01  1.00800000E+00  1.00800000E+00
  1.20100000E+01  1.00800000E+00  1.00800000E+00  1.20100000E+01  1.00800000E+00
  1.00800000E+00  1.20100000E+01  1.00800000E+00  1.00800000E+00  1.00800000E+00
  1.00800000E+00  1.20100000E+01  1.20100000E+01  1.00800000E+00  1.00800000E+00
  1.00800000E+00  1.20100000E+01  1.00800000E+00  1.00800000E+00  1.00800000E+00
  1.00800000E+00  3.20600000E+01  1.20100000E+01  1.20100000E+01  1.20100000E+01
  1.20100000E+01  1.20100000E+01  1.20100000E+01  1.20100000E+01  1.20100000E+01
  3.20600000E+01  1.20100000E+01  1.00800000E+00  1.20100000E+01  1.20100000E+01
  1.00800000E+00  1.20100000E+01  1.20100000E+01  1.20100000E+01  1.00800000E+00
  1.20100000E+01  1.00800000E+00  1.00800000E+00  1.00800000E+00  1.20100000E+01
  1.20100000E+01  1.20100000E+01  1.20100000E+01  1.00800000E+00  1.20100000E+01
  1.00800000E+00  1.20100000E+01  1.00800000E+00  1.00800000E+00  1.20100000E+01
  1.00800000E+00  1.00800000E+00  1.20100000E+01  1.00800000E+00  1.00800000E+00
  1.00800000E+00  1.20100000E+01  1.00800000E+00  1.00800000E+00  1.20100000E+01
  1.00800000E+00  1.00800000E+00  1.20100000E+01  1.00800000E+00  1.00800000E+00
  1.20100000E+01  1.00800000E+00  1.00800000E+00  1.00800000E+00  1.00800000E+00
  1.20100000E+01  1.20100000E+01  1.00800000E+00  1.00800000E+00  1.00800000E+00
  1.20100000E+01  1.00800000E+00  1.00800000E+00  1.00800000E+00  1.00800000E+00
  3.20600000E+01  1.20100000E+01  1.20100000E+01  1.20100000E+01  1.20100000E+01
  1.20100000E+01  1.20100000E+01  1.20100000E+01  1.20100000E+01  3.20600000E+01
  1.20100000E+01  1.00800000E+00  1.20100000E+01  1.20100000E+01  1.00800000E+00
  1.20100000E+01  1.20100000E+01  1.20100000E+01  1.00800000E+00  1.20100000E+01
  1.00800000E+00  1.00800000E+00  1.00800000E+00  1.20100000E+01  1.20100000E+01
  1.20100000E+01  1.20100000E+01  1.00800000E+00  1.20100000E+01  1.00800000E+00
  1.20100000E+01  1.00800000E+00  1.00800000E+00  1.20100000E+01  1.00800000E+00
  1.00800000E+00  1.20100000E+01  1.00800000E+00  1.00800000E+00  1.00800000E+00
  1.20100000E+01  1.00800000E+00  1.00800000E+00  1.20100000E+01  1.00800000E+00
  1.00800000E+00  1.20100000E+01  1.00800000E+00  1.00800000E+00  1.20100000E+01
  1.00800000E+00  1.00800000E+00  1.00800000E+00  1.00800000E+00  1.20100000E+01
  1.20100000E+01  1.00800000E+00  1.00800000E+00  1.00800000E+00  1.20100000E+01
  1.00800000E+00  1.00800000E+00  1.00800000E+00  1.00800000E+00  3.20600000E+01
  1.20100000E+01  1.20100000E+01  1.20100000E+01  1.20100000E+01  1.20100000E+01
  1.20100000E+01  1.20100000E+01  1.20100000E+01  3.20600000E+01  1.20100000E+01
  1.00800000E+00  1.20100000E+01  1.20100000E+01  1.00800000E+00  1.20100000E+01
  1.20100000E+01  1.20100000E+01  1.00800000E+00  1.20100000E+01  1.00800000E+00
  1.00800000E+00  1.00800000E+00  1.20100000E+01  1.20100000E+01  1.20100000E+01
  1.20100000E+01  1.00800000E+00  1.20100000E+01  1.00800000E+00  1.20100000E+01
  1.00800000E+00  1.00800000E+00  1.20100000E+01  1.00800000E+00  1.00800000E+00
  1.20100000E+01  1.00800000E+00  1.00800000E+00  1.00800000E+00  1.20100000E+01
  1.00800000E+00  1.00800000E+00  1.20100000E+01  1.00800000E+00  1.00800000E+00
  1.20100000E+01  1.00800000E+00  1.00800000E+00  1.20100000E+01  1.00800000E+00
  1.00800000E+00  1.00800000E+00  1.00800000E+00  1.20100000E+01  1.20100000E+01
  1.00800000E+00  1.00800000E+00  1.00800000E+00  1.20100000E+01  1.00800000E+00
  1.00800000E+00  1.00800000E+00  1.00800000E+00  3.20600000E+01  1.20100000E+01
  1.20100000E+01  1.20100000E+01  1.20100000E+01  1.20100000E+01  1.20100000E+01
  1.20100000E+01  1.20100000E+01  3.20600000E+01  1.20100000E+01  1.00800000E+00
  1.20100000E+01  1.20100000E+01  1.00800000E+00  1.20100000E+01  1.20100000E+01
  1.20100000E+01  1.00800000E+00  1.20100000E+01  1.00800000E+00  1.00800000E+00
  1.00800000E+00  1.20100000E+01  1.20100000E+01  1.20100000E+01  1.20100000E+01
  1.00800000E+00  1.20100000E+01  1.00800000E+00  1.20100000E+01  1.00800000E+00
  1.00800000E+00  1.20100000E+01  1.00800000E+00  1.00800000E+00  1.20100000E+01
  1.00800000E+00  1.00800000E+00  1.00800000E+00  1.20100000E+01  1.00800000E+00
  1.00800000E+00  1.20100000E+01  1.00800000E+00  1.00800000E+00  1.20100000E+01
  1.00800000E+00  1.00800000E+00  1.20100000E+01  1.00800000E+00  1.00800000E+00
  1.00800000E+00  1.00800000E+00  1.20100000E+01  1.20100000E+01  1.00800000E+00
  1.00800000E+00  1.00800000E+00  1.20100000E+01  1.00800000E+00  1.00800000E+00
  1.00800000E+00  1.00800000E+00  3.20600000E+01  1.20100000E+01  1.20100000E+01
  1.20100000E+01  1.20100000E+01  1.20100000E+01  1.20100000E+01  1.20100000E+01
  1.20100000E+01  3.20600000E+01  1.20100000E+01  1.00800000E+00  1.20100000E+01
  1.20100000E+01  1.00800000E+00  1.20100000E+01  1.20100000E+01  1.20100000E+01
  1.00800000E+00  1.20100000E+01  1.00800000E+00  1.00800000E+00  1.00800000E+00
  1.20100000E+01  1.20100000E+01  1.20100000E+01  1.20100000E+01  1.00800000E+00
  1.20100000E+01  1.00800000E+00  1.20100000E+01  1.00800000E+00  1.00800000E+00
  1.20100000E+01  1.00800000E+00  1.00800000E+00  1.20100000E+01  1.00800000E+00
  1.00800000E+00  1.00800000E+00  1.20100000E+01  1.00800000E+00  1.00800000E+00
  1.20100000E+01  1.00800000E+00  1.00800000E+00  1.20100000E+01  1.00800000E+00
  1.00800000E+00  1.20100000E+01  1.00800000E+00  1.00800000E+00  1.00800000E+00
  1.00800000E+00  1.20100000E+01  1.20100000E+01  1.00800000E+00  1.00800000E+00
  1.00800000E+00  1.20100000E+01  1.00800000E+00  1.00800000E+00  1.00800000E+00
  1.00800000E+00  3.20600000E+01  1.20100000E+01  1.20100000E+01  1.20100000E+01
  1.20100000E+01  1.20100000E+01  1.20100000E+01  1.20100000E+01  1.20100000E+01
  3.20600000E+01  1.20100000E+01  1.00800000E+00  1.20100000E+01  1.20100000E+01
  1.00800000E+00  1.20100000E+01  1.20100000E+01  1.20100000E+01  1.00800000E+00
  1.20100000E+01  1.00800000E+00  1.00800000E+00  1.00800000E+00  1.20100000E+01
  1.20100000E+01  1.20100000E+01  1.20100000E+01  1.00800000E+00  1.20100000E+01
  1.00800000E+00  1.20100000E+01  1.00800000E+00  1.00800000E+00  1.20100000E+01
  1.00800000E+00  1.00800000E+00  1.20100000E+01  1.00800000E+00  1.00800000E+00
  1.00800000E+00  1.20100000E+01  1.00800000E+00  1.00800000E+00  1.20100000E+01
  1.00800000E+00  1.00800000E+00  1.20100000E+01  1.00800000E+00  1.00800000E+00
  1.20100000E+01  1.00800000E+00  1.00800000E+00  1.00800000E+00  1.00800000E+00
  1.20100000E+01  1.20100000E+01  1.00800000E+00  1.00800000E+00  1.00800000E+00
  1.20100000E+01  1.00800000E+00  1.00800000E+00  1.00800000E+00  1.00800000E+00
  3.20600000E+01  1.20100000E+01  1.20100000E+01  1.20100000E+01  1.20100000E+01
  1.20100000E+01  1.20100000E+01  1.20100000E+01  1.20100000E+01  3.20600000E+01
  1.20100000E+01  1.00800000E+00  1.20100000E+01  1.20100000E+01  1.00800000E+00
  1.20100000E+01  1.20100000E+01  1.20100000E+01  1.00800000E+00  1.20100000E+01
  1.00800000E+00  1.00800000E+00  1.00800000E+00  1.20100000E+01  1.20100000E+01
  1.20100000E+01  1.20100000E+01  1.00800000E+00  1.20100000E+01  1.00800000E+00
  1.20100000E+01  1.00800000E+00  1.00800000E+00  1.20100000E+01  1.00800000E+00
  1.00800000E+00  1.20100000E+01  1.00800000E+00  1.00800000E+00  1.00800000E+00
  1.20100000E+01  1.00800000E+00  1.00800000E+00  1.20100000E+01  1.00800000E+00
  1.00800000E+00  1.20100000E+01  1.00800000E+00  1.00800000E+00  1.20100000E+01
  1.00800000E+00  1.00800000E+00  1.00800000E+00  1.00800000E+00  1.20100000E+01
  1.20100000E+01  1.00800000E+00  1.00800000E+00  1.00800000E+00  1.20100000E+01
  1.00800000E+00  1.00800000E+00  1.00800000E+00  1.00800000E+00  3.20600000E+01
  1.20100000E+01  1.20100000E+01  1.20100000E+01  1.20100000E+01  1.20100000E+01
  1.20100000E+01  1.20100000E+01  1.20100000E+01  3.20600000E+01  1.20100000E+01
  1.00800000E+00  1.20100000E+01  1.20100000E+01  1.00800000E+00  1.20100000E+01
  1.20100000E+01  1.20100000E+01  1.00800000E+00  1.20100000E+01  1.00800000E+00
  1.00800000E+00  1.00800000E+00  1.20100000E+01  1.20100000E+01  1.20100000E+01
  1.20100000E+01  1.00800000E+00  1.20100000E+01  1.00800000E+00  1.20100000E+01
  1.00800000E+00  1.00800000E+00  1.20100000E+01  1.00800000E+00  1.00800000E+00
  1.20100000E+01  1.00800000E+00  1.00800000E+00  1.00800000E+00  1.20100000E+01
  1.00800000E+00  1.00800000E+00  1.20100000E+01  1.00800000E+00  1.00800000E+00
  1.20100000E+01  1.00800000E+00  1.00800000E+00  1.20100000E+01  1.00800000E+00
  1.00800000E+00  1.00800000E+00  1.00800000E+00  1.20100000E+01  1.20100000E+01
  1.00800000E+00  1.00800000E+00  1.00800000E+00  1.20100000E+01  1.00800000E+00
  1.00800000E+00  1.00800000E+00  1.00800000E+00  3.20600000E+01  1.20100000E+01
  1.20100000E+01  1.20100000E+01  1.20100000E+01  1.20100000E+01  1.20100000E+01
  1.20100000E+01  1.20100000E+01  3.20600000E+01  1.20100000E+01  1.00800000E+00
  1.20100000E+01  1.20100000E+01  1.00800000E+00  1.20100000E+01  1.20100000E+01
  1.20100000E+01  1.00800000E+00  1.20100000E+01  1.00800000E+00  1.00800000E+00
  1.00800000E+00  1.20100000E+01  1.20100000E+01  1.20100000E+01  1.20100000E+01
  1.00800000E+00  1.20100000E+01  1.00800000E+00  1.20100000E+01  1.00800000E+00
  1.00800000E+00  1.20100000E+01  1.00800000E+00  1.00800000E+00  1.20100000E+01
  1.00800000E+00  1.00800000E+00  1.00800000E+00  1.20100000E+01  1.00800000E+00
  1.00800000E+00  1.20100000E+01  1.00800000E+00  1.00800000E+00  1.20100000E+01
  1.00800000E+00  1.00800000E+00  1.20100000E+01  1.00800000E+00  1.00800000E+00
  1.00800000E+00  1.00800000E+00  1.20100000E+01  1.20100000E+01  1.00800000E+00
  1.00800000E+00  1.00800000E+00  1.20100000E+01  1.00800000E+00  1.00800000E+00
  1.00800000E+00  1.00800000E+00  3.20600000E+01  1.20100000E+01  1.20100000E+01
  1.20100000E+01  1.20100000E+01  1.20100000E+01  1.20100000E+01  1.20100000E+01
  1.20100000E+01  3.20600000E+01  1.20100000E+01  1.00800000E+00  1.20100000E+01
  1.20100000E+01  1.00800000E+00  1.20100000E+01  1.20100000E+01  1.20100000E+01
  1.00800000E+00  1.20100000E+01  1.00800000E+00  1.00800000E+00  1.00800000E+00
  1.20100000E+01  1.20100000E+01  1.20100000E+01  1.20100000E+01  1.00800000E+00
  1.20100000E+01  1.00800000E+00  1.20100000E+01  1.00800000E+00  1.00800000E+00
  1.20100000E+01  1.00800000E+00  1.00800000E+00  1.20100000E+01  1.00800000E+00
  1.00800000E+00  1.00800000E+00  1.20100000E+01  1.00800000E+00  1.00800000E+00
  1.20100000E+01  1.00800000E+00  1.00800000E+00  1.20100000E+01  1.00800000E+00
  1.00800000E+00  1.20100000E+01  1.00800000E+00  1.00800000E+00  1.00800000E+00
  1.00800000E+00  1.20100000E+01  1.20100000E+01  1.00800000E+00  1.00800000E+00
  1.00800000E+00  1.20100000E+01  1.00800000E+00  1.00800000E+00  1.00800000E+00
  1.00800000E+00  3.20600000E+01  1.20100000E+01  1.20100000E+01  1.20100000E+01
  1.20100000E+01  1.20100000E+01  1.20100000E+01  1.20100000E+01  1.20100000E+01
  3.20600000E+01  1.20100000E+01  1.00800000E+00  1.20100000E+01  1.20100000E+01
  1.00800000E+00  1.20100000E+01  1.20100000E+01  1.20100000E+01  1.00800000E+00
  1.20100000E+01  1.00800000E+00  1.00800000E+00  1.00800000E+00  1.20100000E+01
  1.20100000E+01  1.20100000E+01  1.20100000E+01  1.00800000E+00  1.20100000E+01
  1.00800000E+00  1.20100000E+01  1.00800000E+00  1.00800000E+00  1.20100000E+01
  1.00800000E+00  1.00800000E+00  1.20100000E+01  1.00800000E+00  1.00800000E+00
  1.00800000E+00  1.20100000E+01  1.00800000E+00  1.00800000E+00  1.20100000E+01
  1.00800000E+00  1.00800000E+00  1.20100000E+01  1.00800000E+00  1.00800000E+00
  1.20100000E+01  1.00800000E+00  1.00800000E+00  1.00800000E+00  1.00800000E+00
  1.20100000E+01  1.20100000E+01  1.00800000E+00  1.00800000E+00  1.00800000E+00
  1.20100000E+01  1.00800000E+00  1.00800000E+00  1.00800000E+00  1.00800000E+00
  3.20600000E+01  1.20100000E+01  1.20100000E+01  1.20100000E+01  1.20100000E+01
  1.20100000E+01  1.20100000E+01  1.20100000E+01  1.20100000E+01  3.20600000E+01
  1.20100000E+01  1.00800000E+00  1.20100000E+01  1.20100000E+01  1.00800000E+00
  1.20100000E+01  1.20100000E+01  1.20100000E+01  1.00800000E+00  1.20100000E+01
  1.00800000E+00  1.00800000E+00  1.00800000E+00  1.20100000E+01  1.20100000E+01
  1.20100000E+01  1.20100000E+01  1.00800000E+00  1.20100000E+01  1.00800000E+00
  1.20100000E+01  1.00800000E+00  1.00800000E+00  1.20100000E+01  1.00800000E+00
  1.00800000E+00  1.20100000E+01  1.00800000E+00  1.00800000E+00  1.00800000E+00
  1.20100000E+01  1.00800000E+00  1.00800000E+00  1.20100000E+01  1.00800000E+00
  1.00800000E+00  1.20100000E+01  1.00800000E+00  1.00800000E+00  1.20100000E+01
  1.00800000E+00  1.00800000E+00  1.00800000E+00  1.00800000E+00  1.20100000E+01
  1.20100000E+01  1.00800000E+00  1.00800000E+00  1.00800000E+00  1.20100000E+01
  1.00800000E+00  1.00800000E+00  1.00800000E+00  1.00800000E+00  3.20600000E+01
  1.20100000E+01  1.20100000E+01  1.20100000E+01  1.20100000E+01  1.20100000E+01
  1.20100000E+01  1.20100000E+01  1.20100000E+01  3.20600000E+01  1.20100000E+01
  1.00800000E+00  1.20100000E+01  1.20100000E+01  1.00800000E+00  1.20100000E+01
  1.20100000E+01  1.20100000E+01  1.00800000E+00  1.20100000E+01  1.00800000E+00
  1.00800000E+00  1.00800000E+00  1.20100000E+01  1.20100000E+01  1.20100000E+01
  1.20100000E+01  1.00800000E+00  1.20100000E+01  1.00800000E+00  1.20100000E+01
  1.00800000E+00  1.00800000E+00  1.20100000E+01  1.00800000E+00  1.00800000E+00
  1.20100000E+01  1.00800000E+00  1.00800000E+00  1.00800000E+00  1.20100000E+01
  1.00800000E+00  1.00800000E+00  1.20100000E+01  1.00800000E+00  1.00800000E+00
  1.20100000E+01  1.00800000E+00  1.00800000E+00  1.20100000E+01  1.00800000E+00
  1.00800000E+00  1.00800000E+00  1.00800000E+00  1.20100000E+01  1.20100000E+01
  1.00800000E+00  1.00800000E+00  1.00800000E+00  1.20100000E+01  1.00800000E+00
  1.00800000E+00  1.00800000E+00  1.00800000E+00  3.20600000E+01  1.20100000E+01
  1.20100000E+01  1.20100000E+01  1.20100000E+01  1.20100000E+01  1.20100000E+01
  1.20100000E+01  1.20100000E+01  3.20600000E+01  1.20100000E+01  1.00800000E+00
  1.20100000E+01  1.20100000E+01  1.00800000E+00  1.20100000E+01  1.20100000E+01
  1.20100000E+01  1.00800000E+00  1.20100000E+01  1.00800000E+00  1.00800000E+00
  1.00800000E+00  1.20100000E+01  1.20100000E+01  1.20100000E+01  1.20100000E+01
  1.00800000E+00  1.20100000E+01  1.00800000E+00  1.20100000E+01  1.00800000E+00
  1.00800000E+00  1.20100000E+01  1.00800000E+00  1.00800000E+00  1.20100000E+01
  1.00800000E+00  1.00800000E+00  1.00800000E+00  1.20100000E+01  1.00800000E+00
  1.00800000E+00  1.20100000E+01  1.00800000E+00  1.00800000E+00  1.20100000E+01
  1.00800000E+00  1.00800000E+00  1.20100000E+01  1.00800000E+00  1.00800000E+00
  1.00800000E+00  1.00800000E+00  1.20100000E+01  1.20100000E+01  1.00800000E+00
  1.00800000E+00  1.00800000E+00  1.20100000E+01  1.00800000E+00  1.00800000E+00
  1.00800000E+00  1.00800000E+00  3.20600000E+01  1.20100000E+01  1.20100000E+01
  1.20100000E+01  1.20100000E+01  1.20100000E+01  1.20100000E+01  1.20100000E+01
  1.20100000E+01  3.20600000E+01  1.20100000E+01  1.00800000E+00  1.20100000E+01
  1.20100000E+01  1.00800000E+00  1.20100000E+01  1.20100000E+01  1.20100000E+01
  1.00800000E+00  1.20100000E+01  1.00800000E+00  1.00800000E+00  1.00800000E+00
  1.20100000E+01  1.20100000E+01  1.20100000E+01  1.20100000E+01  1.00800000E+00
  1.20100000E+01  1.00800000E+00  1.20100000E+01  1.00800000E+00  1.00800000E+00
  1.20100000E+01  1.00800000E+00  1.00800000E+00  1.20100000E+01  1.00800000E+00
  1.00800000E+00  1.00800000E+00  1.20100000E+01  1.00800000E+00  1.00800000E+00
  1.20100000E+01  1.00800000E+00  1.00800000E+00  1.20100000E+01  1.00800000E+00
  1.00800000E+00  1.20100000E+01  1.00800000E+00  1.00800000E+00  1.00800000E+00
  1.00800000E+00  1.20100000E+01  1.20100000E+01  1.00800000E+00  1.00800000E+00
  1.00800000E+00  1.20100000E+01  1.00800000E+00  1.00800000E+00  1.00800000E+00
  1.00800000E+00  3.20600000E+01  1.20100000E+01  1.20100000E+01  1.20100000E+01
  1.20100000E+01  1.20100000E+01  1.20100000E+01  1.20100000E+01  1.20100000E+01
  3.20600000E+01  1.20100000E+01  1.00800000E+00  1.20100000E+01  1.20100000E+01
  1.00800000E+00  1.20100000E+01  1.20100000E+01  1.20100000E+01  1.00800000E+00
  1.20100000E+01  1.00800000E+00  1.00800000E+00  1.00800000E+00  1.20100000E+01
  1.20100000E+01  1.20100000E+01  1.20100000E+01  1.00800000E+00  1.20100000E+01
  1.00800000E+00  1.20100000E+01  1.00800000E+00  1.00800000E+00  1.20100000E+01
  1.00800000E+00  1.00800000E+00  1.20100000E+01  1.00800000E+00  1.00800000E+00
  1.00800000E+00  1.20100000E+01  1.00800000E+00  1.00800000E+00  1.20100000E+01
  1.00800000E+00  1.00800000E+00  1.20100000E+01  1.00800000E+00  1.00800000E+00
  1.20100000E+01  1.00800000E+00  1.00800000E+00  1.00800000E+00  1.00800000E+00
  1.20100000E+01  1.20100000E+01  1.00800000E+00  1.00800000E+00  1.00800000E+00
  1.20100000E+01  1.00800000E+00  1.00800000E+00  1.00800000E+00  1.00800000E+00
  3.20600000E+01  1.20100000E+01  1.20100000E+01  1.20100000E+01  1.20100000E+01
  1.20100000E+01  1.20100000E+01  1.20100000E+01  1.20100000E+01  3.20600000E+01
  1.20100000E+01  1.00800000E+00  1.20100000E+01  1.20100000E+01  1.00800000E+00
  1.20100000E+01  1.20100000E+01  1.20100000E+01  1.00800000E+00  1.20100000E+01
  1.00800000E+00  1.00800000E+00  1.00800000E+00  1.20100000E+01  1.20100000E+01
  1.20100000E+01  1.20100000E+01  1.00800000E+00  1.20100000E+01  1.00800000E+00
  1.20100000E+01  1.00800000E+00  1.00800000E+00  1.20100000E+01  1.00800000E+00
  1.00800000E+00  1.20100000E+01  1.00800000E+00  1.00800000E+00  1.00800000E+00
  1.20100000E+01  1.00800000E+00  1.00800000E+00  1.20100000E+01  1.00800000E+00
  1.00800000E+00  1.20100000E+01  1.00800000E+00  1.00800000E+00  1.20100000E+01
  1.00800000E+00  1.00800000E+00  1.00800000E+00  1.00800000E+00  1.20100000E+01
  1.20100000E+01  1.00800000E+00  1.00800000E+00  1.00800000E+00  1.20100000E+01
  1.00800000E+00  1.00800000E+00  1.00800000E+00  1.00800000E+00  3.20600000E+01
  1.20100000E+01  1.20100000E+01  1.20100000E+01  1.20100000E+01  1.20100000E+01
  1.20100000E+01  1.20100000E+01  1.20100000E+01  3.20600000E+01  1.20100000E+01
  1.00800000E+00  1.20100000E+01  1.20100000E+01  1.00800000E+00  1.20100000E+01
  1.20100000E+01  1.20100000E+01  1.00800000E+00  1.20100000E+01  1.00800000E+00
  1.00800000E+00  1.00800000E+00  1.20100000E+01  1.20100000E+01  1.20100000E+01
  1.20100000E+01  1.00800000E+00  1.20100000E+01  1.00800000E+00  1.20100000E+01
  1.00800000E+00  1.00800000E+00  1.20100000E+01  1.00800000E+00  1.00800000E+00
  1.20100000E+01  1.00800000E+00  1.00800000E+00  1.00800000E+00  1.20100000E+01
  1.00800000E+00  1.00800000E+00  1.20100000E+01  1.00800000E+00  1.00800000E+00
  1.20100000E+01  1.00800000E+00  1.00800000E+00  1.20100000E+01  1.00800000E+00
  1.00800000E+00  1.00800000E+00  1.00800000E+00  1.20100000E+01  1.20100000E+01
  1.00800000E+00  1.00800000E+00  1.00800000E+00  1.20100000E+01  1.00800000E+00
  1.00800000E+00  1.00800000E+00  1.00800000E+00  3.20600000E+01  1.20100000E+01
  1.20100000E+01  1.20100000E+01  1.20100000E+01  1.20100000E+01  1.20100000E+01
  1.20100000E+01  1.20100000E+01  3.20600000E+01  1.20100000E+01  1.00800000E+00
  1.20100000E+01  1.20100000E+01  1.00800000E+00  1.20100000E+01  1.20100000E+01
  1.20100000E+01  1.00800000E+00  1.20100000E+01  1.00800000E+00  1.00800000E+00
  1.00800000E+00  1.20100000E+01  1.20100000E+01  1.20100000E+01  1.20100000E+01
  1.00800000E+00  1.20100000E+01  1.00800000E+00  1.20100000E+01  1.00800000E+00
  1.00800000E+00  1.20100000E+01  1.00800000E+00  1.00800000E+00  1.20100000E+01
  1.00800000E+00  1.00800000E+00  1.00800000E+00  1.20100000E+01  1.00800000E+00
  1.00800000E+00  1.20100000E+01  1.00800000E+00  1.00800000E+00  1.20100000E+01
  1.00800000E+00  1.00800000E+00  1.20100000E+01  1.00800000E+00  1.00800000E+00
  1.00800000E+00  1.00800000E+00  1.20100000E+01  1.20100000E+01  1.00800000E+00
  1.00800000E+00  1.00800000E+00  1.20100000E+01  1.00800000E+00  1.00800000E+00
  1.00800000E+00  1.00800000E+00  3.20600000E+01  1.20100000E+01  1.20100000E+01
  1.20100000E+01  1.20100000E+01  1.20100000E+01  1.20100000E+01  1.20100000E+01
  1.20100000E+01  3.20600000E+01  1.20100000E+01  1.00800000E+00  1.20100000E+01
  1.20100000E+01  1.00800000E+00  1.20100000E+01  1.20100000E+01  1.20100000E+01
  1.00800000E+00  1.20100000E+01  1.00800000E+00  1.00800000E+00  1.00800000E+00
  1.20100000E+01  1.20100000E+01  1.20100000E+01  1.20100000E+01  1.00800000E+00
  1.20100000E+01  1.00800000E+00  1.20100000E+01  1.00800000E+00  1.00800000E+00
  1.20100000E+01  1.00800000E+00  1.00800000E+00  1.20100000E+01  1.00800000E+00
  1.00800000E+00  1.00800000E+00  1.20100000E+01  1.00800000E+00  1.00800000E+00
  1.20100000E+01  1.00800000E+00  1.00800000E+00  1.20100000E+01  1.00800000E+00
  1.00800000E+00  1.20100000E+01  1.00800000E+00  1.00800000E+00  1.00800000E+00
  1.00800000E+00  1.20100000E+01  1.20100000E+01  1.00800000E+00  1.00800000E+00
  1.00800000E+00  1.20100000E+01  1.00800000E+00  1.00800000E+00  1.00800000E+00
  1.00800000E+00  3.20600000E+01  1.20100000E+01  1.20100000E+01  1.20100000E+01
  1.20100000E+01  1.20100000E+01  1.20100000E+01  1.20100000E+01  1.20100000E+01
  3.20600000E+01  1.20100000E+01  1.00800000E+00  1.20100000E+01  1.20100000E+01
  1.00800000E+00  1.20100000E+01  1.20100000E+01  1.20100000E+01  1.00800000E+00
  1.20100000E+01  1.00800000E+00  1.00800000E+00  1.00800000E+00  1.20100000E+01
  1.20100000E+01  1.20100000E+01  1.20100000E+01  1.00800000E+00  1.20100000E+01
  1.00800000E+00  1.20100000E+01  1.00800000E+00  1.00800000E+00  1.20100000E+01
  1.00800000E+00  1.00800000E+00  1.20100000E+01  1.00800000E+00  1.00800000E+00
  1.00800000E+00  1.20100000E+01  1.00800000E+00  1.00800000E+00  1.20100000E+01
  1.00800000E+00  1.00800000E+00  1.20100000E+01  1.00800000E+00  1.00800000E+00
  1.20100000E+01  1.00800000E+00  1.00800000E+00  1.00800000E+00  1.00800000E+00
  1.20100000E+01  1.20100000E+01  1.00800000E+00  1.00800000E+00  1.00800000E+00
  1.20100000E+01  1.00800000E+00  1.00800000E+00  1.00800000E+00  1.00800000E+00
  3.20600000E+01  1.20100000E+01  1.20100000E+01  1.20100000E+01  1.20100000E+01
  1.20100000E+01  1.20100000E+01  1.20100000E+01  1.20100000E+01  3.20600000E+01
  1.20100000E+01  1.00800000E+00  1.20100000E+01  1.20100000E+01  1.00800000E+00
  1.20100000E+01  1.20100000E+01  1.20100000E+01  1.00800000E+00  1.20100000E+01
  1.00800000E+00  1.00800000E+00  1.00800000E+00  1.20100000E+01  1.20100000E+01
  1.20100000E+01  1.20100000E+01  1.00800000E+00  1.20100000E+01  1.00800000E+00
  1.20100000E+01  1.00800000E+00  1.00800000E+00  1.20100000E+01  1.00800000E+00
  1.00800000E+00  1.20100000E+01  1.00800000E+00  1.00800000E+00  1.00800000E+00
  1.20100000E+01  1.00800000E+00  1.00800000E+00  1.20100000E+01  1.00800000E+00
  1.00800000E+00  1.20100000E+01  1.00800000E+00  1.00800000E+00  1.20100000E+01
  1.00800000E+00  1.00800000E+00  1.00800000E+00  1.00800000E+00  1.20100000E+01
  1.20100000E+01  1.00800000E+00  1.00800000E+00  1.00800000E+00  1.20100000E+01
  1.00800000E+00  1.00800000E+00  1.00800000E+00  1.00800000E+00  3.20600000E+01
  1.20100000E+01  1.20100000E+01  1.20100000E+01  1.20100000E+01  1.20100000E+01
  1.20100000E+01  1.20100000E+01  1.20100000E+01  3.20600000E+01  1.20100000E+01
  1.00800000E+00  1.20100000E+01  1.20100000E+01  1.00800000E+00  1.20100000E+01
  1.20100000E+01  1.20100000E+01  1.00800000E+00  1.20100000E+01  1.00800000E+00
  1.00800000E+00  1.00800000E+00  1.20100000E+01  1.20100000E+01  1.20100000E+01
  1.20100000E+01  1.00800000E+00  1.20100000E+01  1.00800000E+00  1.20100000E+01
  1.00800000E+00  1.00800000E+00  1.20100000E+01  1.00800000E+00  1.00800000E+00
  1.20100000E+01  1.00800000E+00  1.00800000E+00  1.00800000E+00  1.20100000E+01
  1.00800000E+00  1.00800000E+00  1.20100000E+01  1.00800000E+00  1.00800000E+00
  1.20100000E+01  1.00800000E+00  1.00800000E+00  1.20100000E+01  1.00800000E+00
  1.00800000E+00  1.00800000E+00  1.00800000E+00  1.20100000E+01  1.20100000E+01
  1.00800000E+00  1.00800000E+00  1.00800000E+00  1.20100000E+01  1.00800000E+00
  1.00800000E+00  1.00800000E+00  1.00800000E+00  3.20600000E+01  1.20100000E+01
  1.20100000E+01  1.20100000E+01  1.20100000E+01  1.20100000E+01  1.20100000E+01
  1.20100000E+01  1.20100000E+01  3.20600000E+01  1.20100000E+01  1.00800000E+00
  1.20100000E+01  1.20100000E+01  1.00800000E+00  1.20100000E+01  1.20100000E+01
  1.20100000E+01  1.00800000E+00  1.20100000E+01  1.00800000E+00  1.00800000E+00
  1.00800000E+00  1.20100000E+01  1.20100000E+01  1.20100000E+01  1.20100000E+01
  1.00800000E+00  1.20100000E+01  1.00800000E+00  1.20100000E+01  1.00800000E+00
  1.00800000E+00  1.20100000E+01  1.00800000E+00  1.00800000E+00  1.20100000E+01
  1.00800000E+00  1.00800000E+00  1.00800000E+00  1.20100000E+01  1.00800000E+00
  1.00800000E+00  1.20100000E+01  1.00800000E+00  1.00800000E+00  1.20100000E+01
  1.00800000E+00  1.00800000E+00  1.20100000E+01  1.00800000E+00  1.00800000E+00
  1.00800000E+00  1.00800000E+00  1.20100000E+01  1.20100000E+01  1.00800000E+00
  1.00800000E+00  1.00800000E+00  1.20100000E+01  1.00800000E+00  1.00800000E+00
  1.00800000E+00  1.00800000E+00  3.20600000E+01  1.20100000E+01  1.20100000E+01
  1.20100000E+01  1.20100000E+01  1.20100000E+01  1.20100000E+01  1.20100000E+01
  1.20100000E+01  3.20600000E+01  1.20100000E+01  1.00800000E+00  1.20100000E+01
  1.20100000E+01  1.00800000E+00  1.20100000E+01  1.20100000E+01  1.20100000E+01
  1.00800000E+00  1.20100000E+01  1.00800000E+00  1.00800000E+00  1.00800000E+00
  1.20100000E+01  1.20100000E+01  1.20100000E+01  1.20100000E+01  1.00800000E+00
  1.20100000E+01  1.00800000E+00  1.20100000E+01  1.00800000E+00  1.00800000E+00
  1.20100000E+01  1.00800000E+00  1.00800000E+00  1.20100000E+01  1.00800000E+00
  1.00800000E+00  1.00800000E+00  1.20100000E+01  1.00800000E+00  1.00800000E+00
  1.20100000E+01  1.00800000E+00  1.00800000E+00  1.20100000E+01  1.00800000E+00
  1.00800000E+00  1.20100000E+01  1.00800000E+00  1.00800000E+00  1.00800000E+00
  1.00800000E+00  1.20100000E+01  1.20100000E+01  1.00800000E+00  1.00800000E+00
  1.00800000E+00  1.20100000E+01  1.00800000E+00  1.00800000E+00  1.00800000E+00
  1.00800000E+00  3.20600000E+01  1.20100000E+01  1.20100000E+01  1.20100000E+01
  1.20100000E+01  1.20100000E+01  1.20100000E+01  1.20100000E+01  1.20100000E+01
  3.20600000E+01  1.20100000E+01  1.00800000E+00  1.20100000E+01  1.20100000E+01
  1.00800000E+00  1.20100000E+01  1.20100000E+01  1.20100000E+01  1.00800000E+00
  1.20100000E+01  1.00800000E+00  1.00800000E+00  1.00800000E+00  1.20100000E+01
  1.20100000E+01  1.20100000E+01  1.20100000E+01  1.00800000E+00  1.20100000E+01
  1.00800000E+00  1.20100000E+01  1.00800000E+00  1.00800000E+00  1.20100000E+01
  1.00800000E+00  1.00800000E+00  1.20100000E+01  1.00800000E+00  1.00800000E+00
  1.00800000E+00  1.20100000E+01  1.00800000E+00  1.00800000E+00  1.20100000E+01
  1.00800000E+00  1.00800000E+00  1.20100000E+01  1.00800000E+00  1.00800000E+00
  1.20100000E+01  1.00800000E+00  1.00800000E+00  1.00800000E+00  1.00800000E+00
  1.20100000E+01  1.20100000E+01  1.00800000E+00  1.00800000E+00  1.00800000E+00
  1.20100000E+01  1.00800000E+00  1.00800000E+00  1.00800000E+00  1.00800000E+00
  3.20600000E+01  1.20100000E+01  1.20100000E+01  1.20100000E+01  1.20100000E+01
  1.20100000E+01  1.20100000E+01  1.20100000E+01  1.20100000E+01  3.20600000E+01
  1.20100000E+01  1.00800000E+00  1.20100000E+01  1.20100000E+01  1.00800000E+00
  1.20100000E+01  1.20100000E+01  1.20100000E+01  1.00800000E+00  1.20100000E+01
  1.00800000E+00  1.00800000E+00  1.00800000E+00  1.20100000E+01  1.20100000E+01
  1.20100000E+01  1.20100000E+01  1.00800000E+00  1.20100000E+01  1.00800000E+00
  1.20100000E+01  1.00800000E+00  1.00800000E+00  1.20100000E+01  1.00800000E+00
  1.00800000E+00  1.20100000E+01  1.00800000E+00  1.00800000E+00  1.00800000E+00
  1.20100000E+01  1.00800000E+00  1.00800000E+00  1.20100000E+01  1.00800000E+00
  1.00800000E+00  1.20100000E+01  1.00800000E+00  1.00800000E+00  1.20100000E+01
  1.00800000E+00  1.00800000E+00  1.00800000E+00  1.00800000E+00  1.20100000E+01
  1.20100000E+01  1.00800000E+00  1.00800000E+00  1.00800000E+00  1.20100000E+01
  1.00800000E+00  1.00800000E+00  1.00800000E+00  1.00800000E+00  3.20600000E+01
  1.20100000E+01  1.20100000E+01  1.20100000E+01  1.20100000E+01  1.20100000E+01
  1.20100000E+01  1.20100000E+01  1.20100000E+01  3.20600000E+01  1.20100000E+01
  1.00800000E+00  1.20100000E+01  1.20100000E+01  1.00800000E+00  1.20100000E+01
  1.20100000E+01  1.20100000E+01  1.00800000E+00  1.20100000E+01  1.00800000E+00
  1.00800000E+00  1.00800000E+00  1.20100000E+01  1.20100000E+01  1.20100000E+01
  1.20100000E+01  1.00800000E+00  1.20100000E+01  1.00800000E+00  1.20100000E+01
  1.00800000E+00  1.00800000E+00  1.20100000E+01  1.00800000E+00  1.00800000E+00
  1.20100000E+01  1.00800000E+00  1.00800000E+00  1.00800000E+00  1.20100000E+01
  1.00800000E+00  1.00800000E+00  1.20100000E+01  1.00800000E+00  1.00800000E+00
  1.20100000E+01  1.00800000E+00  1.00800000E+00  1.20100000E+01  1.00800000E+00
  1.00800000E+00  1.00800000E+00  1.00800000E+00  1.20100000E+01  1.20100000E+01
  1.00800000E+00  1.00800000E+00  1.00800000E+00  1.20100000E+01  1.00800000E+00
  1.00800000E+00  1.00800000E+00  1.00800000E+00  3.20600000E+01  1.20100000E+01
  1.20100000E+01  1.20100000E+01  1.20100000E+01  1.20100000E+01  1.20100000E+01
  1.20100000E+01  1.20100000E+01  3.20600000E+01  1.20100000E+01  1.00800000E+00
  1.20100000E+01  1.20100000E+01  1.00800000E+00  1.20100000E+01  1.20100000E+01
  1.20100000E+01  1.00800000E+00  1.20100000E+01  1.00800000E+00  1.00800000E+00
  1.00800000E+00  1.20100000E+01  1.20100000E+01  1.20100000E+01  1.20100000E+01
  1.00800000E+00  1.20100000E+01  1.00800000E+00  1.20100000E+01  1.00800000E+00
  1.00800000E+00  1.20100000E+01  1.00800000E+00  1.00800000E+00  1.20100000E+01
  1.00800000E+00  1.00800000E+00  1.00800000E+00  1.20100000E+01  1.00800000E+00
  1.00800000E+00  1.20100000E+01  1.00800000E+00  1.00800000E+00  1.20100000E+01
  1.00800000E+00  1.00800000E+00  1.20100000E+01  1.00800000E+00  1.00800000E+00
  1.00800000E+00  1.00800000E+00  1.20100000E+01  1.20100000E+01  1.00800000E+00
  1.00800000E+00  1.00800000E+00  1.20100000E+01  1.00800000E+00  1.00800000E+00
  1.00800000E+00  1.00800000E+00  3.20600000E+01  1.20100000E+01  1.20100000E+01
  1.20100000E+01  1.20100000E+01  1.20100000E+01  1.20100000E+01  1.20100000E+01
  1.20100000E+01  3.20600000E+01  1.20100000E+01  1.00800000E+00  1.20100000E+01
  1.20100000E+01  1.00800000E+00  1.20100000E+01  1.20100000E+01  1.20100000E+01
  1.00800000E+00  1.20100000E+01  1.00800000E+00  1.00800000E+00  1.00800000E+00
  1.20100000E+01  1.20100000E+01  1.20100000E+01  1.20100000E+01  1.00800000E+00
  1.20100000E+01  1.00800000E+00  1.20100000E+01  1.00800000E+00  1.00800000E+00
  1.20100000E+01  1.00800000E+00  1.00800000E+00  1.20100000E+01  1.00800000E+00
  1.00800000E+00  1.00800000E+00  1.20100000E+01  1.00800000E+00  1.00800000E+00
  1.20100000E+01  1.00800000E+00  1.00800000E+00  1.20100000E+01  1.00800000E+00
  1.00800000E+00  1.20100000E+01  1.00800000E+00  1.00800000E+00  1.00800000E+00
  1.00800000E+00  1.20100000E+01  1.20100000E+01  1.00800000E+00  1.00800000E+00
  1.00800000E+00  1.20100000E+01  1.00800000E+00  1.00800000E+00  1.00800000E+00
  1.00800000E+00  3.20600000E+01  1.20100000E+01  1.20100000E+01  1.20100000E+01
  1.20100000E+01  1.20100000E+01  1.20100000E+01  1.20100000E+01  1.20100000E+01
  3.20600000E+01  1.20100000E+01  1.00800000E+00  1.20100000E+01  1.20100000E+01
  1.00800000E+00  1.20100000E+01  1.20100000E+01  1.20100000E+01  1.00800000E+00
  1.20100000E+01  1.00800000E+00  1.00800000E+00  1.00800000E+00  1.20100000E+01
  1.20100000E+01  1.20100000E+01  1.20100000E+01  1.00800000E+00  1.20100000E+01
  1.00800000E+00  1.20100000E+01  1.00800000E+00  1.00800000E+00  1.20100000E+01
  1.00800000E+00  1.00800000E+00  1.20100000E+01  1.00800000E+00  1.00800000E+00
  1.00800000E+00  1.20100000E+01  1.00800000E+00  1.00800000E+00  1.20100000E+01
  1.00800000E+00  1.00800000E+00  1.20100000E+01  1.00800000E+00  1.00800000E+00
  1.20100000E+01  1.00800000E+00  1.00800000E+00  1.00800000E+00  1.00800000E+00
  1.20100000E+01  1.20100000E+01  1.00800000E+00  1.00800000E+00  1.00800000E+00
  1.20100000E+01  1.00800000E+00  1.00800000E+00  1.00800000E+00  1.00800000E+00
  3.20600000E+01  1.20100000E+01  1.20100000E+01  1.20100000E+01  1.20100000E+01
  1.20100000E+01  1.20100000E+01  1.20100000E+01  1.20100000E+01  3.20600000E+01
  1.20100000E+01  1.00800000E+00  1.20100000E+01  1.20100000E+01  1.00800000E+00
  1.20100000E+01  1.20100000E+01  1.20100000E+01  1.00800000E+00  1.20100000E+01
  1.00800000E+00  1.00800000E+00  1.00800000E+00  1.20100000E+01  1.20100000E+01
  1.20100000E+01  1.20100000E+01  1.00800000E+00  1.20100000E+01  1.00800000E+00
  1.20100000E+01  1.00800000E+00  1.00800000E+00  1.20100000E+01  1.00800000E+00
  1.00800000E+00  1.20100000E+01  1.00800000E+00  1.00800000E+00  1.00800000E+00
  1.20100000E+01  1.00800000E+00  1.00800000E+00  1.20100000E+01  1.00800000E+00
  1.00800000E+00  1.20100000E+01  1.00800000E+00  1.00800000E+00  1.20100000E+01
  1.00800000E+00  1.00800000E+00  1.00800000E+00  1.00800000E+00  1.20100000E+01
  1.20100000E+01  1.00800000E+00  1.00800000E+00  1.00800000E+00  1.20100000E+01
  1.00800000E+00  1.00800000E+00  1.00800000E+00  1.00800000E+00  3.20600000E+01
  1.20100000E+01  1.20100000E+01  1.20100000E+01  1.20100000E+01  1.20100000E+01
  1.20100000E+01  1.20100000E+01  1.20100000E+01  3.20600000E+01  1.20100000E+01
  1.00800000E+00  1.20100000E+01  1.20100000E+01  1.00800000E+00  1.20100000E+01
  1.20100000E+01  1.20100000E+01  1.00800000E+00  1.20100000E+01  1.00800000E+00
  1.00800000E+00  1.00800000E+00  1.20100000E+01  1.20100000E+01  1.20100000E+01
  1.20100000E+01  1.00800000E+00  1.20100000E+01  1.00800000E+00  1.20100000E+01
  1.00800000E+00  1.00800000E+00  1.20100000E+01  1.00800000E+00  1.00800000E+00
  1.20100000E+01  1.00800000E+00  1.00800000E+00  1.00800000E+00  1.20100000E+01
  1.00800000E+00  1.00800000E+00  1.20100000E+01  1.00800000E+00  1.00800000E+00
  1.20100000E+01  1.00800000E+00  1.00800000E+00  1.20100000E+01  1.00800000E+00
  1.00800000E+00  1.00800000E+00  1.00800000E+00  1.20100000E+01  1.20100000E+01
  1.00800000E+00  1.00800000E+00  1.00800000E+00  1.20100000E+01  1.00800000E+00
  1.00800000E+00  1.00800000E+00  1.00800000E+00  3.20600000E+01  1.20100000E+01
  1.20100000E+01  1.20100000E+01  1.20100000E+01  1.20100000E+01  1.20100000E+01
  1.20100000E+01  1.20100000E+01  3.20600000E+01  1.20100000E+01  1.00800000E+00
  1.20100000E+01  1.20100000E+01  1.00800000E+00  1.20100000E+01  1.20100000E+01
  1.20100000E+01  1.00800000E+00  1.20100000E+01  1.00800000E+00  1.00800000E+00
  1.00800000E+00  1.20100000E+01  1.20100000E+01  1.20100000E+01  1.20100000E+01
  1.00800000E+00  1.20100000E+01  1.00800000E+00  1.20100000E+01  1.00800000E+00
  1.00800000E+00  1.20100000E+01  1.00800000E+00  1.00800000E+00  1.20100000E+01
  1.00800000E+00  1.00800000E+00  1.00800000E+00  1.20100000E+01  1.00800000E+00
  1.00800000E+00  1.20100000E+01  1.00800000E+00  1.00800000E+00  1.20100000E+01
  1.00800000E+00  1.00800000E+00  1.20100000E+01  1.00800000E+00  1.00800000E+00
  1.00800000E+00  1.00800000E+00  1.20100000E+01  1.20100000E+01  1.00800000E+00
  1.00800000E+00  1.00800000E+00  1.20100000E+01  1.00800000E+00  1.00800000E+00
  1.00800000E+00  1.00800000E+00
%FLAG ATOM_TYPE_INDEX                                                           
%FORMAT(10I8)                                                                   
       1       2       2       2       2       2       2       2       2       1
       2       3       2       2       3       2       2       2       3       2
       3       3       3       2       2       4       2       3       2       3
       4       5       5       2       3       3       4       5       5       3
       4       5       5       4       5       5       4       5       5       4
       5       5       5       5       4       4       5       5       5       4
       5       5       5       5       1       2       2       2       2       2
       2       2       2       1       2       3       2       2       3       2
       2       2       3       2       3       3       3       2       2       4
       2       3       2       3       4       5       5       2       3       3
       4       5       5       3       4       5       5       4       5       5
       4       5       5       4       5       5       5       5       4       4
       5       5       5       4       5       5       5       5       1       2
       2       2       2       2       2       2       2       1       2       3
       2       2       3       2       2       2       3       2       3       3
       3       2       2       4       2       3       2       3       4       5
       5       2       3       3       4       5       5       3       4       5
       5       4       5       5       4       5       5       4       5       5
       5       5       4       4       5       5       5       4       5       5
       5       5       1       2       2       2       2       2       2       2
       2       1       2       3       2       2       3       2       2       2
       3       2       3       3       3       2       2       4       2       3
       2       3       4       5       5       2       3       3       4       5
       5       3       4       5       5       4       5       5       4       5
       5       4       5       5       5       5       4       4       5       5
       5       4       5       5       5       5       1       2       2       2
       2       2       2       2       2       1       2       3       2       2
       3       2       2       2       3       2       3       3       3       2
       2       4       2       3       2       3       4       5       5       2
       3       3       4       5       5       3       4       5       5       4
       5       5       4       5       5       4       5       5       5       5
       4       4       5       5       5       4       5       5       5       5
       1       2       2       2       2       2       2       2       2       1
       2       3       2       2       3       2       2       2       3       2
       3       3       3       2       2       4       2       3       2       3
       4       5       5       2       3       3       4       5       5       3
       4       5       5       4       5       5       4       5       5       4
       5       5       5       5       4       4       5       5       5       4
       5       5       5       5       1       2       2       2       2       2
       2       2       2       1       2       3       2       2       3       2
       2       2       3       2       3       3       3       2       2       4
       2       3       2       3       4       5       5       2       3       3
       4       5       5       3       4       5       5       4       5       5
       4       5       5       4       5       5       5       5       4       4
       5       5       5       4       5       5       5       5       1       2
       2       2       2       2       2       2       2       1       2       3
       2       2       3       2       2       2       3       2       3       3
       3       2       2       4       2       3       2       3       4       5
       5       2       3       3       4       5       5       3       4       5
       5       4       5       5       4       5       5       4       5       5
       5       5       4       4       5       5       5       4       5       5
       5       5       1       2       2       2       2       2       2       2
       2       1       2       3       2       2       3       2       2       2
       3       2       3       3       3       2       2       4       2       3
       2       3       4       5       5       2       3       3       4       5
       5       3       4       5       5       4       5       5       4       5
       5       4       5       5       5       5       4       4       5       5
       5       4       5       5       5       5       1       2       2       2
       2       2       2       2       2       1       2       3       2       2
       3       2       2       2       3       2       3       3       3       2
       2       4       2       3       2       3       4       5       5       2
       3       3       4       5       5       3       4       5       5       4
       5       5       4       5       5       4       5       5       5       5
       4       4       5       5       5       4       5       5       5       5
       1       2       2       2       2       2       2       2       2       1
       2       3       2       2       3       2       2       2       3       2
       3       3       3       2       2       4       2       3       2       3
       4       5       5       2       3       3       4       5       5       3
       4       5       5       4       5       5       4       5       5       4
       5       5       5       5       4       4       5       5       5       4
       5       5       5       5       1       2       2       2       2       2
       2       2       2       1       2       3       2       2       3       2
       2       2       3       2       3       3       3       2       2       4
       2       3       2       3       4       5       5       2       3       3
       4       5       5       3       4       5       5       4       5       5
       4       5       5       4       5       5       5       5       4       4
       5       5       5       4       5       5       5       5       1       2
       2       2       2       2       2       2       2       1       2       3
       2       2       3       2       2       2       3       2       3       3
       3       2       2       4       2       3       2       3       4       5
       5       2       3       3       4       5       5       3       4       5
       5       4       5       5       4       5       5       4       5       5
       5       5       4       4       5       5       5       4       5       5
       5       5       1       2       2       2       2       2       2       2
       2       1       2       3       2       2       3       2       2       2
       3       2       3       3       3       2       2       4       2       3
       2       3       4       5       5       2       3       3       4       5
       5       3       4       5       5       4       5       5       4       5
       5       4       5       5       5       5       4       4       5       5
       5       4       5       5       5       5       1       2       2       2
       2       2       2       2       2       1       2       3       2       2
       3       2       2       2       3       2       3       3       3       2
       2       4       2       3       2       3       4       5       5       2
       3       3       4       5       5       3       4       5       5       4
       5       5       4       5       5       4       5       5       5       5
       4       4       5       5       5       4       5       5       5       5
       1       2       2       2       2       2       2       2       2       1
       2       3       2       2       3       2       2       2       3       2
       3       3       3       2       2       4       2       3       2       3
       4       5       5       2       3       3       4       5       5       3
       4       5       5       4       5       5       4       5       5       4
       5       5       5       5       4       4       5       5       5       4
       5       5       5       5       1       2       2       2       2       2
       2       2       2       1       2       3       2       2       3       2
       2       2       3       2       3       3       3       2       2       4
       2       3       2       3       4       5       5       2       3       3
       4       5       5       3       4       5       5       4       5       5
       4       5       5       4       5       5       5       5       4       4
       5       5       5       4       5       5       5       5       1       2
       2       2       2       2       2       2       2       1       2       3
       2       2       3       2       2       2       3       2       3       3
       3       2       2       4       2       3       2       3       4       5
       5       2       3       3       4       5       5       3       4       5
       5       4       5       5       4       5       5       4       5       5
       5       5       4       4       5       5       5       4       5       5
       5       5       1       2       2       2       2       2       2       2
       2       1       2       3       2       2       3       2       2       2
       3       2       3       3       3       2       2       4       2       3
       2       3       4       5       5       2       3       3       4       5
       5       3       4       5       5       4       5       5       4       5
       5       4       5       5       5       5       4       4       5       5
       5       4       5       5       5       5       1       2       2       2
       2       2       2       2       2       1       2       3       2       2
       3       2       2       2       3       2       3       3       3       2
       2       4       2       3       2       3       4       5       5       2
       3       3       4       5       5       3       4       5       5       4
       5       5       4       5       5       4       5       5       5       5
       4       4       5       5       5       4       5       5       5       5
       1       2       2       2       2       2       2       2       2       1
       2       3       2       2       3       2       2       2       3       2
       3       3       3       2       2       4       2       3       2       3
       4       5       5       2       3       3       4       5       5       3
       4       5       5       4       5       5       4       5       5       4
       5       5       5       5       4       4       5       5       5       4
       5       5       5       5       1       2       2       2       2       2
       2       2       2       1       2       3       2       2       3       2
       2       2       3       2       3       3       3       2       2       4
       2       3       2       3       4       5       5       2       3       3
       4       5       5       3       4       5       5       4       5       5
       4       5       5       4       5       5       5       5       4       4
       5       5       5       4       5       5       5       5       1       2
       2       2       2       2       2       2       2       1       2       3
       2       2       3       2       2       2       3       2       3       3
       3       2       2       4       2       3       2       3       4       5
       5       2       3       3       4       5       5       3       4       5
       5       4       5       5       4       5       5       4       5       5
       5       5       4       4       5       5       5       4       5       5
       5       5       1       2       2       2       2       2       2       2
       2       1       2       3       2       2       3       2       2       2
       3       2       3       3       3       2       2       4       2       3
       2       3       4       5       5       2       3       3       4       5
       5       3       4       5       5       4       5       5       4       5
       5       4       5       5       5       5       4       4       5       5
       5       4       5       5       5       5       1       2       2       2
       2       2       2       2       2       1       2       3       2       2
       3       2       2       2       3       2       3       3       3       2
       2       4       2       3       2       3       4       5       5       2
       3       3       4       5       5       3       4       5       5       4
       5       5       4       5       5       4       5       5       5       5
       4       4       5       5       5       4       5       5       5       5
       1       2       2       2       2       2       2       2       2       1
       2       3       2       2       3       2       2       2       3       2
       3       3       3       2       2       4       2       3       2       3
       4       5       5       2       3       3       4       5       5       3
       4       5       5       4       5       5       4       5       5       4
       5       5       5       5       4       4       5       5       5       4
       5       5       5       5       1       2       2       2       2       2
       2       2       2       1       2       3       2       2       3       2
       2       2       3       2       3       3       3       2       2       4
       2       3       2       3       4       5       5       2       3       3
       4       5       5       3       4       5       5       4       5       5
       4       5       5       4       5       5       5       5       4       4
       5       5       5       4       5       5       5       5       1       2
       2       2       2       2       2       2       2       1       2       3
       2       2       3       2       2       2       3       2       3       3
       3       2       2       4       2       3       2       3       4       5
       5       2       3       3       4       5       5       3       4       5
       5       4       5       5       4       5       5       4       5       5
       5       5       4       4       5       5       5       4       5       5
       5       5       1       2       2       2       2       2       2       2
       2       1       2       3       2       2       3       2       2       2
       3       2       3       3       3       2       2       4       2       3
       2       3       4       5       5       2       3       3       4       5
       5       3       4       5       5       4       5       5       4       5
       5       4       5       5       5       5       4       4       5       5
       5       4       5       5       5       5       1       2       2       2
       2       2       2       2       2       1       2       3       2       2
       3       2       2       2       3       2       3       3       3       2
       2       4       2       3       2       3       4       5       5       2
       3       3       4       5       5       3       4       5       5       4
       5       5       4       5       5       4       5       5       5       5
       4       4       5       5       5       4       5       5       5       5
       1       2       2       2       2       2       2       2       2       1
       2       3       2       2       3       2       2       2       3       2
       3       3       3       2       2       4       2       3       2       3
       4       5       5       2       3       3       4       5       5       3
       4       5       5       4       5       5       4       5       5       4
       5       5       5       5       4       4       5       5       5       4
       5       5       5       5       1       2       2       2       2       2
       2       2       2       1       2       3       2       2       3       2
       2       2       3       2       3       3       3       2       2       4
       2       3       2       3       4       5       5       2       3       3
       4       5       5       3       4       5       5       4       5       5
       4       5       5       4       5       5       5       5       4       4
       5       5       5       4       5       5       5       5       1       2
       2       2       2       2       2       2       2       1       2       3
       2       2       3       2       2       2       3       2       3       3
       3       2       2       4       2       3       2       3       4       5
       5       2       3       3       4       5       5       3       4       5
       5       4       5       5       4       5       5       4       5       5
       5       5       4       4       5       5       5       4       5       5
       5       5       1       2       2       2       2       2       2       2
       2       1       2       3       2       2       3       2       2       2
       3       2       3       3       3       2       2       4       2       3
       2       3       4       5       5       2       3       3       4       5
       5       3       4       5       5       4       5       5       4       5
       5       4       5       5       5       5       4       4       5       5
       5       4       5       5       5       5       1       2       2       2
       2       2       2       2       2       1       2       3       2       2
       3       2       2       2       3       2       3       3       3       2
       2       4       2       3       2       3       4       5       5       2
       3       3       4       5       5       3       4       5       5       4
       5       5       4       5       5       4       5       5       5       5
       4       4       5       5       5       4       5       5       5       5
       1       2       2       2       2       2       2       2       2       1
       2       3       2       2       3       2       2       2       3       2
       3       3       3       2       2       4       2       3       2       3
       4       5       5       2       3       3       4       5       5       3
       4       5       5       4       5       5       4       5       5       4
       5       5       5       5       4       4       5       5       5       4
       5       5       5       5       1       2       2       2       2       2
       2       2       2       1       2       3       2       2       3       2
       2       2       3       2       3       3       3       2       2       4
       2       3       2       3       4       5       5       2       3       3
       4       5       5       3       4       5       5       4       5       5
       4       5       5       4       5       5       5       5       4       4
       5       5       5       4       5       5       5       5       1       2
       2       2       2       2       2       2       2       1       2       3
       2       2       3       2       2       2       3       2       3       3
       3       2       2       4       2       3       2       3       4       5
       5       2       3       3       4       5       5       3       4       5
       5       4       5       5       4       5       5       4       5       5
       5       5       4       4       5       5       5       4       5       5
       5       5       1       2       2       2       2       2       2       2
       2       1       2       3       2       2       3       2       2       2
       3       2       3       3       3       2       2       4       2       3
       2       3       4       5       5       2       3       3       4       5
       5       3       4       5       5       4       5       5       4       5
       5       4       5       5       5       5       4       4       5       5
       5       4       5       5       5       5       1       2       2       2
       2       2       2       2       2       1       2       3       2       2
       3       2       2       2       3       2       3       3       3       2
       2       4       2       3       2       3       4       5       5       2
       3       3       4       5       5       3       4       5       5       4
       5       5       4       5       5       4       5       5       5       5
       4       4       5       5       5       4       5       5       5       5
       1       2       2       2       2       2       2       2       2       1
       2       3       2       2       3       2       2       2       3       2
       3       3       3       2       2       4       2       3       2       3
       4       5       5       2       3       3       4       5       5       3
       4       5       5       4       5       5       4       5       5       4
       5       5       5       5       4       4       5       5       5       4
       5       5       5       5       1       2       2       2       2       2
       2       2       2       1       2       3       2       2       3       2
       2       2       3       2       3       3       3       2       2       4
       2       3       2       3       4       5       5       2       3       3
       4       5       5       3       4       5       5       4       5       5
       4       5       5       4       5       5       5       5       4       4
       5       5       5       4       5       5       5       5       1       2
       2       2       2       2       2       2       2       1       2       3
       2       2       3       2       2       2       3       2       3       3
       3       2       2       4       2       3       2       3       4       5
       5       2       3       3       4       5       5       3       4       5
       5       4       5       5       4       5       5       4       5       5
       5       5       4       4       5       5       5       4       5       5
       5       5       1       2       2       2       2       2       2       2
       2       1       2       3       2       2       3       2       2       2
       3       2       3       3       3       2       2       4       2       3
       2       3       4       5       5       2       3       3       4       5
       5       3       4       5       5       4       5       5       4       5
       5       4       5       5       5       5       4       4       5       5
       5       4       5       5       5       5       1       2       2       2
       2       2       2       2       2       1       2       3       2       2
       3       2       2       2       3       2       3       3       3       2
       2       4       2       3       2       3       4       5       5       2
       3       3       4       5       5       3       4       5       5       4
       5       5       4       5       5       4       5       5       5       5
       4       4       5       5       5       4       5       5       5       5
       1       2       2       2       2       2       2       2       2       1
       2       3       2       2       3       2       2       2       3       2
       3       3       3       2       2       4       2       3       2       3
       4       5       5       2       3       3       4       5       5       3
       4       5       5       4       5       5       4       5       5       4
       5       5       5       5       4       4       5       5       5       4
       5       5       5       5       1       2       2       2       2       2
       2       2       2       1       2       3       2       2       3       2
       2       2       3       2       3       3       3       2       2       4
       2       3       2       3       4       5       5       2       3       3
       4       5       5       3       4       5       5       4       5       5
       4       5       5       4       5       5       5       5       4       4
       5       5       5       4       5       5       5       5       1       2
       2       2       2       2       2       2       2       1       2       3
       2       2       3       2       2       2       3       2       3       3
       3       2       2       4       2       3       2       3       4       5
       5       2       3       3       4       5       5       3       4       5
       5       4       5       5       4       5       5       4       5       5
       5       5       4       4       5       5       5       4       5       5
       5       5       1       2       2       2       2       2       2       2
       2       1       2       3       2       2       3       2       2       2
       3       2       3       3       3       2       2       4       2       3
       2       3       4       5       5       2       3       3       4       5
       5       3       4       5       5       4       5       5       4       5
       5       4       5       5       5       5       4       4       5       5
       5       4       5       5       5       5       1       2       2       2
       2       2       2       2       2       1       2       3       2       2
       3       2       2       2       3       2       3       3       3       2
       2       4       2       3       2       3       4       5       5       2
       3       3       4       5       5       3       4       5       5       4
       5       5       4       5       5       4       5       5       5       5
       4       4       5       5       5       4       5       5       5       5
       1       2       2       2       2       2       2       2       2       1
       2       3       2       2       3       2       2       2       3       2
       3       3       3       2       2       4       2       3       2       3
       4       5       5       2       3       3       4       5       5       3
       4       5       5       4       5       5       4       5       5       4
       5       5       5       5       4       4       5       5       5       4
       5       5       5       5       1       2       2       2       2       2
       2       2       2       1       2       3       2       2       3       2
       2       2       3       2       3       3       3       2       2       4
       2       3       2       3       4       5       5       2       3       3
       4       5       5       3       4       5       5       4       5       5
       4       5       5       4       5       5       5       5       4       4
       5       5       5       4       5       5       5       5       1       2
       2       2       2       2       2       2       2       1       2       3
       2       2       3       2       2       2       3       2       3       3
       3       2       2       4       2       3       2       3       4       5
       5       2       3       3       4       5       5       3       4       5
       5       4       5       5       4       5       5       4       5       5
       5       5       4       4       5       5       5       4       5       5
       5       5       1       2       2       2       2       2       2       2
       2       1       2       3       2       2       3       2       2       2
       3       2       3       3       3       2       2       4       2       3
       2       3       4       5       5       2       3       3       4       5
       5       3       4       5       5       4       5       5       4       5
       5       4       5       5       5       5       4       4       5       5
       5       4       5       5       5       5       1       2       2       2
       2       2       2       2       2       1       2       3       2       2
       3       2       2       2       3       2       3       3       3       2
       2       4       2       3       2       3       4       5       5       2
       3       3       4       5       5       3       4       5       5       4
       5       5       4       5       5       4       5       5       5       5
       4       4       5       5       5       4       5       5       5       5
       1       2       2       2       2       2       2       2       2       1
       2       3       2       2       3       2       2       2       3       2
       3       3       3       2       2       4       2       3       2       3
       4       5       5       2       3       3       4       5       5       3
       4       5       5       4       5       5       4       5       5       4
       5       5       5       5       4       4       5       5       5       4
       5       5       5       5       1       2       2       2       2       2
       2       2       2       1       2       3       2       2       3       2
       2       2       3       2       3       3       3       2       2       4
       2       3       2       3       4       5       5       2       3       3
       4       5       5       3       4       5       5       4       5       5
       4       5       5       4       5       5       5       5       4       4
       5       5       5       4       5       5       5       5       1       2
       2       2       2       2       2       2       2       1       2       3
       2       2       3       2       2       2       3       2       3       3
       3       2       2       4       2       3       2       3       4       5
       5       2       3       3       4       5       5       3       4       5
       5       4       5       5       4       5       5       4       5       5
       5       5       4       4       5       5       5       4       5       5
       5       5       1       2       2       2       2       2       2       2
       2       1       2       3       2       2       3       2       2       2
       3       2       3       3       3       2       2       4       2       3
       2       3       4       5       5       2       3       3       4       5
       5       3       4       5       5       4       5       5       4       5
       5       4       5       5       5       5       4       4       5       5
       5       4       5       5       5       5       1       2       2       2
       2       2       2       2       2       1       2       3       2       2
       3       2       2       2       3       2       3       3       3       2
       2       4       2       3       2       3       4       5       5       2
       3       3       4       5       5       3       4       5       5       4
       5       5       4       5       5       4       5       5       5       5
       4       4       5       5       5       4       5       5       5       5
       1       2       2       2       2       2       2       2       2       1
       2       3       2       2       3       2       2       2       3       2
       3       3       3       2       2       4       2       3       2       3
       4       5       5       2       3       3       4       5       5       3
       4       5       5       4       5       5       4       5       5       4
       5       5       5       5       4       4       5       5       5       4
       5       5       5       5       1       2       2       2       2       2
       2       2       2       1       2       3       2       2       3       2
       2       2       3       2       3       3       3       2       2       4
       2       3       2       3       4       5       5       2       3       3
       4       5       5       3       4       5       5       4       5       5
       4       5       5       4       5       5       5       5       4       4
       5       5       5       4       5       5       5       5       1       2
       2       2       2       2       2       2       2       1       2       3
       2       2       3       2       2       2       3       2       3       3
       3       2       2       4       2       3       2       3       4       5
       5       2       3       3       4       5       5       3       4       5
       5       4       5       5       4       5       5       4       5       5
       5       5       4       4       5       5       5       4       5       5
       5       5       1       2       2       2       2       2       2       2
       2       1       2       3       2       2       3       2       2       2
       3       2       3       3       3       2       2       4       2       3
       2       3       4       5       5       2       3       3       4       5
       5       3       4       5       5       4       5       5       4       5
       5       4       5       5       5       5       4       4       5       5
       5       4       5       5       5       5       1       2       2       2
       2       2       2       2       2       1       2       3       2       2
       3       2       2       2       3       2       3       3       3       2
       2       4       2       3       2       3       4       5       5       2
       3       3       4       5       5       3       4       5       5       4
       5       5       4       5       5       4       5       5       5       5
       4       4       5       5       5       4       5       5       5       5
       1       2       2       2       2       2       2       2       2       1
       2       3       2       2       3       2       2       2       3       2
       3       3       3       2       2       4       2       3       2       3
       4       5       5       2       3       3       4       5       5       3
       4       5       5       4       5       5       4       5       5       4
       5       5       5       5       4       4       5       5       5       4
       5       5       5       5       1       2       2       2       2       2
       2       2       2       1       2       3       2       2       3       2
       2       2       3       2       3       3       3       2       2       4
       2       3       2       3       4       5       5       2       3       3
       4       5       5       3       4       5       5       4       5       5
       4       5       5       4       5       5       5       5       4       4
       5       5       5       4       5       5       5       5       1       2
       2       2       2       2       2       2       2       1       2       3
       2       2       3       2       2       2       3       2       3       3
       3       2       2       4       2       3       2       3       4       5
       5       2       3       3       4       5       5       3       4       5
       5       4       5       5       4       5       5       4       5       5
       5       5       4       4       5       5       5       4       5       5
       5       5       1       2       2       2       2       2       2       2
       2       1       2       3       2       2       3       2       2       2
       3       2       3       3       3       2       2       4       2       3
       2       3       4       5       5       2       3       3       4       5
       5       3       4       5       5       4       5       5       4       5
       5       4       5       5       5       5       4       4       5       5
       5       4       5       5       5       5       1       2       2       2
       2       2       2       2       2       1       2       3       2       2
       3       2       2       2       3       2       3       3       3       2
       2       4       2       3       2       3       4       5       5       2
       3       3       4       5       5       3       4       5       5       4
       5       5       4       5       5       4       5       5       5       5
       4       4       5       5       5       4       5       5       5       5
       1       2       2       2       2       2       2       2       2       1
       2       3       2       2       3       2       2       2       3       2
       3       3       3       2       2       4       2       3       2       3
       4       5       5       2       3       3       4       5       5       3
       4       5       5       4       5       5       4       5       5       4
       5       5       5       5       4       4       5       5       5       4
       5       5       5       5       1       2       2       2       2       2
       2       2       2       1       2       3       2       2       3       2
       2       2       3       2       3       3       3       2       2       4
       2       3       2       3       4       5       5       2       3       3
       4       5       5       3       4       5       5       4       5       5
       4       5       5       4       5       5       5       5       4       4
       5       5       5       4       5       5       5       5       1       2
       2       2       2       2       2       2       2       1       2       3
       2       2       3       2       2       2       3       2       3       3
       3       2       2       4       2       3       2       3       4       5
       5       2       3       3       4       5       5       3       4       5
       5       4       5       5       4       5       5       4       5       5
       5       5       4       4       5       5       5       4       5       5
       5       5       1       2       2       2       2       2       2       2
       2       1       2       3       2       2       3       2       2       2
       3       2       3       3       3       2       2       4       2       3
       2       3       4       5       5       2       3       3       4       5
       5       3       4       5       5       4       5       5       4       5
       5       4       5       5       5       5       4       4       5       5
       5       4       5       5       5       5       1       2       2       2
       2       2       2       2       2       1       2       3       2       2
       3       2       2       2       3       2       3       3       3       2
       2       4       2       3       2       3       4       5       5       2
       3       3       4       5       5       3       4       5       5       4
       5       5       4       5       5       4       5       5       5       5
       4       4       5       5       5       4       5       5       5       5
       1       2       2       2       2       2       2       2       2       1
       2       3       2       2       3       2       2       2       3       2
       3       3       3       2       2       4       2       3       2       3
       4       5       5       2       3       3       4       5       5       3
       4       5       5       4       5       5       4       5       5       4
       5       5       5       5       4       4       5       5       5       4
       5       5       5       5       1       2       2       2       2       2
       2       2       2       1       2       3       2       2       3       2
       2       2       3       2       3       3       3       2       2       4
       2       3       2       3       4       5       5       2       3       3
       4       5       5       3       4       5       5       4       5       5
       4       5       5       4       5       5       5       5       4       4
       5       5       5       4       5       5       5       5       1       2
       2       2       2       2       2       2       2       1       2       3
       2       2       3       2       2       2       3       2       3       3
       3       2       2       4       2       3       2       3       4       5
       5       2       3       3       4       5       5       3       4       5
       5       4       5       5       4       5       5       4       5       5
       5       5       4       4       5       5       5       4       5       5
       5       5       1       2       2       2       2       2       2       2
       2       1       2       3       2       2       3       2       2       2
       3       2       3       3       3       2       2       4       2       3
       2       3       4       5       5       2       3       3       4       5
       5       3       4       5       5       4       5       5       4       5
       5       4       5       5       5       5       4       4       5       5
       5       4       5       5       5       5       1       2       2       2
       2       2       2       2       2       1       2       3       2       2
       3       2       2       2       3       2       3       3       3       2
       2       4       2       3       2       3       4       5       5       2
       3       3       4       5       5       3       4       5       5       4
       5       5       4       5       5       4       5       5       5       5
       4       4       5       5       5       4       5       5       5       5
       1       2       2       2       2       2       2       2       2       1
       2       3       2       2       3       2       2       2       3       2
       3       3       3       2       2       4       2       3       2       3
       4       5       5       2       3       3       4       5       5       3
       4       5       5       4       5       5       4       5       5       4
       5       5       5       5       4       4       5       5       5       4
       5       5       5       5       1       2       2       2       2       2
       2       2       2       1       2       3       2       2       3       2
       2       2       3       2       3       3       3       2       2       4
       2       3       2       3       4       5       5       2       3       3
       4       5       5       3       4       5       5       4       5       5
       4       5       5       4       5       5       5       5       4       4
       5       5       5       4       5       5       5       5       1       2
       2       2       2       2       2       2       2       1       2       3
       2       2       3       2       2       2       3       2       3       3
       3       2       2       4       2       3       2       3       4       5
       5       2       3       3       4       5       5       3       4       5
       5       4       5       5       4       5       5       4       5       5
       5       5       4       4       5       5       5       4       5       5
       5       5       1       2       2       2       2       2       2       2
       2       1       2       3       2       2       3       2       2       2
       3       2       3       3       3       2       2       4       2       3
       2       3       4       5       5       2       3       3       4       5
       5       3       4       5       5       4       5       5       4       5
       5       4       5       5       5       5       4       4       5       5
       5       4       5       5       5       5       1       2       2       2
       2       2       2       2       2       1       2       3       2       2
       3       2       2       2       3       2       3       3       3       2
       2       4       2       3       2       3       4       5       5       2
       3       3       4       5       5       3       4       5       5       4
       5       5       4       5       5       4       5       5       5       5
       4       4       5       5       5       4       5       5       5       5
       1       2       2       2       2       2       2       2       2       1
       2       3       2       2       3       2       2       2       3       2
       3       3       3       2       2       4       2       3       2       3
       4       5       5       2       3       3       4       5       5       3
       4       5       5       4       5       5       4       5       5       4
       5       5       5       5       4       4       5       5       5       4
       5       5       5       5       1       2       2       2       2       2
       2       2       2       1       2       3       2       2       3       2
       2       2       3       2       3       3       3       2       2       4
       2       3       2       3       4       5       5       2       3       3
       4       5       5       3       4       5       5       4       5       5
       4       5       5       4       5       5       5       5       4       4
       5       5       5       4       5       5       5       5       1       2
       2       2       2       2       2       2       2       1       2       3
       2       2       3       2       2       2       3       2       3       3
       3       2       2       4       2       3       2       3       4       5
       5       2       3       3       4       5       5       3       4       5
       5       4       5       5       4       5       5       4       5       5
       5       5       4       4       5       5       5       4       5       5
       5       5       1       2       2       2       2       2       2       2
       2       1       2       3       2       2       3       2       2       2
       3       2       3       3       3       2       2       4       2       3
       2       3       4       5       5       2       3       3       4       5
       5       3       4       5       5       4       5       5       4       5
       5       4       5       5       5       5       4       4       5       5
       5       4       5       5       5       5       1       2       2       2
       2       2       2       2       2       1       2       3       2       2
       3       2       2       2       3       2       3       3       3       2
       2       4       2       3       2       3       4       5       5       2
       3       3       4       5       5       3       4       5       5       4
       5       5       4       5       5       4       5       5       5       5
       4       4       5       5       5       4       5       5       5       5
       1       2       2       2       2       2       2       2       2       1
       2       3       2       2       3       2       2       2       3       2
       3       3       3       2       2       4       2       3       2       3
       4       5       5       2       3       3       4       5       5       3
       4       5       5       4       5       5       4       5       5       4
       5       5       5       5       4       4       5       5       5       4
       5       5       5       5       1       2       2       2       2       2
       2       2       2       1       2       3       2       2       3       2
       2       2       3       2       3       3       3       2       2       4
       2       3       2       3       4       5       5       2       3       3
       4       5       5       3       4       5       5       4       5       5
       4       5       5       4       5       5       5       5       4       4
       5       5       5       4       5       5       5       5       1       2
       2       2       2       2       2       2       2       1       2       3
       2       2       3       2       2       2       3       2       3       3
       3       2       2       4       2       3       2       3       4       5
       5       2       3       3       4       5       5       3       4       5
       5       4       5       5       4       5       5       4       5       5
       5       5       4       4       5       5       5       4       5       5
       5       5       1       2       2       2       2       2       2       2
       2       1       2       3       2       2       3       2       2       2
       3       2       3       3       3       2       2       4       2       3
       2       3       4       5       5       2       3       3       4       5
       5       3       4       5       5       4       5       5       4       5
       5       4       5       5       5       5       4       4       5       5
       5       4       5       5       5       5       1       2       2       2
       2       2       2       2       2       1       2       3       2       2
       3       2       2       2       3       2       3       3       3       2
       2       4       2       3       2       3       4       5       5       2
       3       3       4       5       5       3       4       5       5       4
       5       5       4       5       5       4       5       5       5       5
       4       4       5       5       5       4       5       5       5       5
       1       2       2       2       2       2       2       2       2       1
       2       3       2       2       3       2       2       2       3       2
       3       3       3       2       2       4       2       3       2       3
       4       5       5       2       3       3       4       5       5       3
       4       5       5       4       5       5       4       5       5       4
       5       5       5       5       4       4       5       5       5       4
       5       5       5       5       1       2       2       2       2       2
       2       2       2       1       2       3       2       2       3       2
       2       2       3       2       3       3       3       2       2       4
       2       3       2       3       4       5       5       2       3       3
       4       5       5       3       4       5       5       4       5       5
       4       5       5       4       5       5       5       5       4       4
       5       5       5       4       5       5       5       5       1       2
       2       2       2       2       2       2       2       1       2       3
       2       2       3       2       2       2       3       2       3       3
       3       2       2       4       2       3       2       3       4       5
       5       2       3       3       4       5       5       3       4       5
       5       4       5       5       4       5       5       4       5       5
       5       5       4       4       5       5       5       4       5       5
       5       5       1       2       2       2       2       2       2       2
       2       1       2       3       2       2       3       2       2       2
       3       2       3       3       3       2       2       4       2       3
       2       3       4       5       5       2       3       3       4       5
       5       3       4       5       5       4       5       5       4       5
       5       4       5       5       5       5       4       4       5       5
       5       4       5       5       5       5       1       2       2       2
       2       2       2       2       2       1       2       3       2       2
       3       2       2       2       3       2       3       3       3       2
       2       4       2       3       2       3       4       5       5       2
       3       3       4       5       5       3       4       5       5       4
       5       5       4       5       5       4       5       5       5       5
       4       4       5       5       5       4       5       5       5       5
       1       2       2       2       2       2       2       2       2       1
       2       3       2       2       3       2       2       2       3       2
       3       3       3       2       2       4       2       3       2       3
       4       5       5       2       3       3       4       5       5       3
       4       5       5       4       5       5       4       5       5       4
       5       5       5       5       4       4       5       5       5       4
       5       5       5       5       1       2       2       2       2       2
       2       2       2       1       2       3       2       2       3       2
       2       2       3       2       3       3       3       2       2       4
       2       3       2       3       4       5       5       2       3       3
       4       5       5       3       4       5       5       4       5       5
       4       5       5       4       5       5       5       5       4       4
       5       5       5       4       5       5       5       5       1       2
       2       2       2       2       2       2       2       1       2       3
       2       2       3       2       2       2       3       2       3       3
       3       2       2       4       2       3       2       3       4       5
       5       2       3       3       4       5       5       3       4       5
       5       4       5       5       4       5       5       4       5       5
       5       5       4       4       5       5       5       4       5       5
       5       5       1       2       2       2       2       2       2       2
       2       1       2       3       2       2       3       2       2       2
       3       2       3       3       3       2       2       4       2       3
       2       3       4       5       5       2       3       3       4       5
       5       3       4       5       5       4       5       5       4       5
       5       4       5       5       5       5       4       4       5       5
       5       4       5       5       5       5       1       2       2       2
       2       2       2       2       2       1       2       3       2       2
       3       2       2       2       3       2       3       3       3       2
       2       4       2       3       2       3       4       5       5       2
       3       3       4       5       5       3       4       5       5       4
       5       5       4       5       5       4       5       5       5       5
       4       4       5       5       5       4       5       5       5       5
       1       2       2       2       2       2       2       2       2       1
       2       3       2       2       3       2       2       2       3       2
       3       3       3       2       2       4       2       3       2       3
       4       5       5       2       3       3       4       5       5       3
       4       5       5       4       5       5       4       5       5       4
       5       5       5       5       4       4       5       5       5       4
       5       5       5       5       1       2       2       2       2       2
       2       2       2       1       2       3       2       2       3       2
       2       2       3       2       3       3       3       2       2       4
       2       3       2       3       4       5       5       2       3       3
       4       5       5       3       4       5       5       4       5       5
       4       5       5       4       5       5       5       5       4       4
       5       5       5       4       5       5       5       5       1       2
       2       2       2       2       2       2       2       1       2       3
       2       2       3       2       2       2       3       2       3       3
       3       2       2       4       2       3       2       3       4       5
       5       2       3       3       4       5       5       3       4       5
       5       4       5       5       4       5       5       4       5       5
       5       5       4       4       5       5       5       4       5       5
       5       5       1       2       2       2       2       2       2       2
       2       1       2       3       2       2       3       2       2       2
       3       2       3       3       3       2       2       4       2       3
       2       3       4       5       5       2       3       3       4       5
       5       3       4       5       5       4       5       5       4       5
       5       4       5       5       5       5       4       4       5       5
       5       4       5       5       5       5       1       2       2       2
       2       2       2       2       2       1       2       3       2       2
       3       2       2       2       3       2       3       3       3       2
       2       4       2       3       2       3       4       5       5       2
       3       3       4       5       5       3       4       5       5       4
       5       5       4       5       5       4       5       5       5       5
       4       4       5       5       5       4       5       5       5       5
       1       2       2       2       2       2       2       2       2       1
       2       3       2       2       3       2       2       2       3       2
       3       3       3       2       2       4       2       3       2       3
       4       5       5       2       3       3       4       5       5       3
       4       5       5       4       5       5       4       5       5       4
       5       5       5       5       4       4       5       5       5       4
       5       5       5       5       1       2       2       2       2       2
       2       2       2       1       2       3       2       2       3       2
       2       2       3       2       3       3       3       2       2       4
       2       3       2       3       4       5       5       2       3       3
       4       5       5       3       4       5       5       4       5       5
       4       5       5       4       5       5       5       5       4       4
       5       5       5       4       5       5       5       5       1       2
       2       2       2       2       2       2       2       1       2       3
       2       2       3       2       2       2       3       2       3       3
       3       2       2       4       2       3       2       3       4       5
       5       2       3       3       4       5       5       3       4       5
       5       4       5       5       4       5       5       4       5       5
       5       5       4       4       5       5       5       4       5       5
       5       5       1       2       2       2       2       2       2       2
       2       1       2       3       2       2       3       2       2       2
       3       2       3       3       3       2       2       4       2       3
       2       3       4       5       5       2       3       3       4       5
       5       3       4       5       5       4       5       5       4       5
       5       4       5       5       5       5       4       4       5       5
       5       4       5       5       5       5       1       2       2       2
       2       2       2       2       2       1       2       3       2       2
       3       2       2       2       3       2       3       3       3       2
       2       4       2       3       2       3       4       5       5       2
       3       3       4       5       5       3       4       5       5       4
       5       5       4       5       5       4       5       5       5       5
       4       4       5       5       5       4       5       5       5       5
       1       2       2       2       2       2       2       2       2       1
       2       3       2       2       3       2       2       2       3       2
       3       3       3       2       2       4       2       3       2       3
       4       5       5       2       3       3       4       5       5       3
       4       5       5       4       5       5       4       5       5       4
       5       5       5       5       4       4       5       5       5       4
       5       5       5       5       1       2       2       2       2       2
       2       2       2       1       2       3       2       2       3       2
       2       2       3       2       3       3       3       2       2       4
       2       3       2       3       4       5       5       2       3       3
       4       5       5       3       4       5       5       4       5       5
       4       5       5       4       5       5       5       5       4       4
       5       5       5       4       5       5       5       5       1       2
       2       2       2       2       2       2       2       1       2       3
       2       2       3       2       2       2       3       2       3       3
       3       2       2       4       2       3       2       3       4       5
       5       2       3       3       4       5       5       3       4       5
       5       4       5       5       4       5       5       4       5       5
       5       5       4       4       5       5       5       4       5       5
       5       5       1       2       2       2       2       2       2       2
       2       1       2       3       2       2       3       2       2       2
       3       2       3       3       3       2       2       4       2       3
       2       3       4       5       5       2       3       3       4       5
       5       3       4       5       5       4       5       5       4       5
       5       4       5       5       5       5       4       4       5       5
       5       4       5       5       5       5       1       2       2       2
       2       2       2       2       2       1       2       3       2       2
       3       2       2       2       3       2       3       3       3       2
       2       4       2       3       2       3       4       5       5       2
       3       3       4       5       5       3       4       5       5       4
       5       5       4       5       5       4       5       5       5       5
       4       4       5       5       5       4       5       5       5       5
       1       2       2       2       2       2       2       2       2       1
       2       3       2       2       3       2       2       2       3       2
       3       3       3       2       2       4       2       3       2       3
       4       5       5       2       3       3       4       5       5       3
       4       5       5       4       5       5       4       5       5       4
       5       5       5       5       4       4       5       5       5       4
       5       5       5       5       1       2       2       2       2       2
       2       2       2       1       2       3       2       2       3       2
       2       2       3       2       3       3       3       2       2       4
       2       3       2       3       4       5       5       2       3       3
       4       5       5       3       4       5       5       4       5       5
       4       5       5       4       5       5       5       5       4       4
       5       5       5       4       5       5       5       5       1       2
       2       2       2       2       2       2       2       1       2       3
       2       2       3       2       2       2       3       2       3       3
       3       2       2       4       2       3       2       3       4       5
       5       2       3       3       4       5       5       3       4       5
       5       4       5       5       4       5       5       4       5       5
       5       5       4       4       5       5       5       4       5       5
       5       5       1       2       2       2       2       2       2       2
       2       1       2       3       2       2       3       2       2       2
       3       2       3       3       3       2       2       4       2       3
       2       3       4       5       5       2       3       3       4       5
       5       3       4       5       5       4       5       5       4       5
       5       4       5       5       5       5       4       4       5       5
       5       4       5       5       5       5       1       2       2       2
       2       2       2       2       2       1       2       3       2       2
       3       2       2       2       3       2       3       3       3       2
       2       4       2       3       2       3       4       5       5       2
       3       3       4       5       5       3       4       5       5       4
       5       5       4       5       5       4       5       5       5       5
       4       4       5       5       5       4       5       5       5       5
       1       2       2       2       2       2       2       2       2       1
       2       3       2       2       3       2       2       2       3       2
       3       3       3       2       2       4       2       3       2       3
       4       5       5       2       3       3       4       5       5       3
       4       5       5       4       5       5       4       5       5       4
       5       5       5       5       4       4       5       5       5       4
       5       5       5       5       1       2       2       2       2       2
       2       2       2       1       2       3       2       2       3       2
       2       2       3       2       3       3       3       2       2       4
       2       3       2       3       4       5       5       2       3       3
       4       5       5       3       4       5       5       4       5       5
       4       5       5       4       5       5       5       5       4       4
       5       5       5       4       5       5       5       5       1       2
       2       2       2       2       2       2       2       1       2       3
       2       2       3       2       2       2       3       2       3       3
       3       2       2       4       2       3       2       3       4       5
       5       2       3       3       4       5       5       3       4       5
       5       4       5       5       4       5       5       4       5       5
       5       5       4       4       5       5       5       4       5       5
       5       5       1       2       2       2       2       2       2       2
       2       1       2       3       2       2       3       2       2       2
       3       2       3       3       3       2       2       4       2       3
       2       3       4       5       5       2       3       3       4       5
       5       3       4       5       5       4       5       5       4       5
       5       4       5       5       5       5       4       4       5       5
       5       4       5       5       5       5       1       2       2       2
       2       2       2       2       2       1       2       3       2       2
       3       2       2       2       3       2       3       3       3       2
       2       4       2       3       2       3       4       5       5       2
       3       3       4       5       5       3       4       5       5       4
       5       5       4       5       5       4       5       5       5       5
       4       4       5       5       5       4       5       5       5       5
       1       2       2       2       2       2       2       2       2       1
       2       3       2       2       3       2       2       2       3       2
       3       3       3       2       2       4       2       3       2       3
       4       5       5       2       3       3       4       5       5       3
       4       5       5       4       5       5       4       5       5       4
       5       5       5       5       4       4       5       5       5       4
       5       5       5       5       1       2       2       2       2       2
       2       2       2       1       2       3       2       2       3       2
       2       2       3       2       3       3       3       2       2       4
       2       3       2       3       4       5       5       2       3       3
       4       5       5       3       4       5       5       4       5       5
       4       5       5       4       5       5       5       5       4       4
       5       5       5       4       5       5       5       5       1       2
       2       2       2       2       2       2       2       1       2       3
       2       2       3       2       2       2       3       2       3       3
       3       2       2       4       2       3       2       3       4       5
       5       2       3       3       4       5       5       3       4       5
       5       4       5       5       4       5       5       4       5       5
       5       5       4       4       5       5       5       4       5       5
       5       5       1       2       2       2       2       2       2       2
       2       1       2       3       2       2       3       2       2       2
       3       2       3       3       3       2       2       4       2       3
       2       3       4       5       5       2       3       3       4       5
       5       3       4       5       5       4       5       5       4       5
       5       4       5       5       5       5       4       4       5       5
       5       4       5       5       5       5       1       2       2       2
       2       2       2       2       2       1       2       3       2       2
       3       2       2       2       3       2       3       3       3       2
       2       4       2       3       2       3       4       5       5       2
       3       3       4       5       5       3       4       5       5       4
       5       5       4       5       5       4       5       5       5       5
       4       4       5       5       5       4       5       5       5       5
       1       2       2       2       2       2       2       2       2       1
       2       3       2       2       3       2       2       2       3       2
       3       3       3       2       2       4       2       3       2       3
       4       5       5       2       3       3       4       5       5       3
       4       5       5       4       5       5       4       5       5       4
       5       5       5       5       4       4       5       5       5       4
       5       5       5       5       1       2       2       2       2       2
       2       2       2       1       2       3       2       2       3       2
       2       2       3       2       3       3       3       2       2       4
       2       3       2       3       4       5       5       2       3       3
       4       5       5       3       4       5       5       4       5       5
       4       5       5       4       5       5       5       5       4       4
       5       5       5       4       5       5       5       5       1       2
       2       2       2       2       2       2       2       1       2       3
       2       2       3       2       2       2       3       2       3       3
       3       2       2       4       2       3       2       3       4       5
       5       2       3       3       4       5       5       3       4       5
       5       4       5       5       4       5       5       4       5       5
       5       5       4       4       5       5       5       4       5       5
       5       5       1       2       2       2       2       2       2       2
       2       1       2       3       2       2       3       2       2       2
       3       2       3       3       3       2       2       4       2       3
       2       3       4       5       5       2       3       3       4       5
       5       3       4       5       5       4       5       5       4       5
       5       4       5       5       5       5       4       4       5       5
       5       4       5       5       5       5       1       2       2       2
       2       2       2       2       2       1       2       3       2       2
       3       2       2       2       3       2       3       3       3       2
       2       4       2       3       2       3       4       5       5       2
       3       3       4       5       5       3       4       5       5       4
       5       5       4       5       5       4       5       5       5       5
       4       4       5       5       5       4       5       5       5       5
       1       2       2       2       2       2       2       2       2       1
       2       3       2       2       3       2       2       2       3       2
       3       3       3       2       2       4       2       3       2       3
       4       5       5       2       3       3       4       5       5       3
       4       5       5       4       5       5       4       5       5       4
       5       5       5       5       4       4       5       5       5       4
       5       5       5       5       1       2       2       2       2       2
       2       2       2       1       2       3       2       2       3       2
       2       2       3       2       3       3       3       2       2       4
       2       3       2       3       4       5       5       2       3       3
       4       5       5       3       4       5       5       4       5       5
       4       5       5       4       5       5       5       5       4       4
       5       5       5       4       5       5       5       5       1       2
       2       2       2       2       2       2       2       1       2       3
       2       2       3       2       2       2       3       2       3       3
       3       2       2       4       2       3       2       3       4       5
       5       2       3       3       4       5       5       3       4       5
       5       4       5       5       4       5       5       4       5       5
       5       5       4       4       5       5       5       4       5       5
       5       5       1       2       2       2       2       2       2       2
       2       1       2       3       2       2       3       2       2       2
       3       2       3       3       3       2       2       4       2       3
       2       3       4       5       5       2       3       3       4       5
       5       3       4       5       5       4       5       5       4       5
       5       4       5       5       5       5       4       4       5       5
       5       4       5       5       5       5       1       2       2       2
       2       2       2       2       2       1       2       3       2       2
       3       2       2       2       3       2       3       3       3       2
       2       4       2       3       2       3       4       5       5       2
       3       3       4       5       5       3       4       5       5       4
       5       5       4       5       5       4       5       5       5       5
       4       4       5       5       5       4       5       5       5       5
       1       2       2       2       2       2       2       2       2       1
       2       3       2       2       3       2       2       2       3       2
       3       3       3       2       2       4       2       3       2       3
       4       5       5       2       3       3       4       5       5       3
       4       5       5       4       5       5       4       5       5       4
       5       5       5       5       4       4       5       5       5       4
       5       5       5       5       1       2       2       2       2       2
       2       2       2       1       2       3       2       2       3       2
       2       2       3       2       3       3       3       2       2       4
       2       3       2       3       4       5       5       2       3       3
       4       5       5       3       4       5       5       4       5       5
       4       5       5       4       5       5       5       5       4       4
       5       5       5       4       5       5       5       5       1       2
       2       2       2       2       2       2       2       1       2       3
       2       2       3       2       2       2       3       2       3       3
       3       2       2       4       2       3       2       3       4       5
       5       2       3       3       4       5       5       3       4       5
       5       4       5       5       4       5       5       4       5       5
       5       5       4       4       5       5       5       4       5       5
       5       5       1       2       2       2       2       2       2       2
       2       1       2       3       2       2       3       2       2       2
       3       2       3       3       3       2       2       4       2       3
       2       3       4       5       5       2       3       3       4       5
       5       3       4       5       5       4       5       5       4       5
       5       4       5       5       5       5       4       4       5       5
       5       4       5       5       5       5       1       2       2       2
       2       2       2       2       2       1       2       3       2       2
       3       2       2       2       3       2       3       3       3       2
       2       4       2       3       2       3       4       5       5       2
       3       3       4       5       5       3       4       5       5       4
       5       5       4       5       5       4       5       5       5       5
       4       4       5       5       5       4       5       5       5       5
       1       2       2       2       2       2       2       2       2       1
       2       3       2       2       3       2       2       2       3       2
       3       3       3       2       2       4       2       3       2       3
       4       5       5       2       3       3       4       5       5       3
       4       5       5       4       5       5       4       5       5       4
       5       5       5       5       4       4       5       5       5       4
       5       5       5       5       1       2       2       2       2       2
       2       2       2       1       2       3       2       2       3       2
       2       2       3       2       3       3       3       2       2       4
       2       3       2       3       4       5       5       2       3       3
       4       5       5       3       4       5       5       4       5       5
       4       5       5       4       5       5       5       5       4       4
       5       5       5       4       5       5       5       5       1       2
       2       2       2       2       2       2       2       1       2       3
       2       2       3       2       2       2       3       2       3       3
       3       2       2       4       2       3       2       3       4       5
       5       2       3       3       4       5       5       3       4       5
       5       4       5       5       4       5       5       4       5       5
       5       5       4       4       5       5       5       4       5       5
       5       5       1       2       2       2       2       2       2       2
       2       1       2       3       2       2       3       2       2       2
       3       2       3       3       3       2       2       4       2       3
       2       3       4       5       5       2       3       3       4       5
       5       3       4       5       5       4       5       5       4       5
       5       4       5       5       5       5       4       4       5       5
       5       4       5       5       5       5       1       2       2       2
       2       2       2       2       2       1       2       3       2       2
       3       2       2       2       3       2       3       3       3       2
       2       4       2       3       2       3       4       5       5       2
       3       3       4       5       5       3       4       5       5       4
       5       5       4       5       5       4       5       5       5       5
       4       4       5       5       5       4       5       5       5       5
       1       2       2       2       2       2       2       2       2       1
       2       3       2       2       3       2       2       2       3       2
       3       3       3       2       2       4       2       3       2       3
       4       5       5       2       3       3       4       5       5       3
       4       5       5       4       5       5       4       5       5       4
       5       5       5       5       4       4       5       5       5       4
       5       5       5       5       1       2       2       2       2       2
       2       2       2       1       2       3       2       2       3       2
       2       2       3       2       3       3       3       2       2       4
       2       3       2       3       4       5       5       2       3       3
       4       5       5       3       4       5       5       4       5       5
       4       5       5       4       5       5       5       5       4       4
       5       5       5       4       5       5       5       5       1       2
       2       2       2       2       2       2       2       1       2       3
       2       2       3       2       2       2       3       2       3       3
       3       2       2       4       2       3       2       3       4       5
       5       2       3       3       4       5       5       3       4       5
       5       4       5       5       4       5       5       4       5       5
       5       5       4       4       5       5       5       4       5       5
       5       5       1       2       2       2       2       2       2       2
       2       1       2       3       2       2       3       2       2       2
       3       2       3       3       3       2       2       4       2       3
       2       3       4       5       5       2       3       3       4       5
       5       3       4       5       5       4       5       5       4       5
       5       4       5       5       5       5       4       4       5       5
       5       4       5       5       5       5       1       2       2       2
       2       2       2       2       2       1       2       3       2       2
       3       2       2       2       3       2       3       3       3       2
       2       4       2       3       2       3       4       5       5       2
       3       3       4       5       5       3       4       5       5       4
       5       5       4       5       5       4       5       5       5       5
       4       4       5       5       5       4       5       5       5       5
       1       2       2       2       2       2       2       2       2       1
       2       3       2       2       3       2       2       2       3       2
       3       3       3       2       2       4       2       3       2       3
       4       5       5       2       3       3       4       5       5       3
       4       5       5       4       5       5       4       5       5       4
       5       5       5       5       4       4       5       5       5       4
       5       5       5       5       1       2       2       2       2       2
       2       2       2       1       2       3       2       2       3       2
       2       2       3       2       3       3       3       2       2       4
       2       3       2       3       4       5       5       2       3       3
       4       5       5       3       4       5       5       4       5       5
       4       5       5       4       5       5       5       5       4       4
       5       5       5       4       5       5       5       5       1       2
       2       2       2       2       2       2       2       1       2       3
       2       2       3       2       2       2       3       2       3       3
       3       2       2       4       2       3       2       3       4       5
       5       2       3       3       4       5       5       3       4       5
       5       4       5       5       4       5       5       4       5       5
       5       5       4       4       5       5       5       4       5       5
       5       5       1       2       2       2       2       2       2       2
       2       1       2       3       2       2       3       2       2       2
       3       2       3       3       3       2       2       4       2       3
       2       3       4       5       5       2       3       3       4       5
       5       3       4       5       5       4       5       5       4       5
       5       4       5       5       5       5       4       4       5       5
       5       4       5       5       5       5       1       2       2       2
       2       2       2       2       2       1       2       3       2       2
       3       2       2       2       3       2       3       3       3       2
       2       4       2       3       2       3       4       5       5       2
       3       3       4       5       5       3       4       5       5       4
       5       5       4       5       5       4       5       5       5       5
       4       4       5       5       5       4       5       5       5       5
       1       2       2       2       2       2       2       2       2       1
       2       3       2       2       3       2       2       2       3       2
       3       3       3       2       2       4       2       3       2       3
       4       5       5       2       3       3       4       5       5       3
       4       5       5       4       5       5       4       5       5       4
       5       5       5       5       4       4       5       5       5       4
       5       5       5       5       1       2       2       2       2       2
       2       2       2       1       2       3       2       2       3       2
       2       2       3       2       3       3       3       2       2       4
       2       3       2       3       4       5       5       2       3       3
       4       5       5       3       4       5       5       4       5       5
       4       5       5       4       5       5       5       5       4       4
       5       5       5       4       5       5       5       5       1       2
       2       2       2       2       2       2       2       1       2       3
       2       2       3       2       2       2       3       2       3       3
       3       2       2       4       2       3       2       3       4       5
       5       2       3       3       4       5       5       3       4       5
       5       4       5       5       4       5       5       4       5       5
       5       5       4       4       5       5       5       4       5       5
       5       5       1       2       2       2       2       2       2       2
       2       1       2       3       2       2       3       2       2       2
       3       2       3       3       3       2       2       4       2       3
       2       3       4       5       5       2       3       3       4       5
       5       3       4       5       5       4       5       5       4       5
       5       4       5       5       5       5       4       4       5       5
       5       4       5       5       5       5       1       2       2       2
       2       2       2       2       2       1       2       3       2       2
       3       2       2       2       3       2       3       3       3       2
       2       4       2       3       2       3       4       5       5       2
       3       3       4       5       5       3       4       5       5       4
       5       5       4       5       5       4       5       5       5       5
       4       4       5       5       5       4       5       5       5       5
       1       2       2       2       2       2       2       2       2       1
       2       3       2       2       3       2       2       2       3       2
       3       3       3       2       2       4       2       3       2       3
       4       5       5       2       3       3       4       5       5       3
       4       5       5       4       5       5       4       5       5       4
       5       5       5       5       4       4       5       5       5       4
       5       5       5       5       1       2       2       2       2       2
       2       2       2       1       2       3       2       2       3       2
       2       2       3       2       3       3       3       2       2       4
       2       3       2       3       4       5       5       2       3       3
       4       5       5       3       4       5       5       4       5       5
       4       5       5       4       5       5       5       5       4       4
       5       5       5       4       5       5       5       5       1       2
       2       2       2       2       2       2       2       1       2       3
       2       2       3       2       2       2       3       2       3       3
       3       2       2       4       2       3       2       3       4       5
       5       2       3       3       4       5       5       3       4       5
       5       4       5       5       4       5       5       4       5       5
       5       5       4       4       5       5       5       4       5       5
       5       5       1       2       2       2       2       2       2       2
       2       1       2       3       2       2       3       2       2       2
       3       2       3       3       3       2       2       4       2       3
       2       3       4       5       5       2       3       3       4       5
       5       3       4       5       5       4       5       5       4       5
       5       4       5       5       5       5       4       4       5       5
       5       4       5       5       5       5       1       2       2       2
       2       2       2       2       2       1       2       3       2       2
       3       2       2       2       3       2       3       3       3       2
       2       4       2       3       2       3       4       5       5       2
       3       3       4       5       5       3       4       5       5       4
       5       5       4       5       5       4       5       5       5       5
       4       4       5       5       5       4       5       5       5       5
       1       2       2       2       2       2       2       2       2       1
       2       3       2       2       3       2       2       2       3       2
       3       3       3       2       2       4       2       3       2       3
       4       5       5       2       3       3       4       5       5       3
       4       5       5       4       5       5       4       5       5       4
       5       5       5       5       4       4       5       5       5       4
       5       5       5       5       1       2       2       2       2       2
       2       2       2       1       2       3       2       2       3       2
       2       2       3       2       3       3       3       2       2       4
       2       3       2       3       4       5       5       2       3       3
       4       5       5       3       4       5       5       4       5       5
       4       5       5       4       5       5       5       5       4       4
       5       5       5       4       5       5       5       5       1       2
       2       2       2       2       2       2       2       1       2       3
       2       2       3       2       2       2       3       2       3       3
       3       2       2       4       2       3       2       3       4       5
       5       2       3       3       4       5       5       3       4       5
       5       4       5       5       4       5       5       4       5       5
       5       5       4       4       5       5       5       4       5       5
       5       5       1       2       2       2       2       2       2       2
       2       1       2       3       2       2       3       2       2       2
       3       2       3       3       3       2       2       4       2       3
       2       3       4       5       5       2       3       3       4       5
       5       3       4       5       5       4       5       5       4       5
       5       4       5       5       5       5       4       4       5       5
       5       4       5       5       5       5       1       2       2       2
       2       2       2       2       2       1       2       3       2       2
       3       2       2       2       3       2       3       3       3       2
       2       4       2       3       2       3       4       5       5       2
       3       3       4       5       5       3       4       5       5       4
       5       5       4       5       5       4       5       5       5       5
       4       4       5       5       5       4       5       5       5       5
       1       2       2       2       2       2       2       2       2       1
       2       3       2       2       3       2       2       2       3       2
       3       3       3       2       2       4       2       3       2       3
       4       5       5       2       3       3       4       5       5       3
       4       5       5       4       5       5       4       5       5       4
       5       5       5       5       4       4       5       5       5       4
       5       5       5       5       1       2       2       2       2       2
       2       2       2       1       2       3       2       2       3       2
       2       2       3       2       3       3       3       2       2       4
       2       3       2       3       4       5       5       2       3       3
       4       5       5       3       4       5       5       4       5       5
       4       5       5       4       5       5       5       5       4       4
       5       5       5       4       5       5       5       5       1       2
       2       2       2       2       2       2       2       1       2       3
       2       2       3       2       2       2       3       2       3       3
       3       2       2       4       2       3       2       3       4       5
       5       2       3       3       4       5       5       3       4       5
       5       4       5       5       4       5       5       4       5       5
       5       5       4       4       5       5       5       4       5       5
       5       5       1       2       2       2       2       2       2       2
       2       1       2       3       2       2       3       2       2       2
       3       2       3       3       3       2       2       4       2       3
       2       3       4       5       5       2       3       3       4       5
       5       3       4       5       5       4       5       5       4       5
       5       4       5       5       5       5       4       4       5       5
       5       4       5       5       5       5       1       2       2       2
       2       2       2       2       2       1       2       3       2       2
       3       2       2       2       3       2       3       3       3       2
       2       4       2       3       2       3       4       5       5       2
       3       3       4       5       5       3       4       5       5       4
       5       5       4       5       5       4       5       5       5       5
       4       4       5       5       5       4       5       5       5       5
       1       2       2       2       2       2       2       2       2       1
       2       3       2       2       3       2       2       2       3       2
       3       3       3       2       2       4       2       3       2       3
       4       5       5       2       3       3       4       5       5       3
       4       5       5       4       5       5       4       5       5       4
       5       5       5       5       4       4       5       5       5       4
       5       5       5       5       1       2       2       2       2       2
       2       2       2       1       2       3       2       2       3       2
       2       2       3       2       3       3       3       2       2       4
       2       3       2       3       4       5       5       2       3       3
       4       5       5       3       4       5       5       4       5       5
       4       5       5       4       5       5       5       5       4       4
       5       5       5       4       5       5       5       5       1       2
       2       2       2       2       2       2       2       1       2       3
       2       2       3       2       2       2       3       2       3       3
       3       2       2       4       2       3       2       3       4       5
       5       2       3       3       4       5       5       3       4       5
       5       4       5       5       4       5       5       4       5       5
       5       5       4       4       5       5       5       4       5       5
       5       5       1       2       2       2       2       2       2       2
       2       1       2       3       2       2       3       2       2       2
       3       2       3       3       3       2       2       4       2       3
       2       3       4       5       5       2       3       3       4       5
       5       3       4       5       5       4       5       5       4       5
       5       4       5       5       5       5       4       4       5       5
       5       4       5       5       5       5       1       2       2       2
       2       2       2       2       2       1       2       3       2       2
       3       2       2       2       3       2       3       3       3       2
       2       4       2       3       2       3       4       5       5       2
       3       3       4       5       5       3       4       5       5       4
       5       5       4       5       5       4       5       5       5       5
       4       4       5       5       5       4       5       5       5       5
       1       2       2       2       2       2       2       2       2       1
       2       3       2       2       3       2       2       2       3       2
       3       3       3       2       2       4       2       3       2       3
       4       5       5       2       3       3       4       5       5       3
       4       5       5       4       5       5       4       5       5       4
       5       5       5       5       4       4       5       5       5       4
       5       5       5       5       1       2       2       2       2       2
       2       2       2       1       2       3       2       2       3       2
       2       2       3       2       3       3       3       2       2       4
       2       3       2       3       4       5       5       2       3       3
       4       5       5       3       4       5       5       4       5       5
       4       5       5       4       5       5       5       5       4       4
       5       5       5       4       5       5       5       5       1       2
       2       2       2       2       2       2       2       1       2       3
       2       2       3       2       2       2       3       2       3       3
       3       2       2       4       2       3       2       3       4       5
       5       2       3       3       4       5       5       3       4       5
       5       4       5       5       4       5       5       4       5       5
       5       5       4       4       5       5       5       4       5       5
       5       5       1       2       2       2       2       2       2       2
       2       1       2       3       2       2       3       2       2       2
       3       2       3       3       3       2       2       4       2       3
       2       3       4       5       5       2       3       3       4       5
       5       3       4       5       5       4       5       5       4       5
       5       4       5       5       5       5       4       4       5       5
       5       4       5       5       5       5       1       2       2       2
       2       2       2       2       2       1       2       3       2       2
       3       2       2       2       3       2       3       3       3       2
       2       4       2       3       2       3       4       5       5       2
       3       3       4       5       5       3       4       5       5       4
       5       5       4       5       5       4       5       5       5       5
       4       4       5       5       5       4       5       5       5       5
       1       2       2       2       2       2       2       2       2       1
       2       3       2       2       3       2       2       2       3       2
       3       3       3       2       2       4       2       3       2       3
       4       5       5       2       3       3       4       5       5       3
       4       5       5       4       5       5       4       5       5       4
       5       5       5       5       4       4       5       5       5       4
       5       5       5       5       1       2       2       2       2       2
       2       2       2       1       2       3       2       2       3       2
       2       2       3       2       3       3       3       2       2       4
       2       3       2       3       4       5       5       2       3       3
       4       5       5       3       4       5       5       4       5       5
       4       5       5       4       5       5       5       5       4       4
       5       5       5       4       5       5       5       5       1       2
       2       2       2       2       2       2       2       1       2       3
       2       2       3       2       2       2       3       2       3       3
       3       2       2       4       2       3       2       3       4       5
       5       2       3       3       4       5       5       3       4       5
       5       4       5       5       4       5       5       4       5       5
       5       5       4       4       5       5       5       4       5       5
       5       5       1       2       2       2       2       2       2       2
       2       1       2       3       2       2       3       2       2       2
       3       2       3       3       3       2       2       4       2       3
       2       3       4       5       5       2       3       3       4       5
       5       3       4       5       5       4       5       5       4       5
       5       4       5       5       5       5       4       4       5       5
       5       4       5       5       5       5       1       2       2       2
       2       2       2       2       2       1       2       3       2       2
       3       2       2       2       3       2       3       3       3       2
       2       4       2       3       2       3       4       5       5       2
       3       3       4       5       5       3       4       5       5       4
       5       5       4       5       5       4       5       5       5       5
       4       4       5       5       5       4       5       5       5       5
       1       2       2       2       2       2       2       2       2       1
       2       3       2       2       3       2       2       2       3       2
       3       3       3       2       2       4       2       3       2       3
       4       5       5       2       3       3       4       5       5       3
       4       5       5       4       5       5       4       5       5       4
       5       5       5       5       4       4       5       5       5       4
       5       5       5       5       1       2       2       2       2       2
       2       2       2       1       2       3       2       2       3       2
       2       2       3       2       3       3       3       2       2       4
       2       3       2       3       4       5       5       2       3       3
       4       5       5       3       4       5       5       4       5       5
       4       5       5       4       5       5       5       5       4       4
       5       5       5       4       5       5       5       5       1       2
       2       2       2       2       2       2       2       1       2       3
       2       2       3       2       2       2       3       2       3       3
       3       2       2       4       2       3       2       3       4       5
       5       2       3       3       4       5       5       3       4       5
       5       4       5       5       4       5       5       4       5       5
       5       5       4       4       5       5       5       4       5       5
       5       5       1       2       2       2       2       2       2       2
       2       1       2       3       2       2       3       2       2       2
       3       2       3       3       3       2       2       4       2       3
       2       3       4       5       5       2       3       3       4       5
       5       3       4       5       5       4       5       5       4       5
       5       4       5       5       5       5       4       4       5       5
       5       4       5       5       5       5       1       2       2       2
       2       2       2       2       2       1       2       3       2       2
       3       2       2       2       3       2       3       3       3       2
       2       4       2       3       2       3       4       5       5       2
       3       3       4       5       5       3       4       5       5       4
       5       5       4       5       5       4       5       5       5       5
       4       4       5       5       5       4       5       5       5       5
       1       2       2       2       2       2       2       2       2       1
       2       3       2       2       3       2       2       2       3       2
       3       3       3       2       2       4       2       3       2       3
       4       5       5       2       3       3       4       5       5       3
       4       5       5       4       5       5       4       5       5       4
       5       5       5       5       4       4       5       5       5       4
       5       5       5       5       1       2       2       2       2       2
       2       2       2       1       2       3       2       2       3       2
       2       2       3       2       3       3       3       2       2       4
       2       3       2       3       4       5       5       2       3       3
       4       5       5       3       4       5       5       4       5       5
       4       5       5       4       5       5       5       5       4       4
       5       5       5       4       5       5       5       5       1       2
       2       2       2       2       2       2       2       1       2       3
       2       2       3       2       2       2       3       2       3       3
       3       2       2       4       2       3       2       3       4       5
       5       2       3       3       4       5       5       3       4       5
       5       4       5       5       4       5       5       4       5       5
       5       5       4       4       5       5       5       4       5       5
       5       5       1       2       2       2       2       2       2       2
       2       1       2       3       2       2       3       2       2       2
       3       2       3       3       3       2       2       4       2       3
       2       3       4       5       5       2       3       3       4       5
       5       3       4       5       5       4       5       5       4       5
       5       4       5       5       5       5       4       4       5       5
       5       4       5       5       5       5       1       2       2       2
       2       2       2       2       2       1       2       3       2       2
       3       2       2       2       3       2       3       3       3       2
       2       4       2       3       2       3       4       5       5       2
       3       3       4       5       5       3       4       5       5       4
       5       5       4       5       5       4       5       5       5       5
       4       4       5       5       5       4       5       5       5       5
       1       2       2       2       2       2       2       2       2       1
       2       3       2       2       3       2       2       2       3       2
       3       3       3       2       2       4       2       3       2       3
       4       5       5       2       3       3       4       5       5       3
       4       5       5       4       5       5       4       5       5       4
       5       5       5       5       4       4       5       5       5       4
       5       5       5       5       1       2       2       2       2       2
       2       2       2       1       2       3       2       2       3       2
       2       2       3       2       3       3       3       2       2       4
       2       3       2       3       4       5       5       2       3       3
       4       5       5       3       4       5       5       4       5       5
       4       5       5       4       5       5       5       5       4       4
       5       5       5       4       5       5       5       5       1       2
       2       2       2       2       2       2       2       1       2       3
       2       2       3       2       2       2       3       2       3       3
       3       2       2       4       2       3       2       3       4       5
       5       2       3       3       4       5       5       3       4       5
       5       4       5       5       4       5       5       4       5       5
       5       5       4       4       5       5       5       4       5       5
       5       5       1       2       2       2       2       2       2       2
       2       1       2       3       2       2       3       2       2       2
       3       2       3       3       3       2       2       4       2       3
       2       3       4       5       5       2       3       3       4       5
       5       3       4       5       5       4       5       5       4       5
       5       4       5       5       5       5       4       4       5       5
       5       4       5       5       5       5       1       2       2       2
       2       2       2       2       2       1       2       3       2       2
       3       2       2       2       3       2       3       3       3       2
       2       4       2       3       2       3       4       5       5       2
       3       3       4       5       5       3       4       5       5       4
       5       5       4       5       5       4       5       5       5       5
       4       4       5       5       5       4       5       5       5       5
       1       2       2       2       2       2       2       2       2       1
       2       3       2       2       3       2       2       2       3       2
       3       3       3       2       2       4       2       3       2       3
       4       5       5       2       3       3       4       5       5       3
       4       5       5       4       5       5       4       5       5       4
       5       5       5       5       4       4       5       5       5       4
       5       5       5       5       1       2       2       2       2       2
       2       2       2       1       2       3       2       2       3       2
       2       2       3       2       3       3       3       2       2       4
       2       3       2       3       4       5       5       2       3       3
       4       5       5       3       4       5       5       4       5       5
       4       5       5       4       5       5       5       5       4       4
       5       5       5       4       5       5       5       5       1       2
       2       2       2       2       2       2       2       1       2       3
       2       2       3       2       2       2       3       2       3       3
       3       2       2       4       2       3       2       3       4       5
       5       2       3       3       4       5       5       3       4       5
       5       4       5       5       4       5       5       4       5       5
       5       5       4       4       5       5       5       4       5       5
       5       5       1       2       2       2       2       2       2       2
       2       1       2       3       2       2       3       2       2       2
       3       2       3       3       3       2       2       4       2       3
       2       3       4       5       5       2       3       3       4       5
       5       3       4       5       5       4       5       5       4       5
       5       4       5       5       5       5       4       4       5       5
       5       4       5       5       5       5       1       2       2       2
       2       2       2       2       2       1       2       3       2       2
       3       2       2       2       3       2       3       3       3       2
       2       4       2       3       2       3       4       5       5       2
       3       3       4       5       5       3       4       5       5       4
       5       5       4       5       5       4       5       5       5       5
       4       4       5       5       5       4       5       5       5       5
       1       2       2       2       2       2       2       2       2       1
       2       3       2       2       3       2       2       2       3       2
       3       3       3       2       2       4       2       3       2       3
       4       5       5       2       3       3       4       5       5       3
       4       5       5       4       5       5       4       5       5       4
       5       5       5       5       4       4       5       5       5       4
       5       5       5       5       1       2       2       2       2       2
       2       2       2       1       2       3       2       2       3       2
       2       2       3       2       3       3       3       2       2       4
       2       3       2       3       4       5       5       2       3       3
       4       5       5       3       4       5       5       4       5       5
       4       5       5       4       5       5       5       5       4       4
       5       5       5       4       5       5       5       5       1       2
       2       2       2       2       2       2       2       1       2       3
       2       2       3       2       2       2       3       2       3       3
       3       2       2       4       2       3       2       3       4       5
       5       2       3       3       4       5       5       3       4       5
       5       4       5       5       4       5       5       4       5       5
       5       5       4       4       5       5       5       4       5       5
       5       5       1       2       2       2       2       2       2       2
       2       1       2       3       2       2       3       2       2       2
       3       2       3       3       3       2       2       4       2       3
       2       3       4       5       5       2       3       3       4       5
       5       3       4       5       5       4       5       5       4       5
       5       4       5       5       5       5       4       4       5       5
       5       4       5       5       5       5       1       2       2       2
       2       2       2       2       2       1       2       3       2       2
       3       2       2       2       3       2       3       3       3       2
       2       4       2       3       2       3       4       5       5       2
       3       3       4       5       5       3       4       5       5       4
       5       5       4       5       5       4       5       5       5       5
       4       4       5       5       5       4       5       5       5       5
       1       2       2       2       2       2       2       2       2       1
       2       3       2       2       3       2       2       2       3       2
       3       3       3       2       2       4       2       3       2       3
       4       5       5       2       3       3       4       5       5       3
       4       5       5       4       5       5       4       5       5       4
       5       5       5       5       4       4       5       5       5       4
       5       5       5       5       1       2       2       2       2       2
       2       2       2       1       2       3       2       2       3       2
       2       2       3       2       3       3       3       2       2       4
       2       3       2       3       4       5       5       2       3       3
       4       5       5       3       4       5       5       4       5       5
       4       5       5       4       5       5       5       5       4       4
       5       5       5       4       5       5       5       5       1       2
       2       2       2       2       2       2       2       1       2       3
       2       2       3       2       2       2       3       2       3       3
       3       2       2       4       2       3       2       3       4       5
       5       2       3       3       4       5       5       3       4       5
       5       4       5       5       4       5       5       4       5       5
       5       5       4       4       5       5       5       4       5       5
       5       5       1       2       2       2       2       2       2       2
       2       1       2       3       2       2       3       2       2       2
       3       2       3       3       3       2       2       4       2       3
       2       3       4       5       5       2       3       3       4       5
       5       3       4       5       5       4       5       5       4       5
       5       4       5       5       5       5       4       4       5       5
       5       4       5       5       5       5       1       2       2       2
       2       2       2       2       2       1       2       3       2       2
       3       2       2       2       3       2       3       3       3       2
       2       4       2       3       2       3       4       5       5       2
       3       3       4       5       5       3       4       5       5       4
       5       5       4       5       5       4       5       5       5       5
       4       4       5       5       5       4       5       5       5       5
       1       2       2       2       2       2       2       2       2       1
       2       3       2       2       3       2       2       2       3       2
       3       3       3       2       2       4       2       3       2       3
       4       5       5       2       3       3       4       5       5       3
       4       5       5       4       5       5       4       5       5       4
       5       5       5       5       4       4       5       5       5       4
       5       5       5       5       1       2       2       2       2       2
       2       2       2       1       2       3       2       2       3       2
       2       2       3       2       3       3       3       2       2       4
       2       3       2       3       4       5       5       2       3       3
       4       5       5       3       4       5       5       4       5       5
       4       5       5       4       5       5       5       5       4       4
       5       5       5       4       5       5       5       5       1       2
       2       2       2       2       2       2       2       1       2       3
       2       2       3       2       2       2       3       2       3       3
       3       2       2       4       2       3       2       3       4       5
       5       2       3       3       4       5       5       3       4       5
       5       4       5       5       4       5       5       4       5       5
       5       5       4       4       5       5       5       4       5       5
       5       5       1       2       2       2       2       2       2       2
       2       1       2       3       2       2       3       2       2       2
       3       2       3       3       3       2       2       4       2       3
       2       3       4       5       5       2       3       3       4       5
       5       3       4       5       5       4       5       5       4       5
       5       4       5       5       5       5       4       4       5       5
       5       4       5       5       5       5       1       2       2       2
       2       2       2       2       2       1       2       3       2       2
       3       2       2       2       3       2       3       3       3       2
       2       4       2       3       2       3       4       5       5       2
       3       3       4       5       5       3       4       5       5       4
       5       5       4       5       5       4       5       5       5       5
       4       4       5       5       5       4       5       5       5       5
       1       2       2       2       2       2       2       2       2       1
       2       3       2       2       3       2       2       2       3       2
       3       3       3       2       2       4       2       3       2       3
       4       5       5       2       3       3       4       5       5       3
       4       5       5       4       5       5       4       5       5       4
       5       5       5       5       4       4       5       5       5       4
       5       5       5       5       1       2       2       2       2       2
       2       2       2       1       2       3       2       2       3       2
       2       2       3       2       3       3       3       2       2       4
       2       3       2       3       4       5       5       2       3       3
       4       5       5       3       4       5       5       4       5       5
       4       5       5       4       5       5       5       5       4       4
       5       5       5       4       5       5       5       5       1       2
       2       2       2       2       2       2       2       1       2       3
       2       2       3       2       2       2       3       2       3       3
       3       2       2       4       2       3       2       3       4       5
       5       2       3       3       4       5       5       3       4       5
       5       4       5       5       4       5       5       4       5       5
       5       5       4       4       5       5       5       4       5       5
       5       5       1       2       2       2       2       2       2       2
       2       1       2       3       2       2       3       2       2       2
       3       2       3       3       3       2       2       4       2       3
       2       3       4       5       5       2       3       3       4       5
       5       3       4       5       5       4       5       5       4       5
       5       4       5       5       5       5       4       4       5       5
       5       4       5       5       5       5       1       2       2       2
       2       2       2       2       2       1       2       3       2       2
       3       2       2       2       3       2       3       3       3       2
       2       4       2       3       2       3       4       5       5       2
       3       3       4       5       5       3       4       5       5       4
       5       5       4       5       5       4       5       5       5       5
       4       4       5       5       5       4       5       5       5       5
       1       2       2       2       2       2       2       2       2       1
       2       3       2       2       3       2       2       2       3       2
       3       3       3       2       2       4       2       3       2       3
       4       5       5       2       3       3       4       5       5       3
       4       5       5       4       5       5       4       5       5       4
       5       5       5       5       4       4       5       5       5       4
       5       5       5       5       1       2       2       2       2       2
       2       2       2       1       2       3       2       2       3       2
       2       2       3       2       3       3       3       2       2       4
       2       3       2       3       4       5       5       2       3       3
       4       5       5       3       4       5       5       4       5       5
       4       5       5       4       5       5       5       5       4       4
       5       5       5       4       5       5       5       5       1       2
       2       2       2       2       2       2       2       1       2       3
       2       2       3       2       2       2       3       2       3       3
       3       2       2       4       2       3       2       3       4       5
       5       2       3       3       4       5       5       3       4       5
       5       4       5       5       4       5       5       4       5       5
       5       5       4       4       5       5       5       4       5       5
       5       5       1       2       2       2       2       2       2       2
       2       1       2       3       2       2       3       2       2       2
       3       2       3       3       3       2       2       4       2       3
       2       3       4       5       5       2       3       3       4       5
       5       3       4       5       5       4       5       5       4       5
       5       4       5       5       5       5       4       4       5       5
       5       4       5       5       5       5       1       2       2       2
       2       2       2       2       2       1       2       3       2       2
       3       2       2       2       3       2       3       3       3       2
       2       4       2       3       2       3       4       5       5       2
       3       3       4       5       5       3       4       5       5       4
       5       5       4       5       5       4       5       5       5       5
       4       4       5       5       5       4       5       5       5       5
       1       2       2       2       2       2       2       2       2       1
       2       3       2       2       3       2       2       2       3       2
       3       3       3       2       2       4       2       3       2       3
       4       5       5       2       3       3       4       5       5       3
       4       5       5       4       5       5       4       5       5       4
       5       5       5       5       4       4       5       5       5       4
       5       5       5       5       1       2       2       2       2       2
       2       2       2       1       2       3       2       2       3       2
       2       2       3       2       3       3       3       2       2       4
       2       3       2       3       4       5       5       2       3       3
       4       5       5       3       4       5       5       4       5       5
       4       5       5       4       5       5       5       5       4       4
       5       5       5       4       5       5       5       5       1       2
       2       2       2       2       2       2       2       1       2       3
       2       2       3       2       2       2       3       2       3       3
       3       2       2       4       2       3       2       3       4       5
       5       2       3       3       4       5       5       3       4       5
       5       4       5       5       4       5       5       4       5       5
       5       5       4       4       5       5       5       4       5       5
       5       5       1       2       2       2       2       2       2       2
       2       1       2       3       2       2       3       2       2       2
       3       2       3       3       3       2       2       4       2       3
       2       3       4       5       5       2       3       3       4       5
       5       3       4       5       5       4       5       5       4       5
       5       4       5       5       5       5       4       4       5       5
       5       4       5       5       5       5       1       2       2       2
       2       2       2       2       2       1       2       3       2       2
       3       2       2       2       3       2       3       3       3       2
       2       4       2       3       2       3       4       5       5       2
       3       3       4       5       5       3       4       5       5       4
       5       5       4       5       5       4       5       5       5       5
       4       4       5       5       5       4       5       5       5       5
       1       2       2       2       2       2       2       2       2       1
       2       3       2       2       3       2       2       2       3       2
       3       3       3       2       2       4       2       3       2       3
       4       5       5       2       3       3       4       5       5       3
       4       5       5       4       5       5       4       5       5       4
       5       5       5       5       4       4       5       5       5       4
       5       5       5       5       1       2       2       2       2       2
       2       2       2       1       2       3       2       2       3       2
       2       2       3       2       3       3       3       2       2       4
       2       3       2       3       4       5       5       2       3       3
       4       5       5       3       4       5       5       4       5       5
       4       5       5       4       5       5       5       5       4       4
       5       5       5       4       5       5       5       5       1       2
       2       2       2       2       2       2       2       1       2       3
       2       2       3       2       2       2       3       2       3       3
       3       2       2       4       2       3       2       3       4       5
       5       2       3       3       4       5       5       3       4       5
       5       4       5       5       4       5       5       4       5       5
       5       5       4       4       5       5       5       4       5       5
       5       5       1       2       2       2       2       2       2       2
       2       1       2       3       2       2       3       2       2       2
       3       2       3       3       3       2       2       4       2       3
       2       3       4       5       5       2       3       3       4       5
       5       3       4       5       5       4       5       5       4       5
       5       4       5       5       5       5       4       4       5       5
       5       4       5       5       5       5       1       2       2       2
       2       2       2       2       2       1       2       3       2       2
       3       2       2       2       3       2       3       3       3       2
       2       4       2       3       2       3       4       5       5       2
       3       3       4       5       5       3       4       5       5       4
       5       5       4       5       5       4       5       5       5       5
       4       4       5       5       5       4       5       5       5       5
       1       2       2       2       2       2       2       2       2       1
       2       3       2       2       3       2       2       2       3       2
       3       3       3       2       2       4       2       3       2       3
       4       5       5       2       3       3       4       5       5       3
       4       5       5       4       5       5       4       5       5       4
       5       5       5       5       4       4       5       5       5       4
       5       5       5       5       1       2       2       2       2       2
       2       2       2       1       2       3       2       2       3       2
       2       2       3       2       3       3       3       2       2       4
       2       3       2       3       4       5       5       2       3       3
       4       5       5       3       4       5       5       4       5       5
       4       5       5       4       5       5       5       5       4       4
       5       5       5       4       5       5       5       5       1       2
       2       2       2       2       2       2       2       1       2       3
       2       2       3       2       2       2       3       2       3       3
       3       2       2       4       2       3       2       3       4       5
       5       2       3       3       4       5       5       3       4       5
       5       4       5       5       4       5       5       4       5       5
       5       5       4       4       5       5       5       4       5       5
       5       5       1       2       2       2       2       2       2       2
       2       1       2       3       2       2       3       2       2       2
       3       2       3       3       3       2       2       4       2       3
       2       3       4       5       5       2       3       3       4       5
       5       3       4       5       5       4       5       5       4       5
       5       4       5       5       5       5       4       4       5       5
       5       4       5       5       5       5       1       2       2       2
       2       2       2       2       2       1       2       3       2       2
       3       2       2       2       3       2       3       3       3       2
       2       4       2       3       2       3       4       5       5       2
       3       3       4       5       5       3       4       5       5       4
       5       5       4       5       5       4       5       5       5       5
       4       4       5       5       5       4       5       5       5       5
       1       2       2       2       2       2       2       2       2       1
       2       3       2       2       3       2       2       2       3       2
       3       3       3       2       2       4       2       3       2       3
       4       5       5       2       3       3       4       5       5       3
       4       5       5       4       5       5       4       5       5       4
       5       5       5       5       4       4       5       5       5       4
       5       5       5       5       1       2       2       2       2       2
       2       2       2       1       2       3       2       2       3       2
       2       2       3       2       3       3       3       2       2       4
       2       3       2       3       4       5       5       2       3       3
       4       5       5       3       4       5       5       4       5       5
       4       5       5       4       5       5       5       5       4       4
       5       5       5       4       5       5       5       5       1       2
       2       2       2       2       2       2       2       1       2       3
       2       2       3       2       2       2       3       2       3       3
       3       2       2       4       2       3       2       3       4       5
       5       2       3       3       4       5       5       3       4       5
       5       4       5       5       4       5       5       4       5       5
       5       5       4       4       5       5       5       4       5       5
       5       5       1       2       2       2       2       2       2       2
       2       1       2       3       2       2       3       2       2       2
       3       2       3       3       3       2       2       4       2       3
       2       3       4       5       5       2       3       3       4       5
       5       3       4       5       5       4       5       5       4       5
       5       4       5       5       5       5       4       4       5       5
       5       4       5       5       5       5       1       2       2       2
       2       2       2       2       2       1       2       3       2       2
       3       2       2       2       3       2       3       3       3       2
       2       4       2       3       2       3       4       5       5       2
       3       3       4       5       5       3       4       5       5       4
       5       5       4       5       5       4       5       5       5       5
       4       4       5       5       5       4       5       5       5       5
       1       2       2       2       2       2       2       2       2       1
       2       3       2       2       3       2       2       2       3       2
       3       3       3       2       2       4       2       3       2       3
       4       5       5       2       3       3       4       5       5       3
       4       5       5       4       5       5       4       5       5       4
       5       5       5       5       4       4       5       5       5       4
       5       5       5       5       1       2       2       2       2       2
       2       2       2       1       2       3       2       2       3       2
       2       2       3       2       3       3       3       2       2       4
       2       3       2       3       4       5       5       2       3       3
       4       5       5       3       4       5       5       4       5       5
       4       5       5       4       5       5       5       5       4       4
       5       5       5       4       5       5       5       5       1       2
       2       2       2       2       2       2       2       1       2       3
       2       2       3       2       2       2       3       2       3       3
       3       2       2       4       2       3       2       3       4       5
       5       2       3       3       4       5       5       3       4       5
       5       4       5       5       4       5       5       4       5       5
       5       5       4       4       5       5       5       4       5       5
       5       5       1       2       2       2       2       2       2       2
       2       1       2       3       2       2       3       2       2       2
       3       2       3       3       3       2       2       4       2       3
       2       3       4       5       5       2       3       3       4       5
       5       3       4       5       5       4       5       5       4       5
       5       4       5       5       5       5       4       4       5       5
       5       4       5       5       5       5       1       2       2       2
       2       2       2       2       2       1       2       3       2       2
       3       2       2       2       3       2       3       3       3       2
       2       4       2       3       2       3       4       5       5       2
       3       3       4       5       5       3       4       5       5       4
       5       5       4       5       5       4       5       5       5       5
       4       4       5       5       5       4       5       5       5       5
       1       2       2       2       2       2       2       2       2       1
       2       3       2       2       3       2       2       2       3       2
       3       3       3       2       2       4       2       3       2       3
       4       5       5       2       3       3       4       5       5       3
       4       5       5       4       5       5       4       5       5       4
       5       5       5       5       4       4       5       5       5       4
       5       5       5       5       1       2       2       2       2       2
       2       2       2       1       2       3       2       2       3       2
       2       2       3       2       3       3       3       2       2       4
       2       3       2       3       4       5       5       2       3       3
       4       5       5       3       4       5       5       4       5       5
       4       5       5       4       5       5       5       5       4       4
       5       5       5       4       5       5       5       5       1       2
       2       2       2       2       2       2       2       1       2       3
       2       2       3       2       2       2       3       2       3       3
       3       2       2       4       2       3       2       3       4       5
       5       2       3       3       4       5       5       3       4       5
       5       4       5       5       4       5       5       4       5       5
       5       5       4       4       5       5       5       4       5       5
       5       5       1       2       2       2       2       2       2       2
       2       1       2       3       2       2       3       2       2       2
       3       2       3       3       3       2       2       4       2       3
       2       3       4       5       5       2       3       3       4       5
       5       3       4       5       5       4       5       5       4       5
       5       4       5       5       5       5       4       4       5       5
       5       4       5       5       5       5       1       2       2       2
       2       2       2       2       2       1       2       3       2       2
       3       2       2       2       3       2       3       3       3       2
       2       4       2       3       2       3       4       5       5       2
       3       3       4       5       5       3       4       5       5       4
       5       5       4       5       5       4       5       5       5       5
       4       4       5       5       5       4       5       5       5       5
       1       2       2       2       2       2       2       2       2       1
       2       3       2       2       3       2       2       2       3       2
       3       3       3       2       2       4       2       3       2       3
       4       5       5       2       3       3       4       5       5       3
       4       5       5       4       5       5       4       5       5       4
       5       5       5       5       4       4       5       5       5       4
       5       5       5       5       1       2       2       2       2       2
       2       2       2       1       2       3       2       2       3       2
       2       2       3       2       3       3       3       2       2       4
       2       3       2       3       4       5       5       2       3       3
       4       5       5       3       4       5       5       4       5       5
       4       5       5       4       5       5       5       5       4       4
       5       5       5       4       5       5       5       5       1       2
       2       2       2       2       2       2       2       1       2       3
       2       2       3       2       2       2       3       2       3       3
       3       2       2       4       2       3       2       3       4       5
       5       2       3       3       4       5       5       3       4       5
       5       4       5       5       4       5       5       4       5       5
       5       5       4       4       5       5       5       4       5       5
       5       5       1       2       2       2       2       2       2       2
       2       1       2       3       2       2       3       2       2       2
       3       2       3       3       3       2       2       4       2       3
       2       3       4       5       5       2       3       3       4       5
       5       3       4       5       5       4       5       5       4       5
       5       4       5       5       5       5       4       4       5       5
       5       4       5       5       5       5       1       2       2       2
       2       2       2       2       2       1       2       3       2       2
       3       2       2       2       3       2       3       3       3       2
       2       4       2       3       2       3       4       5       5       2
       3       3       4       5       5       3       4       5       5       4
       5       5       4       5       5       4       5       5       5       5
       4       4       5       5       5       4       5       5       5       5
       1       2       2       2       2       2       2       2       2       1
       2       3       2       2       3       2       2       2       3       2
       3       3       3       2       2       4       2       3       2       3
       4       5       5       2       3       3       4       5       5       3
       4       5       5       4       5       5       4       5       5       4
       5       5       5       5       4       4       5       5       5       4
       5       5       5       5       1       2       2       2       2       2
       2       2       2       1       2       3       2       2       3       2
       2       2       3       2       3       3       3       2       2       4
       2       3       2       3       4       5       5       2       3       3
       4       5       5       3       4       5       5       4       5       5
       4       5       5       4       5       5       5       5       4       4
       5       5       5       4       5       5       5       5       1       2
       2       2       2       2       2       2       2       1       2       3
       2       2       3       2       2       2       3       2       3       3
       3       2       2       4       2       3       2       3       4       5
       5       2       3       3       4       5       5       3       4       5
       5       4       5       5       4       5       5       4       5       5
       5       5       4       4       5       5       5       4       5       5
       5       5       1       2       2       2       2       2       2       2
       2       1       2       3       2       2       3       2       2       2
       3       2       3       3       3       2       2       4       2       3
       2       3       4       5       5       2       3       3       4       5
       5       3       4       5       5       4       5       5       4       5
       5       4       5       5       5       5       4       4       5       5
       5       4       5       5       5       5       1       2       2       2
       2       2       2       2       2       1       2       3       2       2
       3       2       2       2       3       2       3       3       3       2
       2       4       2       3       2       3       4       5       5       2
       3       3       4       5       5       3       4       5       5       4
       5       5       4       5       5       4       5       5       5       5
       4       4       5       5       5       4       5       5       5       5
       1       2       2       2       2       2       2       2       2       1
       2       3       2       2       3       2       2       2       3       2
       3       3       3       2       2       4       2       3       2       3
       4       5       5       2       3       3       4       5       5       3
       4       5       5       4       5       5       4       5       5       4
       5       5       5       5       4       4       5       5       5       4
       5       5       5       5       1       2       2       2       2       2
       2       2       2       1       2       3       2       2       3       2
       2       2       3       2       3       3       3       2       2       4
       2       3       2       3       4       5       5       2       3       3
       4       5       5       3       4       5       5       4       5       5
       4       5       5       4       5       5       5       5       4       4
       5       5       5       4       5       5       5       5       1       2
       2       2       2       2       2       2       2       1       2       3
       2       2       3       2       2       2       3       2       3       3
       3       2       2       4       2       3       2       3       4       5
       5       2       3       3       4       5       5       3       4       5
       5       4       5       5       4       5       5       4       5       5
       5       5       4       4       5       5       5       4       5       5
       5       5
%FLAG NUMBER_EXCLUDED_ATOMS                                                     
%FORMAT(10I8)                                                                   
      12      12      11      11       9       9       8       8       7       4
      12       2       4       9       2       7       5      10       1       9
       1       1       1       8       7       9       6       2       5       2
      11       4       3       3       1       1      11       4       3       1
      11       4       3      11       4       3      11       4       3      11
       4       3       5       4       9       8       4       3       5       4
       3       2       1       1      12      12      11      11       9       9
       8       8       7       4      12       2       4       9       2       7
       5      10       1       9       1       1       1       8       7       9
       6       2       5       2      11       4       3       3       1       1
      11       4       3       1      11       4       3      11       4       3
      11       4       3      11       4       3       5       4       9       8
       4       3       5       4       3       2       1       1      12      12
      11      11       9       9       8       8       7       4      12       2
       4       9       2       7       5      10       1       9       1       1
       1       8       7       9       6       2       5       2      11       4
       3       3       1       1      11       4       3       1      11       4
       3      11       4       3      11       4       3      11       4       3
       5       4       9       8       4       3       5       4       3       2
       1       1      12      12      11      11       9       9       8       8
       7       4      12       2       4       9       2       7       5      10
       1       9       1       1       1       8       7       9       6       2
       5       2      11       4       3       3       1       1      11       4
       3       1      11       4       3      11       4       3      11       4
       3      11       4       3       5       4       9       8       4       3
       5       4       3       2       1       1      12      12      11      11
       9       9       8       8       7       4      12       2       4       9
       2       7       5      10       1       9       1       1       1       8
       7       9       6       2       5       2      11       4       3       3
       1       1      11       4       3       1      11       4       3      11
       4       3      11       4       3      11       4       3       5       4
       9       8       4       3       5       4       3       2       1       1
      12      12      11      11       9       9       8       8       7       4
      12       2       4       9       2       7       5      10       1       9
       1       1       1       8       7       9       6       2       5       2
      11       4       3       3       1       1      11       4       3       1
      11       4       3      11       4       3      11       4       3      11
       4       3       5       4       9       8       4       3       5       4
       3       2       1       1      12      12      11      11       9       9
       8       8       7       4      12       2       4       9       2       7
       5      10       1       9       1       1       1       8       7       9
       6       2       5       2      11       4       3       3       1       1
      11       4       3       1      11       4       3      11       4       3
      11       4       3      11       4       3       5       4       9       8
       4       3       5       4       3       2       1       1      12      12
      11      11       9       9       8       8       7       4      12       2
       4       9       2       7       5      10       1       9       1       1
       1       8       7       9       6       2       5       2      11       4
       3       3       1       1      11       4       3       1      11       4
       3      11       4       3      11       4       3      11       4       3
       5       4       9       8       4       3       5       4       3       2
       1       1      12      12      11      11       9       9       8       8
       7       4      12       2       4       9       2       7       5      10
       1       9       1       1       1       8       7       9       6       2
       5       2      11       4       3       3       1       1      11       4
       3       1      11       4       3      11       4       3      11       4
       3      11       4       3       5       4       9       8       4       3
       5       4       3       2       1       1      12      12      11      11
       9       9       8       8       7       4      12       2       4       9
       2       7       5      10       1       9       1       1       1       8
       7       9       6       2       5       2      11       4       3       3
       1       1      11       4       3       1      11       4       3      11
       4       3      11       4       3      11       4       3       5       4
       9       8       4       3       5       4       3       2       1       1
      12      12      11      11       9       9       8       8       7       4
      12       2       4       9       2       7       5      10       1       9
       1       1       1       8       7       9       6       2       5       2
      11       4       3       3       1       1      11       4       3       1
      11       4       3      11       4       3      11       4       3      11
       4       3       5       4       9       8       4       3       5       4
       3       2       1       1      12      12      11      11       9       9
       8       8       7       4      12       2       4       9       2       7
       5      10       1       9       1       1       1       8       7       9
       6       2       5       2      11       4       3       3       1       1
      11       4       3       1      11       4       3      11       4       3
      11       4       3      11       4       3       5       4       9       8
       4       3       5       4       3       2       1       1      12      12
      11      11       9       9       8       8       7       4      12       2
       4       9       2       7       5      10       1       9       1       1
       1       8       7       9       6       2       5       2      11       4
       3       3       1       1      11       4       3       1      11       4
       3      11       4       3      11       4       3      11       4       3
       5       4       9       8       4       3       5       4       3       2
       1       1      12      12      11      11       9       9       8       8
       7       4      12       2       4       9       2       7       5      10
       1       9       1       1       1       8       7       9       6       2
       5       2      11       4       3       3       1       1      11       4
       3       1      11       4       3      11       4       3      11       4
       3      11       4       3       5       4       9       8       4       3
       5       4       3       2       1       1      12      12      11      11
       9       9       8       8       7       4      12       2       4       9
       2       7       5      10       1       9       1       1       1       8
       7       9       6       2       5       2      11       4       3       3
       1       1      11       4       3       1      11       4       3      11
       4       3      11       4       3      11       4       3       5       4
       9       8       4       3       5       4       3       2       1       1
      12      12      11      11       9       9       8       8       7       4
      12       2       4       9       2       7       5      10       1       9
       1       1       1       8       7       9       6       2       5       2
      11       4       3       3       1       1      11       4       3       1
      11       4       3      11       4       3      11       4       3      11
       4       3       5       4       9       8       4       3       5       4
       3       2       1       1      12      12      11      11       9       9
       8       8       7       4      12       2       4       9       2       7
       5      10       1       9       1       1       1       8       7       9
       6       2       5       2      11       4       3       3       1       1
      11       4       3       1      11       4       3      11       4       3
      11       4       3      11       4       3       5       4       9       8
       4       3       5       4       3       2       1       1      12      12
      11      11       9       9       8       8       7       4      12       2
       4       9       2       7       5      10       1       9       1       1
       1       8       7       9       6       2       5       2      11       4
       3       3       1       1      11       4       3       1      11       4
       3      11       4       3      11       4       3      11       4       3
       5       4       9       8       4       3       5       4       3       2
       1       1      12      12      11      11       9       9       8       8
       7       4      12       2       4       9       2       7       5      10
       1       9       1       1       1       8       7       9       6       2
       5       2      11       4       3       3       1       1      11       4
       3       1      11       4       3      11       4       3      11       4
       3      11       4       3       5       4       9       8       4       3
       5       4       3       2       1       1      12      12      11      11
       9       9       8       8       7       4      12       2       4       9
       2       7       5      10       1       9       1       1       1       8
       7       9       6       2       5       2      11       4       3       3
       1       1      11       4       3       1      11       4       3      11
       4       3      11       4       3      11       4       3       5       4
       9       8       4       3       5       4       3       2       1       1
      12      12      11      11       9       9       8       8       7       4
      12       2       4       9       2       7       5      10       1       9
       1       1       1       8       7       9       6       2       5       2
      11       4       3       3       1       1      11       4       3       1
      11       4       3      11       4       3      11       4       3      11
       4       3       5       4       9       8       4       3       5       4
       3       2       1       1      12      12      11      11       9       9
       8       8       7       4      12       2       4       9       2       7
       5      10       1       9       1       1       1       8       7       9
       6       2       5       2      11       4       3       3       1       1
      11       4       3       1      11       4       3      11       4       3
      11       4       3      11       4       3       5       4       9       8
       4       3       5       4       3       2       1       1      12      12
      11      11       9       9       8       8       7       4      12       2
       4       9       2       7       5      10       1       9       1       1
       1       8       7       9       6       2       5       2      11       4
       3       3       1       1      11       4       3       1      11       4
       3      11       4       3      11       4       3      11       4       3
       5       4       9       8       4       3       5       4       3       2
       1       1      12      12      11      11       9       9       8       8
       7       4      12       2       4       9       2       7       5      10
       1       9       1       1       1       8       7       9       6       2
       5       2      11       4       3       3       1       1      11       4
       3       1      11       4       3      11       4       3      11       4
       3      11       4       3       5       4       9       8       4       3
       5       4       3       2       1       1      12      12      11      11
       9       9       8       8       7       4      12       2       4       9
       2       7       5      10       1       9       1       1       1       8
       7       9       6       2       5       2      11       4       3       3
       1       1      11       4       3       1      11       4       3      11
       4       3      11       4       3      11       4       3       5       4
       9       8       4       3       5       4       3       2       1       1
      12      12      11      11       9       9       8       8       7       4
      12       2       4       9       2       7       5      10       1       9
       1       1       1       8       7       9       6       2       5       2
      11       4       3       3       1       1      11       4       3       1
      11       4       3      11       4       3      11       4       3      11
       4       3       5       4       9       8       4       3       5       4
       3       2       1       1      12      12      11      11       9       9
       8       8       7       4      12       2       4       9       2       7
       5      10       1       9       1       1       1       8       7       9
       6       2       5       2      11       4       3       3       1       1
      11       4       3       1      11       4       3      11       4       3
      11       4       3      11       4       3       5       4       9       8
       4       3       5       4       3       2       1       1      12      12
      11      11       9       9       8       8       7       4      12       2
       4       9       2       7       5      10       1       9       1       1
       1       8       7       9       6       2       5       2      11       4
       3       3       1       1      11       4       3       1      11       4
       3      11       4       3      11       4       3      11       4       3
       5       4       9       8       4       3       5       4       3       2
       1       1      12      12      11      11       9       9       8       8
       7       4      12       2       4       9       2       7       5      10
       1       9       1       1       1       8       7       9       6       2
       5       2      11       4       3       3       1       1      11       4
       3       1      11       4       3      11       4       3      11       4
       3      11       4       3       5       4       9       8       4       3
       5       4       3       2       1       1      12      12      11      11
       9       9       8       8       7       4      12       2       4       9
       2       7       5      10       1       9       1       1       1       8
       7       9       6       2       5       2      11       4       3       3
       1       1      11       4       3       1      11       4       3      11
       4       3      11       4       3      11       4       3       5       4
       9       8       4       3       5       4       3       2       1       1
      12      12      11      11       9       9       8       8       7       4
      12       2       4       9       2       7       5      10       1       9
       1       1       1       8       7       9       6       2       5       2
      11       4       3       3       1       1      11       4       3       1
      11       4       3      11       4       3      11       4       3      11
       4       3       5       4       9       8       4       3       5       4
       3       2       1       1      12      12      11      11       9       9
       8       8       7       4      12       2       4       9       2       7
       5      10       1       9       1       1       1       8       7       9
       6       2       5       2      11       4       3       3       1       1
      11       4       3       1      11       4       3      11       4       3
      11       4       3      11       4       3       5       4       9       8
       4       3       5       4       3       2       1       1      12      12
      11      11       9       9       8       8       7       4      12       2
       4       9       2       7       5      10       1       9       1       1
       1       8       7       9       6       2       5       2      11       4
       3       3       1       1      11       4       3       1      11       4
       3      11       4       3      11       4       3      11       4       3
       5       4       9       8       4       3       5       4       3       2
       1       1      12      12      11      11       9       9       8       8
       7       4      12       2       4       9       2       7       5      10
       1       9       1       1       1       8       7       9       6       2
       5       2      11       4       3       3       1       1      11       4
       3       1      11       4       3      11       4       3      11       4
       3      11       4       3       5       4       9       8       4       3
       5       4       3       2       1       1      12      12      11      11
       9       9       8       8       7       4      12       2       4       9
       2       7       5      10       1       9       1       1       1       8
       7       9       6       2       5       2      11       4       3       3
       1       1      11       4       3       1      11       4       3      11
       4       3      11       4       3      11       4       3       5       4
       9       8       4       3       5       4       3       2       1       1
      12      12      11      11       9       9       8       8       7       4
      12       2       4       9       2       7       5      10       1       9
       1       1       1       8       7       9       6       2       5       2
      11       4       3       3       1       1      11       4       3       1
      11       4       3      11       4       3      11       4       3      11
       4       3       5       4       9       8       4       3       5       4
       3       2       1       1      12      12      11      11       9       9
       8       8       7       4      12       2       4       9       2       7
       5      10       1       9       1       1       1       8       7       9
       6       2       5       2      11       4       3       3       1       1
      11       4       3       1      11       4       3      11       4       3
      11       4       3      11       4       3       5       4       9       8
       4       3       5       4       3       2       1       1      12      12
      11      11       9       9       8       8       7       4      12       2
       4       9       2       7       5      10       1       9       1       1
       1       8       7       9       6       2       5       2      11       4
       3       3       1       1      11       4       3       1      11       4
       3      11       4       3      11       4       3      11       4       3
       5       4       9       8       4       3       5       4       3       2
       1       1      12      12      11      11       9       9       8       8
       7       4      12       2       4       9       2       7       5      10
       1       9       1       1       1       8       7       9       6       2
       5       2      11       4       3       3       1       1      11       4
       3       1      11       4       3      11       4       3      11       4
       3      11       4       3       5       4       9       8       4       3
       5       4       3       2       1       1      12      12      11      11
       9       9       8       8       7       4      12       2       4       9
       2       7       5      10       1       9       1       1       1       8
       7       9       6       2       5       2      11       4       3       3
       1       1      11       4       3       1      11       4       3      11
       4       3      11       4       3      11       4       3       5       4
       9       8       4       3       5       4       3       2       1       1
      12      12      11      11       9       9       8       8       7       4
      12       2       4       9       2       7       5      10       1       9
       1       1       1       8       7       9       6       2       5       2
      11       4       3       3       1       1      11       4       3       1
      11       4       3      11       4       3      11       4       3      11
       4       3       5       4       9       8       4       3       5       4
       3       2       1       1      12      12      11      11       9       9
       8       8       7       4      12       2       4       9       2       7
       5      10       1       9       1       1       1       8       7       9
       6       2       5       2      11       4       3       3       1       1
      11       4       3       1      11       4       3      11       4       3
      11       4       3      11       4       3       5       4       9       8
       4       3       5       4       3       2       1       1      12      12
      11      11       9       9       8       8       7       4      12       2
       4       9       2       7       5      10       1       9       1       1
       1       8       7       9       6       2       5       2      11       4
       3       3       1       1      11       4       3       1      11       4
       3      11       4       3      11       4       3      11       4       3
       5       4       9       8       4       3       5       4       3       2
       1       1      12      12      11      11       9       9       8       8
       7       4      12       2       4       9       2       7       5      10
       1       9       1       1       1       8       7       9       6       2
       5       2      11       4       3       3       1       1      11       4
       3       1      11       4       3      11       4       3      11       4
       3      11       4       3       5       4       9       8       4       3
       5       4       3       2       1       1      12      12      11      11
       9       9       8       8       7       4      12       2       4       9
       2       7       5      10       1       9       1       1       1       8
       7       9       6       2       5       2      11       4       3       3
       1       1      11       4       3       1      11       4       3      11
       4       3      11       4       3      11       4       3       5       4
       9       8       4       3       5       4       3       2       1       1
      12      12      11      11       9       9       8       8       7       4
      12       2       4       9       2       7       5      10       1       9
       1       1       1       8       7       9       6       2       5       2
      11       4       3       3       1       1      11       4       3       1
      11       4       3      11       4       3      11       4       3      11
       4       3       5       4       9       8       4       3       5       4
       3       2       1       1      12      12      11      11       9       9
       8       8       7       4      12       2       4       9       2       7
       5      10       1       9       1       1       1       8       7       9
       6       2       5       2      11       4       3       3       1       1
      11       4       3       1      11       4       3      11       4       3
      11       4       3      11       4       3       5       4       9       8
       4       3       5       4       3       2       1       1      12      12
      11      11       9       9       8       8       7       4      12       2
       4       9       2       7       5      10       1       9       1       1
       1       8       7       9       6       2       5       2      11       4
       3       3       1       1      11       4       3       1      11       4
       3      11       4       3      11       4       3      11       4       3
       5       4       9       8       4       3       5       4       3       2
       1       1      12      12      11      11       9       9       8       8
       7       4      12       2       4       9       2       7       5      10
       1       9       1       1       1       8       7       9       6       2
       5       2      11       4       3       3       1       1      11       4
       3       1      11       4       3      11       4       3      11       4
       3      11       4       3       5       4       9       8       4       3
       5       4       3       2       1       1      12      12      11      11
       9       9       8       8       7       4      12       2       4       9
       2       7       5      10       1       9       1       1       1       8
       7       9       6       2       5       2      11       4       3       3
       1       1      11       4       3       1      11       4       3      11
       4       3      11       4       3      11       4       3       5       4
       9       8       4       3       5       4       3       2       1       1
      12      12      11      11       9       9       8       8       7       4
      12       2       4       9       2       7       5      10       1       9
       1       1       1       8       7       9       6       2       5       2
      11       4       3       3       1       1      11       4       3       1
      11       4       3      11       4       3      11       4       3      11
       4       3       5       4       9       8       4       3       5       4
       3       2       1       1      12      12      11      11       9       9
       8       8       7       4      12       2       4       9       2       7
       5      10       1       9       1       1       1       8       7       9
       6       2       5       2      11       4       3       3       1       1
      11       4       3       1      11       4       3      11       4       3
      11       4       3      11       4       3       5       4       9       8
       4       3       5       4       3       2       1       1      12      12
      11      11       9       9       8       8       7       4      12       2
       4       9       2       7       5      10       1       9       1       1
       1       8       7       9       6       2       5       2      11       4
       3       3       1       1      11       4       3       1      11       4
       3      11       4       3      11       4       3      11       4       3
       5       4       9       8       4       3       5       4       3       2
       1       1      12      12      11      11       9       9       8       8
       7       4      12       2       4       9       2       7       5      10
       1       9       1       1       1       8       7       9       6       2
       5       2      11       4       3       3       1       1      11       4
       3       1      11       4       3      11       4       3      11       4
       3      11       4       3       5       4       9       8       4       3
       5       4       3       2       1       1      12      12      11      11
       9       9       8       8       7       4      12       2       4       9
       2       7       5      10       1       9       1       1       1       8
       7       9       6       2       5       2      11       4       3       3
       1       1      11       4       3       1      11       4       3      11
       4       3      11       4       3      11       4       3       5       4
       9       8       4       3       5       4       3       2       1       1
      12      12      11      11       9       9       8       8       7       4
      12       2       4       9       2       7       5      10       1       9
       1       1       1       8       7       9       6       2       5       2
      11       4       3       3       1       1      11       4       3       1
      11       4       3      11       4       3      11       4       3      11
       4       3       5       4       9       8       4       3       5       4
       3       2       1       1      12      12      11      11       9       9
       8       8       7       4      12       2       4       9       2       7
       5      10       1       9       1       1       1       8       7       9
       6       2       5       2      11       4       3       3       1       1
      11       4       3       1      11       4       3      11       4       3
      11       4       3      11       4       3       5       4       9       8
       4       3       5       4       3       2       1       1      12      12
      11      11       9       9       8       8       7       4      12       2
       4       9       2       7       5      10       1       9       1       1
       1       8       7       9       6       2       5       2      11       4
       3       3       1       1      11       4       3       1      11       4
       3      11       4       3      11       4       3      11       4       3
       5       4       9       8       4       3       5       4       3       2
       1       1      12      12      11      11       9       9       8       8
       7       4      12       2       4       9       2       7       5      10
       1       9       1       1       1       8       7       9       6       2
       5       2      11       4       3       3       1       1      11       4
       3       1      11       4       3      11       4       3      11       4
       3      11       4       3       5       4       9       8       4       3
       5       4       3       2       1       1      12      12      11      11
       9       9       8       8       7       4      12       2       4       9
       2       7       5      10       1       9       1       1       1       8
       7       9       6       2       5       2      11       4       3       3
       1       1      11       4       3       1      11       4       3      11
       4       3      11       4       3      11       4       3       5       4
       9       8       4       3       5       4       3       2       1       1
      12      12      11      11       9       9       8       8       7       4
      12       2       4       9       2       7       5      10       1       9
       1       1       1       8       7       9       6       2       5       2
      11       4       3       3       1       1      11       4       3       1
      11       4       3      11       4       3      11       4       3      11
       4       3       5       4       9       8       4       3       5       4
       3       2       1       1      12      12      11      11       9       9
       8       8       7       4      12       2       4       9       2       7
       5      10       1       9       1       1       1       8       7       9
       6       2       5       2      11       4       3       3       1       1
      11       4       3       1      11       4       3      11       4       3
      11       4       3      11       4       3       5       4       9       8
       4       3       5       4       3       2       1       1      12      12
      11      11       9       9       8       8       7       4      12       2
       4       9       2       7       5      10       1       9       1       1
       1       8       7       9       6       2       5       2      11       4
       3       3       1       1      11       4       3       1      11       4
       3      11       4       3      11       4       3      11       4       3
       5       4       9       8       4       3       5       4       3       2
       1       1      12      12      11      11       9       9       8       8
       7       4      12       2       4       9       2       7       5      10
       1       9       1       1       1       8       7       9       6       2
       5       2      11       4       3       3       1       1      11       4
       3       1      11       4       3      11       4       3      11       4
       3      11       4       3       5       4       9       8       4       3
       5       4       3       2       1       1      12      12      11      11
       9       9       8       8       7       4      12       2       4       9
       2       7       5      10       1       9       1       1       1       8
       7       9       6       2       5       2      11       4       3       3
       1       1      11       4       3       1      11       4       3      11
       4       3      11       4       3      11       4       3       5       4
       9       8       4       3       5       4       3       2       1       1
      12      12      11      11       9       9       8       8       7       4
      12       2       4       9       2       7       5      10       1       9
       1       1       1       8       7       9       6       2       5       2
      11       4       3       3       1       1      11       4       3       1
      11       4       3      11       4       3      11       4       3      11
       4       3       5       4       9       8       4       3       5       4
       3       2       1       1      12      12      11      11       9       9
       8       8       7       4      12       2       4       9       2       7
       5      10       1       9       1       1       1       8       7       9
       6       2       5       2      11       4       3       3       1       1
      11       4       3       1      11       4       3      11       4       3
      11       4       3      11       4       3       5       4       9       8
       4       3       5       4       3       2       1       1      12      12
      11      11       9       9       8       8       7       4      12       2
       4       9       2       7       5      10       1       9       1       1
       1       8       7       9       6       2       5       2      11       4
       3       3       1       1      11       4       3       1      11       4
       3      11       4       3      11       4       3      11       4       3
       5       4       9       8       4       3       5       4       3       2
       1       1      12      12      11      11       9       9       8       8
       7       4      12       2       4       9       2       7       5      10
       1       9       1       1       1       8       7       9       6       2
       5       2      11       4       3       3       1       1      11       4
       3       1      11       4       3      11       4       3      11       4
       3      11       4       3       5       4       9       8       4       3
       5       4       3       2       1       1      12      12      11      11
       9       9       8       8       7       4      12       2       4       9
       2       7       5      10       1       9       1       1       1       8
       7       9       6       2       5       2      11       4       3       3
       1       1      11       4       3       1      11       4       3      11
       4       3      11       4       3      11       4       3       5       4
       9       8       4       3       5       4       3       2       1       1
      12      12      11      11       9       9       8       8       7       4
      12       2       4       9       2       7       5      10       1       9
       1       1       1       8       7       9       6       2       5       2
      11       4       3       3       1       1      11       4       3       1
      11       4       3      11       4       3      11       4       3      11
       4       3       5       4       9       8       4       3       5       4
       3       2       1       1      12      12      11      11       9       9
       8       8       7       4      12       2       4       9       2       7
       5      10       1       9       1       1       1       8       7       9
       6       2       5       2      11       4       3       3       1       1
      11       4       3       1      11       4       3      11       4       3
      11       4       3      11       4       3       5       4       9       8
       4       3       5       4       3       2       1       1      12      12
      11      11       9       9       8       8       7       4      12       2
       4       9       2       7       5      10       1       9       1       1
       1       8       7       9       6       2       5       2      11       4
       3       3       1       1      11       4       3       1      11       4
       3      11       4       3      11       4       3      11       4       3
       5       4       9       8       4       3       5       4       3       2
       1       1      12      12      11      11       9       9       8       8
       7       4      12       2       4       9       2       7       5      10
       1       9       1       1       1       8       7       9       6       2
       5       2      11       4       3       3       1       1      11       4
       3       1      11       4       3      11       4       3      11       4
       3      11       4       3       5       4       9       8       4       3
       5       4       3       2       1       1      12      12      11      11
       9       9       8       8       7       4      12       2       4       9
       2       7       5      10       1       9       1       1       1       8
       7       9       6       2       5       2      11       4       3       3
       1       1      11       4       3       1      11       4       3      11
       4       3      11       4       3      11       4       3       5       4
       9       8       4       3       5       4       3       2       1       1
      12      12      11      11       9       9       8       8       7       4
      12       2       4       9       2       7       5      10       1       9
       1       1       1       8       7       9       6       2       5       2
      11       4       3       3       1       1      11       4       3       1
      11       4       3      11       4       3      11       4       3      11
       4       3       5       4       9       8       4       3       5       4
       3       2       1       1      12      12      11      11       9       9
       8       8       7       4      12       2       4       9       2       7
       5      10       1       9       1       1       1       8       7       9
       6       2       5       2      11       4       3       3       1       1
      11       4       3       1      11       4       3      11       4       3
      11       4       3      11       4       3       5       4       9       8
       4       3       5       4       3       2       1       1      12      12
      11      11       9       9       8       8       7       4      12       2
       4       9       2       7       5      10       1       9       1       1
       1       8       7       9       6       2       5       2      11       4
       3       3       1       1      11       4       3       1      11       4
       3      11       4       3      11       4       3      11       4       3
       5       4       9       8       4       3       5       4       3       2
       1       1      12      12      11      11       9       9       8       8
       7       4      12       2       4       9       2       7       5      10
       1       9       1       1       1       8       7       9       6       2
       5       2      11       4       3       3       1       1      11       4
       3       1      11       4       3      11       4       3      11       4
       3      11       4       3       5       4       9       8       4       3
       5       4       3       2       1       1      12      12      11      11
       9       9       8       8       7       4      12       2       4       9
       2       7       5      10       1       9       1       1       1       8
       7       9       6       2       5       2      11       4       3       3
       1       1      11       4       3       1      11       4       3      11
       4       3      11       4       3      11       4       3       5       4
       9       8       4       3       5       4       3       2       1       1
      12      12      11      11       9       9       8       8       7       4
      12       2       4       9       2       7       5      10       1       9
       1       1       1       8       7       9       6       2       5       2
      11       4       3       3       1       1      11       4       3       1
      11       4       3      11       4       3      11       4       3      11
       4       3       5       4       9       8       4       3       5       4
       3       2       1       1      12      12      11      11       9       9
       8       8       7       4      12       2       4       9       2       7
       5      10       1       9       1       1       1       8       7       9
       6       2       5       2      11       4       3       3       1       1
      11       4       3       1      11       4       3      11       4       3
      11       4       3      11       4       3       5       4       9       8
       4       3       5       4       3       2       1       1      12      12
      11      11       9       9       8       8       7       4      12       2
       4       9       2       7       5      10       1       9       1       1
       1       8       7       9       6       2       5       2      11       4
       3       3       1       1      11       4       3       1      11       4
       3      11       4       3      11       4       3      11       4       3
       5       4       9       8       4       3       5       4       3       2
       1       1      12      12      11      11       9       9       8       8
       7       4      12       2       4       9       2       7       5      10
       1       9       1       1       1       8       7       9       6       2
       5       2      11       4       3       3       1       1      11       4
       3       1      11       4       3      11       4       3      11       4
       3      11       4       3       5       4       9       8       4       3
       5       4       3       2       1       1      12      12      11      11
       9       9       8       8       7       4      12       2       4       9
       2       7       5      10       1       9       1       1       1       8
       7       9       6       2       5       2      11       4       3       3
       1       1      11       4       3       1      11       4       3      11
       4       3      11       4       3      11       4       3       5       4
       9       8       4       3       5       4       3       2       1       1
      12      12      11      11       9       9       8       8       7       4
      12       2       4       9       2       7       5      10       1       9
       1       1       1       8       7       9       6       2       5       2
      11       4       3       3       1       1      11       4       3       1
      11       4       3      11       4       3      11       4       3      11
       4       3       5       4       9       8       4       3       5       4
       3       2       1       1      12      12      11      11       9       9
       8       8       7       4      12       2       4       9       2       7
       5      10       1       9       1       1       1       8       7       9
       6       2       5       2      11       4       3       3       1       1
      11       4       3       1      11       4       3      11       4       3
      11       4       3      11       4       3       5       4       9       8
       4       3       5       4       3       2       1       1      12      12
      11      11       9       9       8       8       7       4      12       2
       4       9       2       7       5      10       1       9       1       1
       1       8       7       9       6       2       5       2      11       4
       3       3       1       1      11       4       3       1      11       4
       3      11       4       3      11       4       3      11       4       3
       5       4       9       8       4       3       5       4       3       2
       1       1      12      12      11      11       9       9       8       8
       7       4      12       2       4       9       2       7       5      10
       1       9       1       1       1       8       7       9       6       2
       5       2      11       4       3       3       1       1      11       4
       3       1      11       4       3      11       4       3      11       4
       3      11       4       3       5       4       9       8       4       3
       5       4       3       2       1       1      12      12      11      11
       9       9       8       8       7       4      12       2       4       9
       2       7       5      10       1       9       1       1       1       8
       7       9       6       2       5       2      11       4       3       3
       1       1      11       4       3       1      11       4       3      11
       4       3      11       4       3      11       4       3       5       4
       9       8       4       3       5       4       3       2       1       1
      12      12      11      11       9       9       8       8       7       4
      12       2       4       9       2       7       5      10       1       9
       1       1       1       8       7       9       6       2       5       2
      11       4       3       3       1       1      11       4       3       1
      11       4       3      11       4       3      11       4       3      11
       4       3       5       4       9       8       4       3       5       4
       3       2       1       1      12      12      11      11       9       9
       8       8       7       4      12       2       4       9       2       7
       5      10       1       9       1       1       1       8       7       9
       6       2       5       2      11       4       3       3       1       1
      11       4       3       1      11       4       3      11       4       3
      11       4       3      11       4       3       5       4       9       8
       4       3       5       4       3       2       1       1      12      12
      11      11       9       9       8       8       7       4      12       2
       4       9       2       7       5      10       1       9       1       1
       1       8       7       9       6       2       5       2      11       4
       3       3       1       1      11       4       3       1      11       4
       3      11       4       3      11       4       3      11       4       3
       5       4       9       8       4       3       5       4       3       2
       1       1      12      12      11      11       9       9       8       8
       7       4      12       2       4       9       2       7       5      10
       1       9       1       1       1       8       7       9       6       2
       5       2      11       4       3       3       1       1      11       4
       3       1      11       4       3      11       4       3      11       4
       3      11       4       3       5       4       9       8       4       3
       5       4       3       2       1       1      12      12      11      11
       9       9       8       8       7       4      12       2       4       9
       2       7       5      10       1       9       1       1       1       8
       7       9       6       2       5       2      11       4       3       3
       1       1      11       4       3       1      11       4       3      11
       4       3      11       4       3      11       4       3       5       4
       9       8       4       3       5       4       3       2       1       1
      12      12      11      11       9       9       8       8       7       4
      12       2       4       9       2       7       5      10       1       9
       1       1       1       8       7       9       6       2       5       2
      11       4       3       3       1       1      11       4       3       1
      11       4       3      11       4       3      11       4       3      11
       4       3       5       4       9       8       4       3       5       4
       3       2       1       1      12      12      11      11       9       9
       8       8       7       4      12       2       4       9       2       7
       5      10       1       9       1       1       1       8       7       9
       6       2       5       2      11       4       3       3       1       1
      11       4       3       1      11       4       3      11       4       3
      11       4       3      11       4       3       5       4       9       8
       4       3       5       4       3       2       1       1      12      12
      11      11       9       9       8       8       7       4      12       2
       4       9       2       7       5      10       1       9       1       1
       1       8       7       9       6       2       5       2      11       4
       3       3       1       1      11       4       3       1      11       4
       3      11       4       3      11       4       3      11       4       3
       5       4       9       8       4       3       5       4       3       2
       1       1      12      12      11      11       9       9       8       8
       7       4      12       2       4       9       2       7       5      10
       1       9       1       1       1       8       7       9       6       2
       5       2      11       4       3       3       1       1      11       4
       3       1      11       4       3      11       4       3      11       4
       3      11       4       3       5       4       9       8       4       3
       5       4       3       2       1       1      12      12      11      11
       9       9       8       8       7       4      12       2       4       9
       2       7       5      10       1       9       1       1       1       8
       7       9       6       2       5       2      11       4       3       3
       1       1      11       4       3       1      11       4       3      11
       4       3      11       4       3      11       4       3       5       4
       9       8       4       3       5       4       3       2       1       1
      12      12      11      11       9       9       8       8       7       4
      12       2       4       9       2       7       5      10       1       9
       1       1       1       8       7       9       6       2       5       2
      11       4       3       3       1       1      11       4       3       1
      11       4       3      11       4       3      11       4       3      11
       4       3       5       4       9       8       4       3       5       4
       3       2       1       1      12      12      11      11       9       9
       8       8       7       4      12       2       4       9       2       7
       5      10       1       9       1       1       1       8       7       9
       6       2       5       2      11       4       3       3       1       1
      11       4       3       1      11       4       3      11       4       3
      11       4       3      11       4       3       5       4       9       8
       4       3       5       4       3       2       1       1      12      12
      11      11       9       9       8       8       7       4      12       2
       4       9       2       7       5      10       1       9       1       1
       1       8       7       9       6       2       5       2      11       4
       3       3       1       1      11       4       3       1      11       4
       3      11       4       3      11       4       3      11       4       3
       5       4       9       8       4       3       5       4       3       2
       1       1      12      12      11      11       9       9       8       8
       7       4      12       2       4       9       2       7       5      10
       1       9       1       1       1       8       7       9       6       2
       5       2      11       4       3       3       1       1      11       4
       3       1      11       4       3      11       4       3      11       4
       3      11       4       3       5       4       9       8       4       3
       5       4       3       2       1       1      12      12      11      11
       9       9       8       8       7       4      12       2       4       9
       2       7       5      10       1       9       1       1       1       8
       7       9       6       2       5       2      11       4       3       3
       1       1      11       4       3       1      11       4       3      11
       4       3      11       4       3      11       4       3       5       4
       9       8       4       3       5       4       3       2       1       1
      12      12      11      11       9       9       8       8       7       4
      12       2       4       9       2       7       5      10       1       9
       1       1       1       8       7       9       6       2       5       2
      11       4       3       3       1       1      11       4       3       1
      11       4       3      11       4       3      11       4       3      11
       4       3       5       4       9       8       4       3       5       4
       3       2       1       1      12      12      11      11       9       9
       8       8       7       4      12       2       4       9       2       7
       5      10       1       9       1       1       1       8       7       9
       6       2       5       2      11       4       3       3       1       1
      11       4       3       1      11       4       3      11       4       3
      11       4       3      11       4       3       5       4       9       8
       4       3       5       4       3       2       1       1      12      12
      11      11       9       9       8       8       7       4      12       2
       4       9       2       7       5      10       1       9       1       1
       1       8       7       9       6       2       5       2      11       4
       3       3       1       1      11       4       3       1      11       4
       3      11       4       3      11       4       3      11       4       3
       5       4       9       8       4       3       5       4       3       2
       1       1      12      12      11      11       9       9       8       8
       7       4      12       2       4       9       2       7       5      10
       1       9       1       1       1       8       7       9       6       2
       5       2      11       4       3       3       1       1      11       4
       3       1      11       4       3      11       4       3      11       4
       3      11       4       3       5       4       9       8       4       3
       5       4       3       2       1       1      12      12      11      11
       9       9       8       8       7       4      12       2       4       9
       2       7       5      10       1       9       1       1       1       8
       7       9       6       2       5       2      11       4       3       3
       1       1      11       4       3       1      11       4       3      11
       4       3      11       4       3      11       4       3       5       4
       9       8       4       3       5       4       3       2       1       1
      12      12      11      11       9       9       8       8       7       4
      12       2       4       9       2       7       5      10       1       9
       1       1       1       8       7       9       6       2       5       2
      11       4       3       3       1       1      11       4       3       1
      11       4       3      11       4       3      11       4       3      11
       4       3       5       4       9       8       4       3       5       4
       3       2       1       1      12      12      11      11       9       9
       8       8       7       4      12       2       4       9       2       7
       5      10       1       9       1       1       1       8       7       9
       6       2       5       2      11       4       3       3       1       1
      11       4       3       1      11       4       3      11       4       3
      11       4       3      11       4       3       5       4       9       8
       4       3       5       4       3       2       1       1      12      12
      11      11       9       9       8       8       7       4      12       2
       4       9       2       7       5      10       1       9       1       1
       1       8       7       9       6       2       5       2      11       4
       3       3       1       1      11       4       3       1      11       4
       3      11       4       3      11       4       3      11       4       3
       5       4       9       8       4       3       5       4       3       2
       1       1      12      12      11      11       9       9       8       8
       7       4      12       2       4       9       2       7       5      10
       1       9       1       1       1       8       7       9       6       2
       5       2      11       4       3       3       1       1      11       4
       3       1      11       4       3      11       4       3      11       4
       3      11       4       3       5       4       9       8       4       3
       5       4       3       2       1       1      12      12      11      11
       9       9       8       8       7       4      12       2       4       9
       2       7       5      10       1       9       1       1       1       8
       7       9       6       2       5       2      11       4       3       3
       1       1      11       4       3       1      11       4       3      11
       4       3      11       4       3      11       4       3       5       4
       9       8       4       3       5       4       3       2       1       1
      12      12      11      11       9       9       8       8       7       4
      12       2       4       9       2       7       5      10       1       9
       1       1       1       8       7       9       6       2       5       2
      11       4       3       3       1       1      11       4       3       1
      11       4       3      11       4       3      11       4       3      11
       4       3       5       4       9       8       4       3       5       4
       3       2       1       1      12      12      11      11       9       9
       8       8       7       4      12       2       4       9       2       7
       5      10       1       9       1       1       1       8       7       9
       6       2       5       2      11       4       3       3       1       1
      11       4       3       1      11       4       3      11       4       3
      11       4       3      11       4       3       5       4       9       8
       4       3       5       4       3       2       1       1      12      12
      11      11       9       9       8       8       7       4      12       2
       4       9       2       7       5      10       1       9       1       1
       1       8       7       9       6       2       5       2      11       4
       3       3       1       1      11       4       3       1      11       4
       3      11       4       3      11       4       3      11       4       3
       5       4       9       8       4       3       5       4       3       2
       1       1      12      12      11      11       9       9       8       8
       7       4      12       2       4       9       2       7       5      10
       1       9       1       1       1       8       7       9       6       2
       5       2      11       4       3       3       1       1      11       4
       3       1      11       4       3      11       4       3      11       4
       3      11       4       3       5       4       9       8       4       3
       5       4       3       2       1       1      12      12      11      11
       9       9       8       8       7       4      12       2       4       9
       2       7       5      10       1       9       1       1       1       8
       7       9       6       2       5       2      11       4       3       3
       1       1      11       4       3       1      11       4       3      11
       4       3      11       4       3      11       4       3       5       4
       9       8       4       3       5       4       3       2       1       1
      12      12      11      11       9       9       8       8       7       4
      12       2       4       9       2       7       5      10       1       9
       1       1       1       8       7       9       6       2       5       2
      11       4       3       3       1       1      11       4       3       1
      11       4       3      11       4       3      11       4       3      11
       4       3       5       4       9       8       4       3       5       4
       3       2       1       1      12      12      11      11       9       9
       8       8       7       4      12       2       4       9       2       7
       5      10       1       9       1       1       1       8       7       9
       6       2       5       2      11       4       3       3       1       1
      11       4       3       1      11       4       3      11       4       3
      11       4       3      11       4       3       5       4       9       8
       4       3       5       4       3       2       1       1      12      12
      11      11       9       9       8       8       7       4      12       2
       4       9       2       7       5      10       1       9       1       1
       1       8       7       9       6       2       5       2      11       4
       3       3       1       1      11       4       3       1      11       4
       3      11       4       3      11       4       3      11       4       3
       5       4       9       8       4       3       5       4       3       2
       1       1      12      12      11      11       9       9       8       8
       7       4      12       2       4       9       2       7       5      10
       1       9       1       1       1       8       7       9       6       2
       5       2      11       4       3       3       1       1      11       4
       3       1      11       4       3      11       4       3      11       4
       3      11       4       3       5       4       9       8       4       3
       5       4       3       2       1       1      12      12      11      11
       9       9       8       8       7       4      12       2       4       9
       2       7       5      10       1       9       1       1       1       8
       7       9       6       2       5       2      11       4       3       3
       1       1      11       4       3       1      11       4       3      11
       4       3      11       4       3      11       4       3       5       4
       9       8       4       3       5       4       3       2       1       1
      12      12      11      11       9       9       8       8       7       4
      12       2       4       9       2       7       5      10       1       9
       1       1       1       8       7       9       6       2       5       2
      11       4       3       3       1       1      11       4       3       1
      11       4       3      11       4       3      11       4       3      11
       4       3       5       4       9       8       4       3       5       4
       3       2       1       1      12      12      11      11       9       9
       8       8       7       4      12       2       4       9       2       7
       5      10       1       9       1       1       1       8       7       9
       6       2       5       2      11       4       3       3       1       1
      11       4       3       1      11       4       3      11       4       3
      11       4       3      11       4       3       5       4       9       8
       4       3       5       4       3       2       1       1      12      12
      11      11       9       9       8       8       7       4      12       2
       4       9       2       7       5      10       1       9       1       1
       1       8       7       9       6       2       5       2      11       4
       3       3       1       1      11       4       3       1      11       4
       3      11       4       3      11       4       3      11       4       3
       5       4       9       8       4       3       5       4       3       2
       1       1      12      12      11      11       9       9       8       8
       7       4      12       2       4       9       2       7       5      10
       1       9       1       1       1       8       7       9       6       2
       5       2      11       4       3       3       1       1      11       4
       3       1      11       4       3      11       4       3      11       4
       3      11       4       3       5       4       9       8       4       3
       5       4       3       2       1       1      12      12      11      11
       9       9       8       8       7       4      12       2       4       9
       2       7       5      10       1       9       1       1       1       8
       7       9       6       2       5       2      11       4       3       3
       1       1      11       4       3       1      11       4       3      11
       4       3      11       4       3      11       4       3       5       4
       9       8       4       3       5       4       3       2       1       1
      12      12      11      11       9       9       8       8       7       4
      12       2       4       9       2       7       5      10       1       9
       1       1       1       8       7       9       6       2       5       2
      11       4       3       3       1       1      11       4       3       1
      11       4       3      11       4       3      11       4       3      11
       4       3       5       4       9       8       4       3       5       4
       3       2       1       1      12      12      11      11       9       9
       8       8       7       4      12       2       4       9       2       7
       5      10       1       9       1       1       1       8       7       9
       6       2       5       2      11       4       3       3       1       1
      11       4       3       1      11       4       3      11       4       3
      11       4       3      11       4       3       5       4       9       8
       4       3       5       4       3       2       1       1      12      12
      11      11       9       9       8       8       7       4      12       2
       4       9       2       7       5      10       1       9       1       1
       1       8       7       9       6       2       5       2      11       4
       3       3       1       1      11       4       3       1      11       4
       3      11       4       3      11       4       3      11       4       3
       5       4       9       8       4       3       5       4       3       2
       1       1      12      12      11      11       9       9       8       8
       7       4      12       2       4       9       2       7       5      10
       1       9       1       1       1       8       7       9       6       2
       5       2      11       4       3       3       1       1      11       4
       3       1      11       4       3      11       4       3      11       4
       3      11       4       3       5       4       9       8       4       3
       5       4       3       2       1       1      12      12      11      11
       9       9       8       8       7       4      12       2       4       9
       2       7       5      10       1       9       1       1       1       8
       7       9       6       2       5       2      11       4       3       3
       1       1      11       4       3       1      11       4       3      11
       4       3      11       4       3      11       4       3       5       4
       9       8       4       3       5       4       3       2       1       1
      12      12      11      11       9       9       8       8       7       4
      12       2       4       9       2       7       5      10       1       9
       1       1       1       8       7       9       6       2       5       2
      11       4       3       3       1       1      11       4       3       1
      11       4       3      11       4       3      11       4       3      11
       4       3       5       4       9       8       4       3       5       4
       3       2       1       1      12      12      11      11       9       9
       8       8       7       4      12       2       4       9       2       7
       5      10       1       9       1       1       1       8       7       9
       6       2       5       2      11       4       3       3       1       1
      11       4       3       1      11       4       3      11       4       3
      11       4       3      11       4       3       5       4       9       8
       4       3       5       4       3       2       1       1      12      12
      11      11       9       9       8       8       7       4      12       2
       4       9       2       7       5      10       1       9       1       1
       1       8       7       9       6       2       5       2      11       4
       3       3       1       1      11       4       3       1      11       4
       3      11       4       3      11       4       3      11       4       3
       5       4       9       8       4       3       5       4       3       2
       1       1      12      12      11      11       9       9       8       8
       7       4      12       2       4       9       2       7       5      10
       1       9       1       1       1       8       7       9       6       2
       5       2      11       4       3       3       1       1      11       4
       3       1      11       4       3      11       4       3      11       4
       3      11       4       3       5       4       9       8       4       3
       5       4       3       2       1       1      12      12      11      11
       9       9       8       8       7       4      12       2       4       9
       2       7       5      10       1       9       1       1       1       8
       7       9       6       2       5       2      11       4       3       3
       1       1      11       4       3       1      11       4       3      11
       4       3      11       4       3      11       4       3       5       4
       9       8       4       3       5       4       3       2       1       1
      12      12      11      11       9       9       8       8       7       4
      12       2       4       9       2       7       5      10       1       9
       1       1       1       8       7       9       6       2       5       2
      11       4       3       3       1       1      11       4       3       1
      11       4       3      11       4       3      11       4       3      11
       4       3       5       4       9       8       4       3       5       4
       3       2       1       1      12      12      11      11       9       9
       8       8       7       4      12       2       4       9       2       7
       5      10       1       9       1       1       1       8       7       9
       6       2       5       2      11       4       3       3       1       1
      11       4       3       1      11       4       3      11       4       3
      11       4       3      11       4       3       5       4       9       8
       4       3       5       4       3       2       1       1      12      12
      11      11       9       9       8       8       7       4      12       2
       4       9       2       7       5      10       1       9       1       1
       1       8       7       9       6       2       5       2      11       4
       3       3       1       1      11       4       3       1      11       4
       3      11       4       3      11       4       3      11       4       3
       5       4       9       8       4       3       5       4       3       2
       1       1      12      12      11      11       9       9       8       8
       7       4      12       2       4       9       2       7       5      10
       1       9       1       1       1       8       7       9       6       2
       5       2      11       4       3       3       1       1      11       4
       3       1      11       4       3      11       4       3      11       4
       3      11       4       3       5       4       9       8       4       3
       5       4       3       2       1       1      12      12      11      11
       9       9       8       8       7       4      12       2       4       9
       2       7       5      10       1       9       1       1       1       8
       7       9       6       2       5       2      11       4       3       3
       1       1      11       4       3       1      11       4       3      11
       4       3      11       4       3      11       4       3       5       4
       9       8       4       3       5       4       3       2       1       1
      12      12      11      11       9       9       8       8       7       4
      12       2       4       9       2       7       5      10       1       9
       1       1       1       8       7       9       6       2       5       2
      11       4       3       3       1       1      11       4       3       1
      11       4       3      11       4       3      11       4       3      11
       4       3       5       4       9       8       4       3       5       4
       3       2       1       1      12      12      11      11       9       9
       8       8       7       4      12       2       4       9       2       7
       5      10       1       9       1       1       1       8       7       9
       6       2       5       2      11       4       3       3       1       1
      11       4       3       1      11       4       3      11       4       3
      11       4       3      11       4       3       5       4       9       8
       4       3       5       4       3       2       1       1      12      12
      11      11       9       9       8       8       7       4      12       2
       4       9       2       7       5      10       1       9       1       1
       1       8       7       9       6       2       5       2      11       4
       3       3       1       1      11       4       3       1      11       4
       3      11       4       3      11       4       3      11       4       3
       5       4       9       8       4       3       5       4       3       2
       1       1      12      12      11      11       9       9       8       8
       7       4      12       2       4       9       2       7       5      10
       1       9       1       1       1       8       7       9       6       2
       5       2      11       4       3       3       1       1      11       4
       3       1      11       4       3      11       4       3      11       4
       3      11       4       3       5       4       9       8       4       3
       5       4       3       2       1       1      12      12      11      11
       9       9       8       8       7       4      12       2       4       9
       2       7       5      10       1       9       1       1       1       8
       7       9       6       2       5       2      11       4       3       3
       1       1      11       4       3       1      11       4       3      11
       4       3      11       4       3      11       4       3       5       4
       9       8       4       3       5       4       3       2       1       1
      12      12      11      11       9       9       8       8       7       4
      12       2       4       9       2       7       5      10       1       9
       1       1       1       8       7       9       6       2       5       2
      11       4       3       3       1       1      11       4       3       1
      11       4       3      11       4       3      11       4       3      11
       4       3       5       4       9       8       4       3       5       4
       3       2       1       1      12      12      11      11       9       9
       8       8       7       4      12       2       4       9       2       7
       5      10       1       9       1       1       1       8       7       9
       6       2       5       2      11       4       3       3       1       1
      11       4       3       1      11       4       3      11       4       3
      11       4       3      11       4       3       5       4       9       8
       4       3       5       4       3       2       1       1      12      12
      11      11       9       9       8       8       7       4      12       2
       4       9       2       7       5      10       1       9       1       1
       1       8       7       9       6       2       5       2      11       4
       3       3       1       1      11       4       3       1      11       4
       3      11       4       3      11       4       3      11       4       3
       5       4       9       8       4       3       5       4       3       2
       1       1      12      12      11      11       9       9       8       8
       7       4      12       2       4       9       2       7       5      10
       1       9       1       1       1       8       7       9       6       2
       5       2      11       4       3       3       1       1      11       4
       3       1      11       4       3      11       4       3      11       4
       3      11       4       3       5       4       9       8       4       3
       5       4       3       2       1       1      12      12      11      11
       9       9       8       8       7       4      12       2       4       9
       2       7       5      10       1       9       1       1       1       8
       7       9       6       2       5       2      11       4       3       3
       1       1      11       4       3       1      11       4       3      11
       4       3      11       4       3      11       4       3       5       4
       9       8       4       3       5       4       3       2       1       1
      12      12      11      11       9       9       8       8       7       4
      12       2       4       9       2       7       5      10       1       9
       1       1       1       8       7       9       6       2       5       2
      11       4       3       3       1       1      11       4       3       1
      11       4       3      11       4       3      11       4       3      11
       4       3       5       4       9       8       4       3       5       4
       3       2       1       1      12      12      11      11       9       9
       8       8       7       4      12       2       4       9       2       7
       5      10       1       9       1       1       1       8       7       9
       6       2       5       2      11       4       3       3       1       1
      11       4       3       1      11       4       3      11       4       3
      11       4       3      11       4       3       5       4       9       8
       4       3       5       4       3       2       1       1      12      12
      11      11       9       9       8       8       7       4      12       2
       4       9       2       7       5      10       1       9       1       1
       1       8       7       9       6       2       5       2      11       4
       3       3       1       1      11       4       3       1      11       4
       3      11       4       3      11       4       3      11       4       3
       5       4       9       8       4       3       5       4       3       2
       1       1      12      12      11      11       9       9       8       8
       7       4      12       2       4       9       2       7       5      10
       1       9       1       1       1       8       7       9       6       2
       5       2      11       4       3       3       1       1      11       4
       3       1      11       4       3      11       4       3      11       4
       3      11       4       3       5       4       9       8       4       3
       5       4       3       2       1       1      12      12      11      11
       9       9       8       8       7       4      12       2       4       9
       2       7       5      10       1       9       1       1       1       8
       7       9       6       2       5       2      11       4       3       3
       1       1      11       4       3       1      11       4       3      11
       4       3      11       4       3      11       4       3       5       4
       9       8       4       3       5       4       3       2       1       1
      12      12      11      11       9       9       8       8       7       4
      12       2       4       9       2       7       5      10       1       9
       1       1       1       8       7       9       6       2       5       2
      11       4       3       3       1       1      11       4       3       1
      11       4       3      11       4       3      11       4       3      11
       4       3       5       4       9       8       4       3       5       4
       3       2       1       1      12      12      11      11       9       9
       8       8       7       4      12       2       4       9       2       7
       5      10       1       9       1       1       1       8       7       9
       6       2       5       2      11       4       3       3       1       1
      11       4       3       1      11       4       3      11       4       3
      11       4       3      11       4       3       5       4       9       8
       4       3       5       4       3       2       1       1      12      12
      11      11       9       9       8       8       7       4      12       2
       4       9       2       7       5      10       1       9       1       1
       1       8       7       9       6       2       5       2      11       4
       3       3       1       1      11       4       3       1      11       4
       3      11       4       3      11       4       3      11       4       3
       5       4       9       8       4       3       5       4       3       2
       1       1      12      12      11      11       9       9       8       8
       7       4      12       2       4       9       2       7       5      10
       1       9       1       1       1       8       7       9       6       2
       5       2      11       4       3       3       1       1      11       4
       3       1      11       4       3      11       4       3      11       4
       3      11       4       3       5       4       9       8       4       3
       5       4       3       2       1       1      12      12      11      11
       9       9       8       8       7       4      12       2       4       9
       2       7       5      10       1       9       1       1       1       8
       7       9       6       2       5       2      11       4       3       3
       1       1      11       4       3       1      11       4       3      11
       4       3      11       4       3      11       4       3       5       4
       9       8       4       3       5       4       3       2       1       1
      12      12      11      11       9       9       8       8       7       4
      12       2       4       9       2       7       5      10       1       9
       1       1       1       8       7       9       6       2       5       2
      11       4       3       3       1       1      11       4       3       1
      11       4       3      11       4       3      11       4       3      11
       4       3       5       4       9       8       4       3       5       4
       3       2       1       1      12      12      11      11       9       9
       8       8       7       4      12       2       4       9       2       7
       5      10       1       9       1       1       1       8       7       9
       6       2       5       2      11       4       3       3       1       1
      11       4       3       1      11       4       3      11       4       3
      11       4       3      11       4       3       5       4       9       8
       4       3       5       4       3       2       1       1      12      12
      11      11       9       9       8       8       7       4      12       2
       4       9       2       7       5      10       1       9       1       1
       1       8       7       9       6       2       5       2      11       4
       3       3       1       1      11       4       3       1      11       4
       3      11       4       3      11       4       3      11       4       3
       5       4       9       8       4       3       5       4       3       2
       1       1      12      12      11      11       9       9       8       8
       7       4      12       2       4       9       2       7       5      10
       1       9       1       1       1       8       7       9       6       2
       5       2      11       4       3       3       1       1      11       4
       3       1      11       4       3      11       4       3      11       4
       3      11       4       3       5       4       9       8       4       3
       5       4       3       2       1       1      12      12      11      11
       9       9       8       8       7       4      12       2       4       9
       2       7       5      10       1       9       1       1       1       8
       7       9       6       2       5       2      11       4       3       3
       1       1      11       4       3       1      11       4       3      11
       4       3      11       4       3      11       4       3       5       4
       9       8       4       3       5       4       3       2       1       1
      12      12      11      11       9       9       8       8       7       4
      12       2       4       9       2       7       5      10       1       9
       1       1       1       8       7       9       6       2       5       2
      11       4       3       3       1       1      11       4       3       1
      11       4       3      11       4       3      11       4       3      11
       4       3       5       4       9       8       4       3       5       4
       3       2       1       1      12      12      11      11       9       9
       8       8       7       4      12       2       4       9       2       7
       5      10       1       9       1       1       1       8       7       9
       6       2       5       2      11       4       3       3       1       1
      11       4       3       1      11       4       3      11       4       3
      11       4       3      11       4       3       5       4       9       8
       4       3       5       4       3       2       1       1      12      12
      11      11       9       9       8       8       7       4      12       2
       4       9       2       7       5      10       1       9       1       1
       1       8       7       9       6       2       5       2      11       4
       3       3       1       1      11       4       3       1      11       4
       3      11       4       3      11       4       3      11       4       3
       5       4       9       8       4       3       5       4       3       2
       1       1      12      12      11      11       9       9       8       8
       7       4      12       2       4       9       2       7       5      10
       1       9       1       1       1       8       7       9       6       2
       5       2      11       4       3       3       1       1      11       4
       3       1      11       4       3      11       4       3      11       4
       3      11       4       3       5       4       9       8       4       3
       5       4       3       2       1       1      12      12      11      11
       9       9       8       8       7       4      12       2       4       9
       2       7       5      10       1       9       1       1       1       8
       7       9       6       2       5       2      11       4       3       3
       1       1      11       4       3       1      11       4       3      11
       4       3      11       4       3      11       4       3       5       4
       9       8       4       3       5       4       3       2       1       1
      12      12      11      11       9       9       8       8       7       4
      12       2       4       9       2       7       5      10       1       9
       1       1       1       8       7       9       6       2       5       2
      11       4       3       3       1       1      11       4       3       1
      11       4       3      11       4       3      11       4       3      11
       4       3       5       4       9       8       4       3       5       4
       3       2       1       1      12      12      11      11       9       9
       8       8       7       4      12       2       4       9       2       7
       5      10       1       9       1       1       1       8       7       9
       6       2       5       2      11       4       3       3       1       1
      11       4       3       1      11       4       3      11       4       3
      11       4       3      11       4       3       5       4       9       8
       4       3       5       4       3       2       1       1      12      12
      11      11       9       9       8       8       7       4      12       2
       4       9       2       7       5      10       1       9       1       1
       1       8       7       9       6       2       5       2      11       4
       3       3       1       1      11       4       3       1      11       4
       3      11       4       3      11       4       3      11       4       3
       5       4       9       8       4       3       5       4       3       2
       1       1      12      12      11      11       9       9       8       8
       7       4      12       2       4       9       2       7       5      10
       1       9       1       1       1       8       7       9       6       2
       5       2      11       4       3       3       1       1      11       4
       3       1      11       4       3      11       4       3      11       4
       3      11       4       3       5       4       9       8       4       3
       5       4       3       2       1       1      12      12      11      11
       9       9       8       8       7       4      12       2       4       9
       2       7       5      10       1       9       1       1       1       8
       7       9       6       2       5       2      11       4       3       3
       1       1      11       4       3       1      11       4       3      11
       4       3      11       4       3      11       4       3       5       4
       9       8       4       3       5       4       3       2       1       1
      12      12      11      11       9       9       8       8       7       4
      12       2       4       9       2       7       5      10       1       9
       1       1       1       8       7       9       6       2       5       2
      11       4       3       3       1       1      11       4       3       1
      11       4       3      11       4       3      11       4       3      11
       4       3       5       4       9       8       4       3       5       4
       3       2       1       1      12      12      11      11       9       9
       8       8       7       4      12       2       4       9       2       7
       5      10       1       9       1       1       1       8       7       9
       6       2       5       2      11       4       3       3       1       1
      11       4       3       1      11       4       3      11       4       3
      11       4       3      11       4       3       5       4       9       8
       4       3       5       4       3       2       1       1      12      12
      11      11       9       9       8       8       7       4      12       2
       4       9       2       7       5      10       1       9       1       1
       1       8       7       9       6       2       5       2      11       4
       3       3       1       1      11       4       3       1      11       4
       3      11       4       3      11       4       3      11       4       3
       5       4       9       8       4       3       5       4       3       2
       1       1      12      12      11      11       9       9       8       8
       7       4      12       2       4       9       2       7       5      10
       1       9       1       1       1       8       7       9       6       2
       5       2      11       4       3       3       1       1      11       4
       3       1      11       4       3      11       4       3      11       4
       3      11       4       3       5       4       9       8       4       3
       5       4       3       2       1       1      12      12      11      11
       9       9       8       8       7       4      12       2       4       9
       2       7       5      10       1       9       1       1       1       8
       7       9       6       2       5       2      11       4       3       3
       1       1      11       4       3       1      11       4       3      11
       4       3      11       4       3      11       4       3       5       4
       9       8       4       3       5       4       3       2       1       1
      12      12      11      11       9       9       8       8       7       4
      12       2       4       9       2       7       5      10       1       9
       1       1       1       8       7       9       6       2       5       2
      11       4       3       3       1       1      11       4       3       1
      11       4       3      11       4       3      11       4       3      11
       4       3       5       4       9       8       4       3       5       4
       3       2       1       1      12      12      11      11       9       9
       8       8       7       4      12       2       4       9       2       7
       5      10       1       9       1       1       1       8       7       9
       6       2       5       2      11       4       3       3       1       1
      11       4       3       1      11       4       3      11       4       3
      11       4       3      11       4       3       5       4       9       8
       4       3       5       4       3       2       1       1      12      12
      11      11       9       9       8       8       7       4      12       2
       4       9       2       7       5      10       1       9       1       1
       1       8       7       9       6       2       5       2      11       4
       3       3       1       1      11       4       3       1      11       4
       3      11       4       3      11       4       3      11       4       3
       5       4       9       8       4       3       5       4       3       2
       1       1      12      12      11      11       9       9       8       8
       7       4      12       2       4       9       2       7       5      10
       1       9       1       1       1       8       7       9       6       2
       5       2      11       4       3       3       1       1      11       4
       3       1      11       4       3      11       4       3      11       4
       3      11       4       3       5       4       9       8       4       3
       5       4       3       2       1       1      12      12      11      11
       9       9       8       8       7       4      12       2       4       9
       2       7       5      10       1       9       1       1       1       8
       7       9       6       2       5       2      11       4       3       3
       1       1      11       4       3       1      11       4       3      11
       4       3      11       4       3      11       4       3       5       4
       9       8       4       3       5       4       3       2       1       1
      12      12      11      11       9       9       8       8       7       4
      12       2       4       9       2       7       5      10       1       9
       1       1       1       8       7       9       6       2       5       2
      11       4       3       3       1       1      11       4       3       1
      11       4       3      11       4       3      11       4       3      11
       4       3       5       4       9       8       4       3       5       4
       3       2       1       1      12      12      11      11       9       9
       8       8       7       4      12       2       4       9       2       7
       5      10       1       9       1       1       1       8       7       9
       6       2       5       2      11       4       3       3       1       1
      11       4       3       1      11       4       3      11       4       3
      11       4       3      11       4       3       5       4       9       8
       4       3       5       4       3       2       1       1      12      12
      11      11       9       9       8       8       7       4      12       2
       4       9       2       7       5      10       1       9       1       1
       1       8       7       9       6       2       5       2      11       4
       3       3       1       1      11       4       3       1      11       4
       3      11       4       3      11       4       3      11       4       3
       5       4       9       8       4       3       5       4       3       2
       1       1      12      12      11      11       9       9       8       8
       7       4      12       2       4       9       2       7       5      10
       1       9       1       1       1       8       7       9       6       2
       5       2      11       4       3       3       1       1      11       4
       3       1      11       4       3      11       4       3      11       4
       3      11       4       3       5       4       9       8       4       3
       5       4       3       2       1       1      12      12      11      11
       9       9       8       8       7       4      12       2       4       9
       2       7       5      10       1       9       1       1       1       8
       7       9       6       2       5       2      11       4       3       3
       1       1      11       4       3       1      11       4       3      11
       4       3      11       4       3      11       4       3       5       4
       9       8       4       3       5       4       3       2       1       1
      12      12      11      11       9       9       8       8       7       4
      12       2       4       9       2       7       5      10       1       9
       1       1       1       8       7       9       6       2       5       2
      11       4       3       3       1       1      11       4       3       1
      11       4       3      11       4       3      11       4       3      11
       4       3       5       4       9       8       4       3       5       4
       3       2       1       1      12      12      11      11       9       9
       8       8       7       4      12       2       4       9       2       7
       5      10       1       9       1       1       1       8       7       9
       6       2       5       2      11       4       3       3       1       1
      11       4       3       1      11       4       3      11       4       3
      11       4       3      11       4       3       5       4       9       8
       4       3       5       4       3       2       1       1      12      12
      11      11       9       9       8       8       7       4      12       2
       4       9       2       7       5      10       1       9       1       1
       1       8       7       9       6       2       5       2      11       4
       3       3       1       1      11       4       3       1      11       4
       3      11       4       3      11       4       3      11       4       3
       5       4       9       8       4       3       5       4       3       2
       1       1      12      12      11      11       9       9       8       8
       7       4      12       2       4       9       2       7       5      10
       1       9       1       1       1       8       7       9       6       2
       5       2      11       4       3       3       1       1      11       4
       3       1      11       4       3      11       4       3      11       4
       3      11       4       3       5       4       9       8       4       3
       5       4       3       2       1       1      12      12      11      11
       9       9       8       8       7       4      12       2       4       9
       2       7       5      10       1       9       1       1       1       8
       7       9       6       2       5       2      11       4       3       3
       1       1      11       4       3       1      11       4       3      11
       4       3      11       4       3      11       4       3       5       4
       9       8       4       3       5       4       3       2       1       1
      12      12      11      11       9       9       8       8       7       4
      12       2       4       9       2       7       5      10       1       9
       1       1       1       8       7       9       6       2       5       2
      11       4       3       3       1       1      11       4       3       1
      11       4       3      11       4       3      11       4       3      11
       4       3       5       4       9       8       4       3       5       4
       3       2       1       1      12      12      11      11       9       9
       8       8       7       4      12       2       4       9       2       7
       5      10       1       9       1       1       1       8       7       9
       6       2       5       2      11       4       3       3       1       1
      11       4       3       1      11       4       3      11       4       3
      11       4       3      11       4       3       5       4       9       8
       4       3       5       4       3       2       1       1      12      12
      11      11       9       9       8       8       7       4      12       2
       4       9       2       7       5      10       1       9       1       1
       1       8       7       9       6       2       5       2      11       4
       3       3       1       1      11       4       3       1      11       4
       3      11       4       3      11       4       3      11       4       3
       5       4       9       8       4       3       5       4       3       2
       1       1      12      12      11      11       9       9       8       8
       7       4      12       2       4       9       2       7       5      10
       1       9       1       1       1       8       7       9       6       2
       5       2      11       4       3       3       1       1      11       4
       3       1      11       4       3      11       4       3      11       4
       3      11       4       3       5       4       9       8       4       3
       5       4       3       2       1       1      12      12      11      11
       9       9       8       8       7       4      12       2       4       9
       2       7       5      10       1       9       1       1       1       8
       7       9       6       2       5       2      11       4       3       3
       1       1      11       4       3       1      11       4       3      11
       4       3      11       4       3      11       4       3       5       4
       9       8       4       3       5       4       3       2       1       1
      12      12      11      11       9       9       8       8       7       4
      12       2       4       9       2       7       5      10       1       9
       1       1       1       8       7       9       6       2       5       2
      11       4       3       3       1       1      11       4       3       1
      11       4       3      11       4       3      11       4       3      11
       4       3       5       4       9       8       4       3       5       4
       3       2       1       1      12      12      11      11       9       9
       8       8       7       4      12       2       4       9       2       7
       5      10       1       9       1       1       1       8       7       9
       6       2       5       2      11       4       3       3       1       1
      11       4       3       1      11       4       3      11       4       3
      11       4       3      11       4       3       5       4       9       8
       4       3       5       4       3       2       1       1      12      12
      11      11       9       9       8       8       7       4      12       2
       4       9       2       7       5      10       1       9       1       1
       1       8       7       9       6       2       5       2      11       4
       3       3       1       1      11       4       3       1      11       4
       3      11       4       3      11       4       3      11       4       3
       5       4       9       8       4       3       5       4       3       2
       1       1      12      12      11      11       9       9       8       8
       7       4      12       2       4       9       2       7       5      10
       1       9       1       1       1       8       7       9       6       2
       5       2      11       4       3       3       1       1      11       4
       3       1      11       4       3      11       4       3      11       4
       3      11       4       3       5       4       9       8       4       3
       5       4       3       2       1       1      12      12      11      11
       9       9       8       8       7       4      12       2       4       9
       2       7       5      10       1       9       1       1       1       8
       7       9       6       2       5       2      11       4       3       3
       1       1      11       4       3       1      11       4       3      11
       4       3      11       4       3      11       4       3       5       4
       9       8       4       3       5       4       3       2       1       1
      12      12      11      11       9       9       8       8       7       4
      12       2       4       9       2       7       5      10       1       9
       1       1       1       8       7       9       6       2       5       2
      11       4       3       3       1       1      11       4       3       1
      11       4       3      11       4       3      11       4       3      11
       4       3       5       4       9       8       4       3       5       4
       3       2       1       1      12      12      11      11       9       9
       8       8       7       4      12       2       4       9       2       7
       5      10       1       9       1       1       1       8       7       9
       6       2       5       2      11       4       3       3       1       1
      11       4       3       1      11       4       3      11       4       3
      11       4       3      11       4       3       5       4       9       8
       4       3       5       4       3       2       1       1      12      12
      11      11       9       9       8       8       7       4      12       2
       4       9       2       7       5      10       1       9       1       1
       1       8       7       9       6       2       5       2      11       4
       3       3       1       1      11       4       3       1      11       4
       3      11       4       3      11       4       3      11       4       3
       5       4       9       8       4       3       5       4       3       2
       1       1      12      12      11      11       9       9       8       8
       7       4      12       2       4       9       2       7       5      10
       1       9       1       1       1       8       7       9       6       2
       5       2      11       4       3       3       1       1      11       4
       3       1      11       4       3      11       4       3      11       4
       3      11       4       3       5       4       9       8       4       3
       5       4       3       2       1       1      12      12      11      11
       9       9       8       8       7       4      12       2       4       9
       2       7       5      10       1       9       1       1       1       8
       7       9       6       2       5       2      11       4       3       3
       1       1      11       4       3       1      11       4       3      11
       4       3      11       4       3      11       4       3       5       4
       9       8       4       3       5       4       3       2       1       1
      12      12      11      11       9       9       8       8       7       4
      12       2       4       9       2       7       5      10       1       9
       1       1       1       8       7       9       6       2       5       2
      11       4       3       3       1       1      11       4       3       1
      11       4       3      11       4       3      11       4       3      11
       4       3       5       4       9       8       4       3       5       4
       3       2       1       1      12      12      11      11       9       9
       8       8       7       4      12       2       4       9       2       7
       5      10       1       9       1       1       1       8       7       9
       6       2       5       2      11       4       3       3       1       1
      11       4       3       1      11       4       3      11       4       3
      11       4       3      11       4       3       5       4       9       8
       4       3       5       4       3       2       1       1      12      12
      11      11       9       9       8       8       7       4      12       2
       4       9       2       7       5      10       1       9       1       1
       1       8       7       9       6       2       5       2      11       4
       3       3       1       1      11       4       3       1      11       4
       3      11       4       3      11       4       3      11       4       3
       5       4       9       8       4       3       5       4       3       2
       1       1      12      12      11      11       9       9       8       8
       7       4      12       2       4       9       2       7       5      10
       1       9       1       1       1       8       7       9       6       2
       5       2      11       4       3       3       1       1      11       4
       3       1      11       4       3      11       4       3      11       4
       3      11       4       3       5       4       9       8       4       3
       5       4       3       2       1       1      12      12      11      11
       9       9       8       8       7       4      12       2       4       9
       2       7       5      10       1       9       1       1       1       8
       7       9       6       2       5       2      11       4       3       3
       1       1      11       4       3       1      11       4       3      11
       4       3      11       4       3      11       4       3       5       4
       9       8       4       3       5       4       3       2       1       1
      12      12      11      11       9       9       8       8       7       4
      12       2       4       9       2       7       5      10       1       9
       1       1       1       8       7       9       6       2       5       2
      11       4       3       3       1       1      11       4       3       1
      11       4       3      11       4       3      11       4       3      11
       4       3       5       4       9       8       4       3       5       4
       3       2       1       1      12      12      11      11       9       9
       8       8       7       4      12       2       4       9       2       7
       5      10       1       9       1       1       1       8       7       9
       6       2       5       2      11       4       3       3       1       1
      11       4       3       1      11       4       3      11       4       3
      11       4       3      11       4       3       5       4       9       8
       4       3       5       4       3       2       1       1      12      12
      11      11       9       9       8       8       7       4      12       2
       4       9       2       7       5      10       1       9       1       1
       1       8       7       9       6       2       5       2      11       4
       3       3       1       1      11       4       3       1      11       4
       3      11       4       3      11       4       3      11       4       3
       5       4       9       8       4       3       5       4       3       2
       1       1      12      12      11      11       9       9       8       8
       7       4      12       2       4       9       2       7       5      10
       1       9       1       1       1       8       7       9       6       2
       5       2      11       4       3       3       1       1      11       4
       3       1      11       4       3      11       4       3      11       4
       3      11       4       3       5       4       9       8       4       3
       5       4       3       2       1       1      12      12      11      11
       9       9       8       8       7       4      12       2       4       9
       2       7       5      10       1       9       1       1       1       8
       7       9       6       2       5       2      11       4       3       3
       1       1      11       4       3       1      11       4       3      11
       4       3      11       4       3      11       4       3       5       4
       9       8       4       3       5       4       3       2       1       1
      12      12      11      11       9       9       8       8       7       4
      12       2       4       9       2       7       5      10       1       9
       1       1       1       8       7       9       6       2       5       2
      11       4       3       3       1       1      11       4       3       1
      11       4       3      11       4       3      11       4       3      11
       4       3       5       4       9       8       4       3       5       4
       3       2       1       1      12      12      11      11       9       9
       8       8       7       4      12       2       4       9       2       7
       5      10       1       9       1       1       1       8       7       9
       6       2       5       2      11       4       3       3       1       1
      11       4       3       1      11       4       3      11       4       3
      11       4       3      11       4       3       5       4       9       8
       4       3       5       4       3       2       1       1      12      12
      11      11       9       9       8       8       7       4      12       2
       4       9       2       7       5      10       1       9       1       1
       1       8       7       9       6       2       5       2      11       4
       3       3       1       1      11       4       3       1      11       4
       3      11       4       3      11       4       3      11       4       3
       5       4       9       8       4       3       5       4       3       2
       1       1      12      12      11      11       9       9       8       8
       7       4      12       2       4       9       2       7       5      10
       1       9       1       1       1       8       7       9       6       2
       5       2      11       4       3       3       1       1      11       4
       3       1      11       4       3      11       4       3      11       4
       3      11       4       3       5       4       9       8       4       3
       5       4       3       2       1       1      12      12      11      11
       9       9       8       8       7       4      12       2       4       9
       2       7       5      10       1       9       1       1       1       8
       7       9       6       2       5       2      11       4       3       3
       1       1      11       4       3       1      11       4       3      11
       4       3      11       4       3      11       4       3       5       4
       9       8       4       3       5       4       3       2       1       1
      12      12      11      11       9       9       8       8       7       4
      12       2       4       9       2       7       5      10       1       9
       1       1       1       8       7       9       6       2       5       2
      11       4       3       3       1       1      11       4       3       1
      11       4       3      11       4       3      11       4       3      11
       4       3       5       4       9       8       4       3       5       4
       3       2       1       1      12      12      11      11       9       9
       8       8       7       4      12       2       4       9       2       7
       5      10       1       9       1       1       1       8       7       9
       6       2       5       2      11       4       3       3       1       1
      11       4       3       1      11       4       3      11       4       3
      11       4       3      11       4       3       5       4       9       8
       4       3       5       4       3       2       1       1      12      12
      11      11       9       9       8       8       7       4      12       2
       4       9       2       7       5      10       1       9       1       1
       1       8       7       9       6       2       5       2      11       4
       3       3       1       1      11       4       3       1      11       4
       3      11       4       3      11       4       3      11       4       3
       5       4       9       8       4       3       5       4       3       2
       1       1      12      12      11      11       9       9       8       8
       7       4      12       2       4       9       2       7       5      10
       1       9       1       1       1       8       7       9       6       2
       5       2      11       4       3       3       1       1      11       4
       3       1      11       4       3      11       4       3      11       4
       3      11       4       3       5       4       9       8       4       3
       5       4       3       2       1       1      12      12      11      11
       9       9       8       8       7       4      12       2       4       9
       2       7       5      10       1       9       1       1       1       8
       7       9       6       2       5       2      11       4       3       3
       1       1      11       4       3       1      11       4       3      11
       4       3      11       4       3      11       4       3       5       4
       9       8       4       3       5       4       3       2       1       1
      12      12      11      11       9       9       8       8       7       4
      12       2       4       9       2       7       5      10       1       9
       1       1       1       8       7       9       6       2       5       2
      11       4       3       3       1       1      11       4       3       1
      11       4       3      11       4       3      11       4       3      11
       4       3       5       4       9       8       4       3       5       4
       3       2       1       1      12      12      11      11       9       9
       8       8       7       4      12       2       4       9       2       7
       5      10       1       9       1       1       1       8       7       9
       6       2       5       2      11       4       3       3       1       1
      11       4       3       1      11       4       3      11       4       3
      11       4       3      11       4       3       5       4       9       8
       4       3       5       4       3       2       1       1      12      12
      11      11       9       9       8       8       7       4      12       2
       4       9       2       7       5      10       1       9       1       1
       1       8       7       9       6       2       5       2      11       4
       3       3       1       1      11       4       3       1      11       4
       3      11       4       3      11       4       3      11       4       3
       5       4       9       8       4       3       5       4       3       2
       1       1      12      12      11      11       9       9       8       8
       7       4      12       2       4       9       2       7       5      10
       1       9       1       1       1       8       7       9       6       2
       5       2      11       4       3       3       1       1      11       4
       3       1      11       4       3      11       4       3      11       4
       3      11       4       3       5       4       9       8       4       3
       5       4       3       2       1       1      12      12      11      11
       9       9       8       8       7       4      12       2       4       9
       2       7       5      10       1       9       1       1       1       8
       7       9       6       2       5       2      11       4       3       3
       1       1      11       4       3       1      11       4       3      11
       4       3      11       4       3      11       4       3       5       4
       9       8       4       3       5       4       3       2       1       1
      12      12      11      11       9       9       8       8       7       4
      12       2       4       9       2       7       5      10       1       9
       1       1       1       8       7       9       6       2       5       2
      11       4       3       3       1       1      11       4       3       1
      11       4       3      11       4       3      11       4       3      11
       4       3       5       4       9       8       4       3       5       4
       3       2       1       1      12      12      11      11       9       9
       8       8       7       4      12       2       4       9       2       7
       5      10       1       9       1       1       1       8       7       9
       6       2       5       2      11       4       3       3       1       1
      11       4       3       1      11       4       3      11       4       3
      11       4       3      11       4       3       5       4       9       8
       4       3       5       4       3       2       1       1      12      12
      11      11       9       9       8       8       7       4      12       2
       4       9       2       7       5      10       1       9       1       1
       1       8       7       9       6       2       5       2      11       4
       3       3       1       1      11       4       3       1      11       4
       3      11       4       3      11       4       3      11       4       3
       5       4       9       8       4       3       5       4       3       2
       1       1      12      12      11      11       9       9       8       8
       7       4      12       2       4       9       2       7       5      10
       1       9       1       1       1       8       7       9       6       2
       5       2      11       4       3       3       1       1      11       4
       3       1      11       4       3      11       4       3      11       4
       3      11       4       3       5       4       9       8       4       3
       5       4       3       2       1       1      12      12      11      11
       9       9       8       8       7       4      12       2       4       9
       2       7       5      10       1       9       1       1       1       8
       7       9       6       2       5       2      11       4       3       3
       1       1      11       4       3       1      11       4       3      11
       4       3      11       4       3      11       4       3       5       4
       9       8       4       3       5       4       3       2       1       1
      12      12      11      11       9       9       8       8       7       4
      12       2       4       9       2       7       5      10       1       9
       1       1       1       8       7       9       6       2       5       2
      11       4       3       3       1       1      11       4       3       1
      11       4       3      11       4       3      11       4       3      11
       4       3       5       4       9       8       4       3       5       4
       3       2       1       1      12      12      11      11       9       9
       8       8       7       4      12       2       4       9       2       7
       5      10       1       9       1       1       1       8       7       9
       6       2       5       2      11       4       3       3       1       1
      11       4       3       1      11       4       3      11       4       3
      11       4       3      11       4       3       5       4       9       8
       4       3       5       4       3       2       1       1      12      12
      11      11       9       9       8       8       7       4      12       2
       4       9       2       7       5      10       1       9       1       1
       1       8       7       9       6       2       5       2      11       4
       3       3       1       1      11       4       3       1      11       4
       3      11       4       3      11       4       3      11       4       3
       5       4       9       8       4       3       5       4       3       2
       1       1      12      12      11      11       9       9       8       8
       7       4      12       2       4       9       2       7       5      10
       1       9       1       1       1       8       7       9       6       2
       5       2      11       4       3       3       1       1      11       4
       3       1      11       4       3      11       4       3      11       4
       3      11       4       3       5       4       9       8       4       3
       5       4       3       2       1       1      12      12      11      11
       9       9       8       8       7       4      12       2       4       9
       2       7       5      10       1       9       1       1       1       8
       7       9       6       2       5       2      11       4       3       3
       1       1      11       4       3       1      11       4       3      11
       4       3      11       4       3      11       4       3       5       4
       9       8       4       3       5       4       3       2       1       1
      12      12      11      11       9       9       8       8       7       4
      12       2       4       9       2       7       5      10       1       9
       1       1       1       8       7       9       6       2       5       2
      11       4       3       3       1       1      11       4       3       1
      11       4       3      11       4       3      11       4       3      11
       4       3       5       4       9       8       4       3       5       4
       3       2       1       1      12      12      11      11       9       9
       8       8       7       4      12       2       4       9       2       7
       5      10       1       9       1       1       1       8       7       9
       6       2       5       2      11       4       3       3       1       1
      11       4       3       1      11       4       3      11       4       3
      11       4       3      11       4       3       5       4       9       8
       4       3       5       4       3       2       1       1      12      12
      11      11       9       9       8       8       7       4      12       2
       4       9       2       7       5      10       1       9       1       1
       1       8       7       9       6       2       5       2      11       4
       3       3       1       1      11       4       3       1      11       4
       3      11       4       3      11       4       3      11       4       3
       5       4       9       8       4       3       5       4       3       2
       1       1      12      12      11      11       9       9       8       8
       7       4      12       2       4       9       2       7       5      10
       1       9       1       1       1       8       7       9       6       2
       5       2      11       4       3       3       1       1      11       4
       3       1      11       4       3      11       4       3      11       4
       3      11       4       3       5       4       9       8       4       3
       5       4       3       2       1       1      12      12      11      11
       9       9       8       8       7       4      12       2       4       9
       2       7       5      10       1       9       1       1       1       8
       7       9       6       2       5       2      11       4       3       3
       1       1      11       4       3       1      11       4       3      11
       4       3      11       4       3      11       4       3       5       4
       9       8       4       3       5       4       3       2       1       1
      12      12      11      11       9       9       8       8       7       4
      12       2       4       9       2       7       5      10       1       9
       1       1       1       8       7       9       6       2       5       2
      11       4       3       3       1       1      11       4       3       1
      11       4       3      11       4       3      11       4       3      11
       4       3       5       4       9       8       4       3       5       4
       3       2       1       1      12      12      11      11       9       9
       8       8       7       4      12       2       4       9       2       7
       5      10       1       9       1       1       1       8       7       9
       6       2       5       2      11       4       3       3       1       1
      11       4       3       1      11       4       3      11       4       3
      11       4       3      11       4       3       5       4       9       8
       4       3       5       4       3       2       1       1      12      12
      11      11       9       9       8       8       7       4      12       2
       4       9       2       7       5      10       1       9       1       1
       1       8       7       9       6       2       5       2      11       4
       3       3       1       1      11       4       3       1      11       4
       3      11       4       3      11       4       3      11       4       3
       5       4       9       8       4       3       5       4       3       2
       1       1      12      12      11      11       9       9       8       8
       7       4      12       2       4       9       2       7       5      10
       1       9       1       1       1       8       7       9       6       2
       5       2      11       4       3       3       1       1      11       4
       3       1      11       4       3      11       4       3      11       4
       3      11       4       3       5       4       9       8       4       3
       5       4       3       2       1       1      12      12      11      11
       9       9       8       8       7       4      12       2       4       9
       2       7       5      10       1       9       1       1       1       8
       7       9       6       2       5       2      11       4       3       3
       1       1      11       4       3       1      11       4       3      11
       4       3      11       4       3      11       4       3       5       4
       9       8       4       3       5       4       3       2       1       1
      12      12      11      11       9       9       8       8       7       4
      12       2       4       9       2       7       5      10       1       9
       1       1       1       8       7       9       6       2       5       2
      11       4       3       3       1       1      11       4       3       1
      11       4       3      11       4       3      11       4       3      11
       4       3       5       4       9       8       4       3       5       4
       3       2       1       1      12      12      11      11       9       9
       8       8       7       4      12       2       4       9       2       7
       5      10       1       9       1       1       1       8       7       9
       6       2       5       2      11       4       3       3       1       1
      11       4       3       1      11       4       3      11       4       3
      11       4       3      11       4       3       5       4       9       8
       4       3       5       4       3       2       1       1      12      12
      11      11       9       9       8       8       7       4      12       2
       4       9       2       7       5      10       1       9       1       1
       1       8       7       9       6       2       5       2      11       4
       3       3       1       1      11       4       3       1      11       4
       3      11       4       3      11       4       3      11       4       3
       5       4       9       8       4       3       5       4       3       2
       1       1      12      12      11      11       9       9       8       8
       7       4      12       2       4       9       2       7       5      10
       1       9       1       1       1       8       7       9       6       2
       5       2      11       4       3       3       1       1      11       4
       3       1      11       4       3      11       4       3      11       4
       3      11       4       3       5       4       9       8       4       3
       5       4       3       2       1       1      12      12      11      11
       9       9       8       8       7       4      12       2       4       9
       2       7       5      10       1       9       1       1       1       8
       7       9       6       2       5       2      11       4       3       3
       1       1      11       4       3       1      11       4       3      11
       4       3      11       4       3      11       4       3       5       4
       9       8       4       3       5       4       3       2       1       1
      12      12      11      11       9       9       8       8       7       4
      12       2       4       9       2       7       5      10       1       9
       1       1       1       8       7       9       6       2       5       2
      11       4       3       3       1       1      11       4       3       1
      11       4       3      11       4       3      11       4       3      11
       4       3       5       4       9       8       4       3       5       4
       3       2       1       1      12      12      11      11       9       9
       8       8       7       4      12       2       4       9       2       7
       5      10       1       9       1       1       1       8       7       9
       6       2       5       2      11       4       3       3       1       1
      11       4       3       1      11       4       3      11       4       3
      11       4       3      11       4       3       5       4       9       8
       4       3       5       4       3       2       1       1      12      12
      11      11       9       9       8       8       7       4      12       2
       4       9       2       7       5      10       1       9       1       1
       1       8       7       9       6       2       5       2      11       4
       3       3       1       1      11       4       3       1      11       4
       3      11       4       3      11       4       3      11       4       3
       5       4       9       8       4       3       5       4       3       2
       1       1      12      12      11      11       9       9       8       8
       7       4      12       2       4       9       2       7       5      10
       1       9       1       1       1       8       7       9       6       2
       5       2      11       4       3       3       1       1      11       4
       3       1      11       4       3      11       4       3      11       4
       3      11       4       3       5       4       9       8       4       3
       5       4       3       2       1       1      12      12      11      11
       9       9       8       8       7       4      12       2       4       9
       2       7       5      10       1       9       1       1       1       8
       7       9       6       2       5       2      11       4       3       3
       1       1      11       4       3       1      11       4       3      11
       4       3      11       4       3      11       4       3       5       4
       9       8       4       3       5       4       3       2       1       1
      12      12      11      11       9       9       8       8       7       4
      12       2       4       9       2       7       5      10       1       9
       1       1       1       8       7       9       6       2       5       2
      11       4       3       3       1       1      11       4       3       1
      11       4       3      11       4       3      11       4       3      11
       4       3       5       4       9       8       4       3       5       4
       3       2       1       1      12      12      11      11       9       9
       8       8       7       4      12       2       4       9       2       7
       5      10       1       9       1       1       1       8       7       9
       6       2       5       2      11       4       3       3       1       1
      11       4       3       1      11       4       3      11       4       3
      11       4       3      11       4       3       5       4       9       8
       4       3       5       4       3       2       1       1      12      12
      11      11       9       9       8       8       7       4      12       2
       4       9       2       7       5      10       1       9       1       1
       1       8       7       9       6       2       5       2      11       4
       3       3       1       1      11       4       3       1      11       4
       3      11       4       3      11       4       3      11       4       3
       5       4       9       8       4       3       5       4       3       2
       1       1      12      12      11      11       9       9       8       8
       7       4      12       2       4       9       2       7       5      10
       1       9       1       1       1       8       7       9       6       2
       5       2      11       4       3       3       1       1      11       4
       3       1      11       4       3      11       4       3      11       4
       3      11       4       3       5       4       9       8       4       3
       5       4       3       2       1       1      12      12      11      11
       9       9       8       8       7       4      12       2       4       9
       2       7       5      10       1       9       1       1       1       8
       7       9       6       2       5       2      11       4       3       3
       1       1      11       4       3       1      11       4       3      11
       4       3      11       4       3      11       4       3       5       4
       9       8       4       3       5       4       3       2       1       1
      12      12      11      11       9       9       8       8       7       4
      12       2       4       9       2       7       5      10       1       9
       1       1       1       8       7       9       6       2       5       2
      11       4       3       3       1       1      11       4       3       1
      11       4       3      11       4       3      11       4       3      11
       4       3       5       4       9       8       4       3       5       4
       3       2       1       1      12      12      11      11       9       9
       8       8       7       4      12       2       4       9       2       7
       5      10       1       9       1       1       1       8       7       9
       6       2       5       2      11       4       3       3       1       1
      11       4       3       1      11       4       3      11       4       3
      11       4       3      11       4       3       5       4       9       8
       4       3       5       4       3       2       1       1      12      12
      11      11       9       9       8       8       7       4      12       2
       4       9       2       7       5      10       1       9       1       1
       1       8       7       9       6       2       5       2      11       4
       3       3       1       1      11       4       3       1      11       4
       3      11       4       3      11       4       3      11       4       3
       5       4       9       8       4       3       5       4       3       2
       1       1      12      12      11      11       9       9       8       8
       7       4      12       2       4       9       2       7       5      10
       1       9       1       1       1       8       7       9       6       2
       5       2      11       4       3       3       1       1      11       4
       3       1      11       4       3      11       4       3      11       4
       3      11       4       3       5       4       9       8       4       3
       5       4       3       2       1       1      12      12      11      11
       9       9       8       8       7       4      12       2       4       9
       2       7       5      10       1       9       1       1       1       8
       7       9       6       2       5       2      11       4       3       3
       1       1      11       4       3       1      11       4       3      11
       4       3      11       4       3      11       4       3       5       4
       9       8       4       3       5       4       3       2       1       1
      12      12      11      11       9       9       8       8       7       4
      12       2       4       9       2       7       5      10       1       9
       1       1       1       8       7       9       6       2       5       2
      11       4       3       3       1       1      11       4       3       1
      11       4       3      11       4       3      11       4       3      11
       4       3       5       4       9       8       4       3       5       4
       3       2       1       1      12      12      11      11       9       9
       8       8       7       4      12       2       4       9       2       7
       5      10       1       9       1       1       1       8       7       9
       6       2       5       2      11       4       3       3       1       1
      11       4       3       1      11       4       3      11       4       3
      11       4       3      11       4       3       5       4       9       8
       4       3       5       4       3       2       1       1      12      12
      11      11       9       9       8       8       7       4      12       2
       4       9       2       7       5      10       1       9       1       1
       1       8       7       9       6       2       5       2      11       4
       3       3       1       1      11       4       3       1      11       4
       3      11       4       3      11       4       3      11       4       3
       5       4       9       8       4       3       5       4       3       2
       1       1      12      12      11      11       9       9       8       8
       7       4      12       2       4       9       2       7       5      10
       1       9       1       1       1       8       7       9       6       2
       5       2      11       4       3       3       1       1      11       4
       3       1      11       4       3      11       4       3      11       4
       3      11       4       3       5       4       9       8       4       3
       5       4       3       2       1       1      12      12      11      11
       9       9       8       8       7       4      12       2       4       9
       2       7       5      10       1       9       1       1       1       8
       7       9       6       2       5       2      11       4       3       3
       1       1      11       4       3       1      11       4       3      11
       4       3      11       4       3      11       4       3       5       4
       9       8       4       3       5       4       3       2       1       1
      12      12      11      11       9       9       8       8       7       4
      12       2       4       9       2       7       5      10       1       9
       1       1       1       8       7       9       6       2       5       2
      11       4       3       3       1       1      11       4       3       1
      11       4       3      11       4       3      11       4       3      11
       4       3       5       4       9       8       4       3       5       4
       3       2       1       1      12      12      11      11       9       9
       8       8       7       4      12       2       4       9       2       7
       5      10       1       9       1       1       1       8       7       9
       6       2       5       2      11       4       3       3       1       1
      11       4       3       1      11       4       3      11       4       3
      11       4       3      11       4       3       5       4       9       8
       4       3       5       4       3       2       1       1      12      12
      11      11       9       9       8       8       7       4      12       2
       4       9       2       7       5      10       1       9       1       1
       1       8       7       9       6       2       5       2      11       4
       3       3       1       1      11       4       3       1      11       4
       3      11       4       3      11       4       3      11       4       3
       5       4       9       8       4       3       5       4       3       2
       1       1
%FLAG NONBONDED_PARM_INDEX                                                      
%FORMAT(10I8)                                                                   
       1       2       4       7      11       2       3       5       8      12
       4       5       6       9      13       7       8       9      10      14
      11      12      13      14      15
%FLAG RESIDUE_LABEL                                                             
%FORMAT(20a4)                                                                   
BTB BTB BTB BTB BTB BTB BTB BTB BTB BTB BTB BTB BTB BTB BTB BTB BTB BTB BTB BTB 
BTB BTB BTB BTB BTB BTB BTB BTB BTB BTB BTB BTB BTB BTB BTB BTB BTB BTB BTB BTB 
BTB BTB BTB BTB BTB BTB BTB BTB BTB BTB BTB BTB BTB BTB BTB BTB BTB BTB BTB BTB 
BTB BTB BTB BTB BTB BTB BTB BTB BTB BTB BTB BTB BTB BTB BTB BTB BTB BTB BTB BTB 
BTB BTB BTB BTB BTB BTB BTB BTB BTB BTB BTB BTB BTB BTB BTB BTB BTB BTB BTB BTB 
BTB BTB BTB BTB BTB BTB BTB BTB BTB BTB BTB BTB BTB BTB BTB BTB BTB BTB BTB BTB 
BTB BTB BTB BTB BTB BTB BTB BTB BTB BTB BTB BTB BTB BTB BTB BTB BTB BTB BTB BTB 
BTB BTB BTB BTB BTB BTB BTB BTB BTB BTB BTB BTB BTB BTB BTB BTB BTB BTB BTB BTB 
BTB BTB BTB BTB BTB BTB BTB BTB BTB BTB BTB BTB BTB BTB BTB BTB BTB BTB BTB BTB 
BTB BTB BTB BTB BTB BTB BTB BTB BTB BTB BTB BTB BTB BTB BTB BTB BTB BTB BTB BTB 
BTB BTB BTB BTB BTB BTB BTB BTB BTB BTB BTB BTB BTB BTB BTB BTB BTB BTB BTB BTB 
BTB BTB BTB BTB BTB BTB BTB BTB BTB BTB BTB BTB BTB BTB BTB BTB BTB BTB BTB BTB 
BTB BTB BTB BTB BTB BTB BTB BTB BTB BTB BTB BTB BTB BTB BTB BTB BTB BTB BTB BTB 
BTB BTB BTB BTB BTB BTB BTB BTB BTB BTB BTB BTB BTB BTB BTB BTB BTB BTB BTB BTB 
BTB BTB BTB BTB BTB BTB BTB BTB 
%FLAG RESIDUE_POINTER                                                           
%FORMAT(10I8)                                                                   
       1      65     129     193     257     321     385     449     513     577
     641     705     769     833     897     961    1025    1089    1153    1217
    1281    1345    1409    1473    1537    1601    1665    1729    1793    1857
    1921    1985    2049    2113    2177    2241    2305    2369    2433    2497
    2561    2625    2689    2753    2817    2881    2945    3009    3073    3137
    3201    3265    3329    3393    3457    3521    3585    3649    3713    3777
    3841    3905    3969    4033    4097    4161    4225    4289    4353    4417
    4481    4545    4609    4673    4737    4801    4865    4929    4993    5057
    5121    5185    5249    5313    5377    5441    5505    5569    5633    5697
    5761    5825    5889    5953    6017    6081    6145    6209    6273    6337
    6401    6465    6529    6593    6657    6721    6785    6849    6913    6977
    7041    7105    7169    7233    7297    7361    7425    7489    7553    7617
    7681    7745    7809    7873    7937    8001    8065    8129    8193    8257
    8321    8385    8449    8513    8577    8641    8705    8769    8833    8897
    8961    9025    9089    9153    9217    9281    9345    9409    9473    9537
    9601    9665    9729    9793    9857    9921    9985   10049   10113   10177
   10241   10305   10369   10433   10497   10561   10625   10689   10753   10817
   10881   10945   11009   11073   11137   11201   11265   11329   11393   11457
   11521   11585   11649   11713   11777   11841   11905   11969   12033   12097
   12161   12225   12289   12353   12417   12481   12545   12609   12673   12737
   12801   12865   12929   12993   13057   13121   13185   13249   13313   13377
   13441   13505   13569   13633   13697   13761   13825   13889   13953   14017
   14081   14145   14209   14273   14337   14401   14465   14529   14593   14657
   14721   14785   14849   14913   14977   15041   15105   15169   15233   15297
   15361   15425   15489   15553   15617   15681   15745   15809   15873   15937
   16001   16065   16129   16193   16257   16321   16385   16449   16513   16577
   16641   16705   16769   16833   16897   16961   17025   17089   17153   17217
   17281   17345   17409   17473   17537   17601   17665   17729   17793   17857
   17921   17985   18049   18113   18177   18241   18305   18369
%FLAG BOND_FORCE_CONSTANT                                                       
%FORMAT(5E16.8)                                                                 
  3.45250000E+02  2.28890000E+02  3.60690000E+02  3.54250000E+02  2.43910000E+02
  3.46070000E+02  2.69370000E+02  2.13480000E+02  2.88790000E+02  2.26530000E+02
  2.96500000E+02  3.86240000E+02  2.31660000E+02
%FLAG BOND_EQUIL_VALUE                                                          
%FORMAT(5E16.8)                                                                 
  1.09620000E+00  1.53540000E+00  1.08600000E+00  1.39860000E+00  1.51470000E+00
  1.40560000E+00  1.48290000E+00  1.78470000E+00  1.46100000E+00  1.76220000E+00
  1.45280000E+00  1.37300000E+00  1.75380000E+00
%FLAG ANGLE_FORCE_CONSTANT                                                      
%FORMAT(5E16.8)                                                                 
  3.58000000E+01  4.32700000E+01  5.98700000E+01  4.49000000E+01  6.36700000E+01
  6.37900000E+01  6.03300000E+01  4.36100000E+01  6.33300000E+01  4.47300000E+01
  6.13000000E+01  6.07400000E+01  6.30900000E+01  6.31300000E+01  6.20200000E+01
  1.00960000E+02  6.40000000E+01  1.01980000E+02  6.21900000E+01  6.16400000E+01
  6.58400000E+01  6.30100000E+01  6.66200000E+01
%FLAG ANGLE_EQUIL_VALUE                                                         
%FORMAT(5E16.8)                                                                 
  1.88024401E+00  1.91427794E+00  1.96576518E+00  2.09230160E+00  2.09474507E+00
  2.06664525E+00  1.96209999E+00  1.93085858E+00  2.10713691E+00  2.09125441E+00
  2.11359463E+00  2.10888224E+00  2.09544320E+00  2.09125441E+00  2.10888224E+00
  1.57830192E+00  2.02510640E+00  1.55404183E+00  2.11027850E+00  2.16927066E+00
  1.97833156E+00  2.12022688E+00  1.94691562E+00
%FLAG DIHEDRAL_FORCE_CONSTANT                                                   
%FORMAT(5E16.8)                                                                 
  1.20000000E-01  1.30000000E-01  5.20000000E-01  3.62500000E+00  1.55555556E-01
  7.65000000E-01  2.40000000E-01  0.00000000E+00  7.00000000E-01  1.21500000E+00
  5.85000000E-01  4.00000000E-01  4.00000000E+00  8.95000000E-01  3.77000000E+00
  1.10000000E+00
%FLAG DIHEDRAL_PERIODICITY                                                      
%FORMAT(5E16.8)                                                                 
  3.00000000E+00  3.00000000E+00  3.00000000E+00  2.00000000E+00  3.00000000E+00
  2.00000000E+00  2.00000000E+00  1.00000000E+00  2.00000000E+00  2.00000000E+00
  2.00000000E+00  2.00000000E+00  2.00000000E+00  2.00000000E+00  2.00000000E+00
  2.00000000E+00
%FLAG DIHEDRAL_PHASE                                                            
%FORMAT(5E16.8)                                                                 
  0.00000000E+00  0.00000000E+00  0.00000000E+00  3.14159400E+00  0.00000000E+00
  3.14159400E+00  3.14159400E+00  0.00000000E+00  3.14159400E+00  0.00000000E+00
  3.14159400E+00  3.14159400E+00  3.14159400E+00  3.14159400E+00  3.14159400E+00
  3.14159400E+00
%FLAG SCEE_SCALE_FACTOR                                                         
%FORMAT(5E16.8)                                                                 
  1.20000000E+00  1.20000000E+00  1.20000000E+00  1.20000000E+00  1.20000000E+00
  1.20000000E+00  1.20000000E+00  1.20000000E+00  1.20000000E+00  1.20000000E+00
  1.20000000E+00  1.20000000E+00  1.20000000E+00  1.20000000E+00  1.20000000E+00
  0.00000000E+00
%FLAG SCNB_SCALE_FACTOR                                                         
%FORMAT(5E16.8)                                                                 
  2.00000000E+00  2.00000000E+00  2.00000000E+00  2.00000000E+00  2.00000000E+00
  2.00000000E+00  2.00000000E+00  2.00000000E+00  2.00000000E+00  2.00000000E+00
  2.00000000E+00  2.00000000E+00  2.00000000E+00  2.00000000E+00  2.00000000E+00
  0.00000000E+00
%FLAG SOLTY                                                                     
%FORMAT(5E16.8)                                                                 
  0.00000000E+00  0.00000000E+00  0.00000000E+00  0.00000000E+00  0.00000000E+00
  0.00000000E+00  0.00000000E+00  0.00000000E+00
%FLAG LENNARD_JONES_ACOEF                                                       
%FORMAT(5E16.8)                                                                 
  4.26366419E+06  1.73376823E+06  6.96551276E+05  1.95762765E+05  7.52549148E+04
  6.90855956E+03  2.09089895E+06  8.43969952E+05  9.27554496E+04  1.02073671E+06
  2.11783234E+05  8.12662403E+04  7.41026906E+03  1.00235148E+05  7.94617769E+03
%FLAG LENNARD_JONES_BCOEF                                                       
%FORMAT(5E16.8)                                                                 
  2.19459223E+03  1.07629402E+03  5.24668528E+02  2.29782888E+02  1.09570372E+02
  2.10929191E+01  1.20800124E+03  5.90251928E+02  1.24325688E+02  6.63431737E+02
  2.54804909E+02  1.21392023E+02  2.32899892E+01  1.37787728E+02  2.57122925E+01
%FLAG BONDS_INC_HYDROGEN                                                        
%FORMAT(10I8)                                                                   
     177     183       1     177     186       1     177     189       1     165
     174       1     165     180       1     162     168       1     162     171
       1     147     156       1     147     159       1     138     150       1
     138     153       1     129     141       1     129     144       1     120
     132       1     120     135       1     108     123       1     108     126
       1      99     117       3      90     111       1      90     114       1
      84     105       3      78     102       3      75      93       1      75
      96       1      72      87       3      69      81       3      48      66
       3      45      63       3      39      60       3      36      54       3
      21      42       3      15      33       3     369     375       1     369
     378       1     369     381       1     357     366       1     357     372
       1     354     360       1     354     363       1     339     348       1
     339     351       1     330     342       1     330     345       1     321
     333       1     321     336       1     312     324       1     312     327
       1     300     315       1     300     318       1     291     309       3
     282     303       1     282     306       1     276     297       3     270
     294       3     267     285       1     267     288       1     264     279
       3     261     273       3     240     258       3     237     255       3
     231     252       3     228     246       3     213     234       3     207
     225       3     561     567       1     561     570       1     561     573
       1     549     558       1     549     564       1     546     552       1
     546     555       1     531     540       1     531     543       1     522
     534       1     522     537       1     513     525       1     513     528
       1     504     516       1     504     519       1     492     507       1
     492     510       1     483     501       3     474     495       1     474
     498       1     468     489       3     462     486       3     459     477
       1     459     480       1     456     471       3     453     465       3
     432     450       3     429     447       3     423     444       3     420
     438       3     405     426       3     399     417       3     753     759
       1     753     762       1     753     765       1     741     750       1
     741     756       1     738     744       1     738     747       1     723
     732       1     723     735       1     714     726       1     714     729
       1     705     717       1     705     720       1     696     708       1
     696     711       1     684     699       1     684     702       1     675
     693       3     666     687       1     666     690       1     660     681
       3     654     678       3     651     669       1     651     672       1
     648     663       3     645     657       3     624     642       3     621
     639       3     615     636       3     612     630       3     597     618
       3     591     609       3     945     951       1     945     954       1
     945     957       1     933     942       1     933     948       1     930
     936       1     930     939       1     915     924       1     915     927
       1     906     918       1     906     921       1     897     909       1
     897     912       1     888     900       1     888     903       1     876
     891       1     876     894       1     867     885       3     858     879
       1     858     882       1     852     873       3     846     870       3
     843     861       1     843     864       1     840     855       3     837
     849       3     816     834       3     813     831       3     807     828
       3     804     822       3     789     810       3     783     801       3
    1137    1143       1    1137    1146       1    1137    1149       1    1125
    1134       1    1125    1140       1    1122    1128       1    1122    1131
       1    1107    1116       1    1107    1119       1    1098    1110       1
    1098    1113       1    1089    1101       1    1089    1104       1    1080
    1092       1    1080    1095       1    1068    1083       1    1068    1086
       1    1059    1077       3    1050    1071       1    1050    1074       1
    1044    1065       3    1038    1062       3    1035    1053       1    1035
    1056       1    1032    1047       3    1029    1041       3    1008    1026
       3    1005    1023       3     999    1020       3     996    1014       3
     981    1002       3     975     993       3    1329    1335       1    1329
    1338       1    1329    1341       1    1317    1326       1    1317    1332
       1    1314    1320       1    1314    1323       1    1299    1308       1
    1299    1311       1    1290    1302       1    1290    1305       1    1281
    1293       1    1281    1296       1    1272    1284       1    1272    1287
       1    1260    1275       1    1260    1278       1    1251    1269       3
    1242    1263       1    1242    1266       1    1236    1257       3    1230
    1254       3    1227    1245       1    1227    1248       1    1224    1239
       3    1221    1233       3    1200    1218       3    1197    1215       3
    1191    1212       3    1188    1206       3    1173    1194       3    1167
    1185       3    1521    1527       1    1521    1530       1    1521    1533
       1    1509    1518       1    1509    1524       1    1506    1512       1
    1506    1515       1    1491    1500       1    1491    1503       1    1482
    1494       1    1482    1497       1    1473    1485       1    1473    1488
       1    1464    1476       1    1464    1479       1    1452    1467       1
    1452    1470       1    1443    1461       3    1434    1455       1    1434
    1458       1    1428    1449       3    1422    1446       3    1419    1437
       1    1419    1440       1    1416    1431       3    1413    1425       3
    1392    1410       3    1389    1407       3    1383    1404       3    1380
    1398       3    1365    1386       3    1359    1377       3    1713    1719
       1    1713    1722       1    1713    1725       1    1701    1710       1
    1701    1716       1    1698    1704       1    1698    1707       1    1683
    1692       1    1683    1695       1    1674    1686       1    1674    1689
       1    1665    1677       1    1665    1680       1    1656    1668       1
    1656    1671       1    1644    1659       1    1644    1662       1    1635
    1653       3    1626    1647       1    1626    1650       1    1620    1641
       3    1614    1638       3    1611    1629       1    1611    1632       1
    1608    1623       3    1605    1617       3    1584    1602       3    1581
    1599       3    1575    1596       3    1572    1590       3    1557    1578
       3    1551    1569       3    1905    1911       1    1905    1914       1
    1905    1917       1    1893    1902       1    1893    1908       1    1890
    1896       1    1890    1899       1    1875    1884       1    1875    1887
       1    1866    1878       1    1866    1881       1    1857    1869       1
    1857    1872       1    1848    1860       1    1848    1863       1    1836
    1851       1    1836    1854       1    1827    1845       3    1818    1839
       1    1818    1842       1    1812    1833       3    1806    1830       3
    1803    1821       1    1803    1824       1    1800    1815       3    1797
    1809       3    1776    1794       3    1773    1791       3    1767    1788
       3    1764    1782       3    1749    1770       3    1743    1761       3
    2097    2103       1    2097    2106       1    2097    2109       1    2085
    2094       1    2085    2100       1    2082    2088       1    2082    2091
       1    2067    2076       1    2067    2079       1    2058    2070       1
    2058    2073       1    2049    2061       1    2049    2064       1    2040
    2052       1    2040    2055       1    2028    2043       1    2028    2046
       1    2019    2037       3    2010    2031       1    2010    2034       1
    2004    2025       3    1998    2022       3    1995    2013       1    1995
    2016       1    1992    2007       3    1989    2001       3    1968    1986
       3    1965    1983       3    1959    1980       3    1956    1974       3
    1941    1962       3    1935    1953       3    2289    2295       1    2289
    2298       1    2289    2301       1    2277    2286       1    2277    2292
       1    2274    2280       1    2274    2283       1    2259    2268       1
    2259    2271       1    2250    2262       1    2250    2265       1    2241
    2253       1    2241    2256       1    2232    2244       1    2232    2247
       1    2220    2235       1    2220    2238       1    2211    2229       3
    2202    2223       1    2202    2226       1    2196    2217       3    2190
    2214       3    2187    2205       1    2187    2208       1    2184    2199
       3    2181    2193       3    2160    2178       3    2157    2175       3
    2151    2172       3    2148    2166       3    2133    2154       3    2127
    2145       3    2481    2487       1    2481    2490       1    2481    2493
       1    2469    2478       1    2469    2484       1    2466    2472       1
    2466    2475       1    2451    2460       1    2451    2463       1    2442
    2454       1    2442    2457       1    2433    2445       1    2433    2448
       1    2424    2436       1    2424    2439       1    2412    2427       1
    2412    2430       1    2403    2421       3    2394    2415       1    2394
    2418       1    2388    2409       3    2382    2406       3    2379    2397
       1    2379    2400       1    2376    2391       3    2373    2385       3
    2352    2370       3    2349    2367       3    2343    2364       3    2340
    2358       3    2325    2346       3    2319    2337       3    2673    2679
       1    2673    2682       1    2673    2685       1    2661    2670       1
    2661    2676       1    2658    2664       1    2658    2667       1    2643
    2652       1    2643    2655       1    2634    2646       1    2634    2649
       1    2625    2637       1    2625    2640       1    2616    2628       1
    2616    2631       1    2604    2619       1    2604    2622       1    2595
    2613       3    2586    2607       1    2586    2610       1    2580    2601
       3    2574    2598       3    2571    2589       1    2571    2592       1
    2568    2583       3    2565    2577       3    2544    2562       3    2541
    2559       3    2535    2556       3    2532    2550       3    2517    2538
       3    2511    2529       3    2865    2871       1    2865    2874       1
    2865    2877       1    2853    2862       1    2853    2868       1    2850
    2856       1    2850    2859       1    2835    2844       1    2835    2847
       1    2826    2838       1    2826    2841       1    2817    2829       1
    2817    2832       1    2808    2820       1    2808    2823       1    2796
    2811       1    2796    2814       1    2787    2805       3    2778    2799
       1    2778    2802       1    2772    2793       3    2766    2790       3
    2763    2781       1    2763    2784       1    2760    2775       3    2757
    2769       3    2736    2754       3    2733    2751       3    2727    2748
       3    2724    2742       3    2709    2730       3    2703    2721       3
    3057    3063       1    3057    3066       1    3057    3069       1    3045
    3054       1    3045    3060       1    3042    3048       1    3042    3051
       1    3027    3036       1    3027    3039       1    3018    3030       1
    3018    3033       1    3009    3021       1    3009    3024       1    3000
    3012       1    3000    3015       1    2988    3003       1    2988    3006
       1    2979    2997       3    2970    2991       1    2970    2994       1
    2964    2985       3    2958    2982       3    2955    2973       1    2955
    2976       1    2952    2967       3    2949    2961       3    2928    2946
       3    2925    2943       3    2919    2940       3    2916    2934       3
    2901    2922       3    2895    2913       3    3249    3255       1    3249
    3258       1    3249    3261       1    3237    3246       1    3237    3252
       1    3234    3240       1    3234    3243       1    3219    3228       1
    3219    3231       1    3210    3222       1    3210    3225       1    3201
    3213       1    3201    3216       1    3192    3204       1    3192    3207
       1    3180    3195       1    3180    3198       1    3171    3189       3
    3162    3183       1    3162    3186       1    3156    3177       3    3150
    3174       3    3147    3165       1    3147    3168       1    3144    3159
       3    3141    3153       3    3120    3138       3    3117    3135       3
    3111    3132       3    3108    3126       3    3093    3114       3    3087
    3105       3    3441    3447       1    3441    3450       1    3441    3453
       1    3429    3438       1    3429    3444       1    3426    3432       1
    3426    3435       1    3411    3420       1    3411    3423       1    3402
    3414       1    3402    3417       1    3393    3405       1    3393    3408
       1    3384    3396       1    3384    3399       1    3372    3387       1
    3372    3390       1    3363    3381       3    3354    3375       1    3354
    3378       1    3348    3369       3    3342    3366       3    3339    3357
       1    3339    3360       1    3336    3351       3    3333    3345       3
    3312    3330       3    3309    3327       3    3303    3324       3    3300
    3318       3    3285    3306       3    3279    3297       3    3633    3639
       1    3633    3642       1    3633    3645       1    3621    3630       1
    3621    3636       1    3618    3624       1    3618    3627       1    3603
    3612       1    3603    3615       1    3594    3606       1    3594    3609
       1    3585    3597       1    3585    3600       1    3576    3588       1
    3576    3591       1    3564    3579       1    3564    3582       1    3555
    3573       3    3546    3567       1    3546    3570       1    3540    3561
       3    3534    3558       3    3531    3549       1    3531    3552       1
    3528    3543       3    3525    3537       3    3504    3522       3    3501
    3519       3    3495    3516       3    3492    3510       3    3477    3498
       3    3471    3489       3    3825    3831       1    3825    3834       1
    3825    3837       1    3813    3822       1    3813    3828       1    3810
    3816       1    3810    3819       1    3795    3804       1    3795    3807
       1    3786    3798       1    3786    3801       1    3777    3789       1
    3777    3792       1    3768    3780       1    3768    3783       1    3756
    3771       1    3756    3774       1    3747    3765       3    3738    3759
       1    3738    3762       1    3732    3753       3    3726    3750       3
    3723    3741       1    3723    3744       1    3720    3735       3    3717
    3729       3    3696    3714       3    3693    3711       3    3687    3708
       3    3684    3702       3    3669    3690       3    3663    3681       3
    4017    4023       1    4017    4026       1    4017    4029       1    4005
    4014       1    4005    4020       1    4002    4008       1    4002    4011
       1    3987    3996       1    3987    3999       1    3978    3990       1
    3978    3993       1    3969    3981       1    3969    3984       1    3960
    3972       1    3960    3975       1    3948    3963       1    3948    3966
       1    3939    3957       3    3930    3951       1    3930    3954       1
    3924    3945       3    3918    3942       3    3915    3933       1    3915
    3936       1    3912    3927       3    3909    3921       3    3888    3906
       3    3885    3903       3    3879    3900       3    3876    3894       3
    3861    3882       3    3855    3873       3    4209    4215       1    4209
    4218       1    4209    4221       1    4197    4206       1    4197    4212
       1    4194    4200       1    4194    4203       1    4179    4188       1
    4179    4191       1    4170    4182       1    4170    4185       1    4161
    4173       1    4161    4176       1    4152    4164       1    4152    4167
       1    4140    4155       1    4140    4158       1    4131    4149       3
    4122    4143       1    4122    4146       1    4116    4137       3    4110
    4134       3    4107    4125       1    4107    4128       1    4104    4119
       3    4101    4113       3    4080    4098       3    4077    4095       3
    4071    4092       3    4068    4086       3    4053    4074       3    4047
    4065       3    4401    4407       1    4401    4410       1    4401    4413
       1    4389    4398       1    4389    4404       1    4386    4392       1
    4386    4395       1    4371    4380       1    4371    4383       1    4362
    4374       1    4362    4377       1    4353    4365       1    4353    4368
       1    4344    4356       1    4344    4359       1    4332    4347       1
    4332    4350       1    4323    4341       3    4314    4335       1    4314
    4338       1    4308    4329       3    4302    4326       3    4299    4317
       1    4299    4320       1    4296    4311       3    4293    4305       3
    4272    4290       3    4269    4287       3    4263    4284       3    4260
    4278       3    4245    4266       3    4239    4257       3    4593    4599
       1    4593    4602       1    4593    4605       1    4581    4590       1
    4581    4596       1    4578    4584       1    4578    4587       1    4563
    4572       1    4563    4575       1    4554    4566       1    4554    4569
       1    4545    4557       1    4545    4560       1    4536    4548       1
    4536    4551       1    4524    4539       1    4524    4542       1    4515
    4533       3    4506    4527       1    4506    4530       1    4500    4521
       3    4494    4518       3    4491    4509       1    4491    4512       1
    4488    4503       3    4485    4497       3    4464    4482       3    4461
    4479       3    4455    4476       3    4452    4470       3    4437    4458
       3    4431    4449       3    4785    4791       1    4785    4794       1
    4785    4797       1    4773    4782       1    4773    4788       1    4770
    4776       1    4770    4779       1    4755    4764       1    4755    4767
       1    4746    4758       1    4746    4761       1    4737    4749       1
    4737    4752       1    4728    4740       1    4728    4743       1    4716
    4731       1    4716    4734       1    4707    4725       3    4698    4719
       1    4698    4722       1    4692    4713       3    4686    4710       3
    4683    4701       1    4683    4704       1    4680    4695       3    4677
    4689       3    4656    4674       3    4653    4671       3    4647    4668
       3    4644    4662       3    4629    4650       3    4623    4641       3
    4977    4983       1    4977    4986       1    4977    4989       1    4965
    4974       1    4965    4980       1    4962    4968       1    4962    4971
       1    4947    4956       1    4947    4959       1    4938    4950       1
    4938    4953       1    4929    4941       1    4929    4944       1    4920
    4932       1    4920    4935       1    4908    4923       1    4908    4926
       1    4899    4917       3    4890    4911       1    4890    4914       1
    4884    4905       3    4878    4902       3    4875    4893       1    4875
    4896       1    4872    4887       3    4869    4881       3    4848    4866
       3    4845    4863       3    4839    4860       3    4836    4854       3
    4821    4842       3    4815    4833       3    5169    5175       1    5169
    5178       1    5169    5181       1    5157    5166       1    5157    5172
       1    5154    5160       1    5154    5163       1    5139    5148       1
    5139    5151       1    5130    5142       1    5130    5145       1    5121
    5133       1    5121    5136       1    5112    5124       1    5112    5127
       1    5100    5115       1    5100    5118       1    5091    5109       3
    5082    5103       1    5082    5106       1    5076    5097       3    5070
    5094       3    5067    5085       1    5067    5088       1    5064    5079
       3    5061    5073       3    5040    5058       3    5037    5055       3
    5031    5052       3    5028    5046       3    5013    5034       3    5007
    5025       3    5361    5367       1    5361    5370       1    5361    5373
       1    5349    5358       1    5349    5364       1    5346    5352       1
    5346    5355       1    5331    5340       1    5331    5343       1    5322
    5334       1    5322    5337       1    5313    5325       1    5313    5328
       1    5304    5316       1    5304    5319       1    5292    5307       1
    5292    5310       1    5283    5301       3    5274    5295       1    5274
    5298       1    5268    5289       3    5262    5286       3    5259    5277
       1    5259    5280       1    5256    5271       3    5253    5265       3
    5232    5250       3    5229    5247       3    5223    5244       3    5220
    5238       3    5205    5226       3    5199    5217       3    5553    5559
       1    5553    5562       1    5553    5565       1    5541    5550       1
    5541    5556       1    5538    5544       1    5538    5547       1    5523
    5532       1    5523    5535       1    5514    5526       1    5514    5529
       1    5505    5517       1    5505    5520       1    5496    5508       1
    5496    5511       1    5484    5499       1    5484    5502       1    5475
    5493       3    5466    5487       1    5466    5490       1    5460    5481
       3    5454    5478       3    5451    5469       1    5451    5472       1
    5448    5463       3    5445    5457       3    5424    5442       3    5421
    5439       3    5415    5436       3    5412    5430       3    5397    5418
       3    5391    5409       3    5745    5751       1    5745    5754       1
    5745    5757       1    5733    5742       1    5733    5748       1    5730
    5736       1    5730    5739       1    5715    5724       1    5715    5727
       1    5706    5718       1    5706    5721       1    5697    5709       1
    5697    5712       1    5688    5700       1    5688    5703       1    5676
    5691       1    5676    5694       1    5667    5685       3    5658    5679
       1    5658    5682       1    5652    5673       3    5646    5670       3
    5643    5661       1    5643    5664       1    5640    5655       3    5637
    5649       3    5616    5634       3    5613    5631       3    5607    5628
       3    5604    5622       3    5589    5610       3    5583    5601       3
    5937    5943       1    5937    5946       1    5937    5949       1    5925
    5934       1    5925    5940       1    5922    5928       1    5922    5931
       1    5907    5916       1    5907    5919       1    5898    5910       1
    5898    5913       1    5889    5901       1    5889    5904       1    5880
    5892       1    5880    5895       1    5868    5883       1    5868    5886
       1    5859    5877       3    5850    5871       1    5850    5874       1
    5844    5865       3    5838    5862       3    5835    5853       1    5835
    5856       1    5832    5847       3    5829    5841       3    5808    5826
       3    5805    5823       3    5799    5820       3    5796    5814       3
    5781    5802       3    5775    5793       3    6129    6135       1    6129
    6138       1    6129    6141       1    6117    6126       1    6117    6132
       1    6114    6120       1    6114    6123       1    6099    6108       1
    6099    6111       1    6090    6102       1    6090    6105       1    6081
    6093       1    6081    6096       1    6072    6084       1    6072    6087
       1    6060    6075       1    6060    6078       1    6051    6069       3
    6042    6063       1    6042    6066       1    6036    6057       3    6030
    6054       3    6027    6045       1    6027    6048       1    6024    6039
       3    6021    6033       3    6000    6018       3    5997    6015       3
    5991    6012       3    5988    6006       3    5973    5994       3    5967
    5985       3    6321    6327       1    6321    6330       1    6321    6333
       1    6309    6318       1    6309    6324       1    6306    6312       1
    6306    6315       1    6291    6300       1    6291    6303       1    6282
    6294       1    6282    6297       1    6273    6285       1    6273    6288
       1    6264    6276       1    6264    6279       1    6252    6267       1
    6252    6270       1    6243    6261       3    6234    6255       1    6234
    6258       1    6228    6249       3    6222    6246       3    6219    6237
       1    6219    6240       1    6216    6231       3    6213    6225       3
    6192    6210       3    6189    6207       3    6183    6204       3    6180
    6198       3    6165    6186       3    6159    6177       3    6513    6519
       1    6513    6522       1    6513    6525       1    6501    6510       1
    6501    6516       1    6498    6504       1    6498    6507       1    6483
    6492       1    6483    6495       1    6474    6486       1    6474    6489
       1    6465    6477       1    6465    6480       1    6456    6468       1
    6456    6471       1    6444    6459       1    6444    6462       1    6435
    6453       3    6426    6447       1    6426    6450       1    6420    6441
       3    6414    6438       3    6411    6429       1    6411    6432       1
    6408    6423       3    6405    6417       3    6384    6402       3    6381
    6399       3    6375    6396       3    6372    6390       3    6357    6378
       3    6351    6369       3    6705    6711       1    6705    6714       1
    6705    6717       1    6693    6702       1    6693    6708       1    6690
    6696       1    6690    6699       1    6675    6684       1    6675    6687
       1    6666    6678       1    6666    6681       1    6657    6669       1
    6657    6672       1    6648    6660       1    6648    6663       1    6636
    6651       1    6636    6654       1    6627    6645       3    6618    6639
       1    6618    6642       1    6612    6633       3    6606    6630       3
    6603    6621       1    6603    6624       1    6600    6615       3    6597
    6609       3    6576    6594       3    6573    6591       3    6567    6588
       3    6564    6582       3    6549    6570       3    6543    6561       3
    6897    6903       1    6897    6906       1    6897    6909       1    6885
    6894       1    6885    6900       1    6882    6888       1    6882    6891
       1    6867    6876       1    6867    6879       1    6858    6870       1
    6858    6873       1    6849    6861       1    6849    6864       1    6840
    6852       1    6840    6855       1    6828    6843       1    6828    6846
       1    6819    6837       3    6810    6831       1    6810    6834       1
    6804    6825       3    6798    6822       3    6795    6813       1    6795
    6816       1    6792    6807       3    6789    6801       3    6768    6786
       3    6765    6783       3    6759    6780       3    6756    6774       3
    6741    6762       3    6735    6753       3    7089    7095       1    7089
    7098       1    7089    7101       1    7077    7086       1    7077    7092
       1    7074    7080       1    7074    7083       1    7059    7068       1
    7059    7071       1    7050    7062       1    7050    7065       1    7041
    7053       1    7041    7056       1    7032    7044       1    7032    7047
       1    7020    7035       1    7020    7038       1    7011    7029       3
    7002    7023       1    7002    7026       1    6996    7017       3    6990
    7014       3    6987    7005       1    6987    7008       1    6984    6999
       3    6981    6993       3    6960    6978       3    6957    6975       3
    6951    6972       3    6948    6966       3    6933    6954       3    6927
    6945       3    7281    7287       1    7281    7290       1    7281    7293
       1    7269    7278       1    7269    7284       1    7266    7272       1
    7266    7275       1    7251    7260       1    7251    7263       1    7242
    7254       1    7242    7257       1    7233    7245       1    7233    7248
       1    7224    7236       1    7224    7239       1    7212    7227       1
    7212    7230       1    7203    7221       3    7194    7215       1    7194
    7218       1    7188    7209       3    7182    7206       3    7179    7197
       1    7179    7200       1    7176    7191       3    7173    7185       3
    7152    7170       3    7149    7167       3    7143    7164       3    7140
    7158       3    7125    7146       3    7119    7137       3    7473    7479
       1    7473    7482       1    7473    7485       1    7461    7470       1
    7461    7476       1    7458    7464       1    7458    7467       1    7443
    7452       1    7443    7455       1    7434    7446       1    7434    7449
       1    7425    7437       1    7425    7440       1    7416    7428       1
    7416    7431       1    7404    7419       1    7404    7422       1    7395
    7413       3    7386    7407       1    7386    7410       1    7380    7401
       3    7374    7398       3    7371    7389       1    7371    7392       1
    7368    7383       3    7365    7377       3    7344    7362       3    7341
    7359       3    7335    7356       3    7332    7350       3    7317    7338
       3    7311    7329       3    7665    7671       1    7665    7674       1
    7665    7677       1    7653    7662       1    7653    7668       1    7650
    7656       1    7650    7659       1    7635    7644       1    7635    7647
       1    7626    7638       1    7626    7641       1    7617    7629       1
    7617    7632       1    7608    7620       1    7608    7623       1    7596
    7611       1    7596    7614       1    7587    7605       3    7578    7599
       1    7578    7602       1    7572    7593       3    7566    7590       3
    7563    7581       1    7563    7584       1    7560    7575       3    7557
    7569       3    7536    7554       3    7533    7551       3    7527    7548
       3    7524    7542       3    7509    7530       3    7503    7521       3
    7857    7863       1    7857    7866       1    7857    7869       1    7845
    7854       1    7845    7860       1    7842    7848       1    7842    7851
       1    7827    7836       1    7827    7839       1    7818    7830       1
    7818    7833       1    7809    7821       1    7809    7824       1    7800
    7812       1    7800    7815       1    7788    7803       1    7788    7806
       1    7779    7797       3    7770    7791       1    7770    7794       1
    7764    7785       3    7758    7782       3    7755    7773       1    7755
    7776       1    7752    7767       3    7749    7761       3    7728    7746
       3    7725    7743       3    7719    7740       3    7716    7734       3
    7701    7722       3    7695    7713       3    8049    8055       1    8049
    8058       1    8049    8061       1    8037    8046       1    8037    8052
       1    8034    8040       1    8034    8043       1    8019    8028       1
    8019    8031       1    8010    8022       1    8010    8025       1    8001
    8013       1    8001    8016       1    7992    8004       1    7992    8007
       1    7980    7995       1    7980    7998       1    7971    7989       3
    7962    7983       1    7962    7986       1    7956    7977       3    7950
    7974       3    7947    7965       1    7947    7968       1    7944    7959
       3    7941    7953       3    7920    7938       3    7917    7935       3
    7911    7932       3    7908    7926       3    7893    7914       3    7887
    7905       3    8241    8247       1    8241    8250       1    8241    8253
       1    8229    8238       1    8229    8244       1    8226    8232       1
    8226    8235       1    8211    8220       1    8211    8223       1    8202
    8214       1    8202    8217       1    8193    8205       1    8193    8208
       1    8184    8196       1    8184    8199       1    8172    8187       1
    8172    8190       1    8163    8181       3    8154    8175       1    8154
    8178       1    8148    8169       3    8142    8166       3    8139    8157
       1    8139    8160       1    8136    8151       3    8133    8145       3
    8112    8130       3    8109    8127       3    8103    8124       3    8100
    8118       3    8085    8106       3    8079    8097       3    8433    8439
       1    8433    8442       1    8433    8445       1    8421    8430       1
    8421    8436       1    8418    8424       1    8418    8427       1    8403
    8412       1    8403    8415       1    8394    8406       1    8394    8409
       1    8385    8397       1    8385    8400       1    8376    8388       1
    8376    8391       1    8364    8379       1    8364    8382       1    8355
    8373       3    8346    8367       1    8346    8370       1    8340    8361
       3    8334    8358       3    8331    8349       1    8331    8352       1
    8328    8343       3    8325    8337       3    8304    8322       3    8301
    8319       3    8295    8316       3    8292    8310       3    8277    8298
       3    8271    8289       3    8625    8631       1    8625    8634       1
    8625    8637       1    8613    8622       1    8613    8628       1    8610
    8616       1    8610    8619       1    8595    8604       1    8595    8607
       1    8586    8598       1    8586    8601       1    8577    8589       1
    8577    8592       1    8568    8580       1    8568    8583       1    8556
    8571       1    8556    8574       1    8547    8565       3    8538    8559
       1    8538    8562       1    8532    8553       3    8526    8550       3
    8523    8541       1    8523    8544       1    8520    8535       3    8517
    8529       3    8496    8514       3    8493    8511       3    8487    8508
       3    8484    8502       3    8469    8490       3    8463    8481       3
    8817    8823       1    8817    8826       1    8817    8829       1    8805
    8814       1    8805    8820       1    8802    8808       1    8802    8811
       1    8787    8796       1    8787    8799       1    8778    8790       1
    8778    8793       1    8769    8781       1    8769    8784       1    8760
    8772       1    8760    8775       1    8748    8763       1    8748    8766
       1    8739    8757       3    8730    8751       1    8730    8754       1
    8724    8745       3    8718    8742       3    8715    8733       1    8715
    8736       1    8712    8727       3    8709    8721       3    8688    8706
       3    8685    8703       3    8679    8700       3    8676    8694       3
    8661    8682       3    8655    8673       3    9009    9015       1    9009
    9018       1    9009    9021       1    8997    9006       1    8997    9012
       1    8994    9000       1    8994    9003       1    8979    8988       1
    8979    8991       1    8970    8982       1    8970    8985       1    8961
    8973       1    8961    8976       1    8952    8964       1    8952    8967
       1    8940    8955       1    8940    8958       1    8931    8949       3
    8922    8943       1    8922    8946       1    8916    8937       3    8910
    8934       3    8907    8925       1    8907    8928       1    8904    8919
       3    8901    8913       3    8880    8898       3    8877    8895       3
    8871    8892       3    8868    8886       3    8853    8874       3    8847
    8865       3    9201    9207       1    9201    9210       1    9201    9213
       1    9189    9198       1    9189    9204       1    9186    9192       1
    9186    9195       1    9171    9180       1    9171    9183       1    9162
    9174       1    9162    9177       1    9153    9165       1    9153    9168
       1    9144    9156       1    9144    9159       1    9132    9147       1
    9132    9150       1    9123    9141       3    9114    9135       1    9114
    9138       1    9108    9129       3    9102    9126       3    9099    9117
       1    9099    9120       1    9096    9111       3    9093    9105       3
    9072    9090       3    9069    9087       3    9063    9084       3    9060
    9078       3    9045    9066       3    9039    9057       3    9393    9399
       1    9393    9402       1    9393    9405       1    9381    9390       1
    9381    9396       1    9378    9384       1    9378    9387       1    9363
    9372       1    9363    9375       1    9354    9366       1    9354    9369
       1    9345    9357       1    9345    9360       1    9336    9348       1
    9336    9351       1    9324    9339       1    9324    9342       1    9315
    9333       3    9306    9327       1    9306    9330       1    9300    9321
       3    9294    9318       3    9291    9309       1    9291    9312       1
    9288    9303       3    9285    9297       3    9264    9282       3    9261
    9279       3    9255    9276       3    9252    9270       3    9237    9258
       3    9231    9249       3    9585    9591       1    9585    9594       1
    9585    9597       1    9573    9582       1    9573    9588       1    9570
    9576       1    9570    9579       1    9555    9564       1    9555    9567
       1    9546    9558       1    9546    9561       1    9537    9549       1
    9537    9552       1    9528    9540       1    9528    9543       1    9516
    9531       1    9516    9534       1    9507    9525       3    9498    9519
       1    9498    9522       1    9492    9513       3    9486    9510       3
    9483    9501       1    9483    9504       1    9480    9495       3    9477
    9489       3    9456    9474       3    9453    9471       3    9447    9468
       3    9444    9462       3    9429    9450       3    9423    9441       3
    9777    9783       1    9777    9786       1    9777    9789       1    9765
    9774       1    9765    9780       1    9762    9768       1    9762    9771
       1    9747    9756       1    9747    9759       1    9738    9750       1
    9738    9753       1    9729    9741       1    9729    9744       1    9720
    9732       1    9720    9735       1    9708    9723       1    9708    9726
       1    9699    9717       3    9690    9711       1    9690    9714       1
    9684    9705       3    9678    9702       3    9675    9693       1    9675
    9696       1    9672    9687       3    9669    9681       3    9648    9666
       3    9645    9663       3    9639    9660       3    9636    9654       3
    9621    9642       3    9615    9633       3    9969    9975       1    9969
    9978       1    9969    9981       1    9957    9966       1    9957    9972
       1    9954    9960       1    9954    9963       1    9939    9948       1
    9939    9951       1    9930    9942       1    9930    9945       1    9921
    9933       1    9921    9936       1    9912    9924       1    9912    9927
       1    9900    9915       1    9900    9918       1    9891    9909       3
    9882    9903       1    9882    9906       1    9876    9897       3    9870
    9894       3    9867    9885       1    9867    9888       1    9864    9879
       3    9861    9873       3    9840    9858       3    9837    9855       3
    9831    9852       3    9828    9846       3    9813    9834       3    9807
    9825       3   10161   10167       1   10161   10170       1   10161   10173
       1   10149   10158       1   10149   10164       1   10146   10152       1
   10146   10155       1   10131   10140       1   10131   10143       1   10122
   10134       1   10122   10137       1   10113   10125       1   10113   10128
       1   10104   10116       1   10104   10119       1   10092   10107       1
   10092   10110       1   10083   10101       3   10074   10095       1   10074
   10098       1   10068   10089       3   10062   10086       3   10059   10077
       1   10059   10080       1   10056   10071       3   10053   10065       3
   10032   10050       3   10029   10047       3   10023   10044       3   10020
   10038       3   10005   10026       3    9999   10017       3   10353   10359
       1   10353   10362       1   10353   10365       1   10341   10350       1
   10341   10356       1   10338   10344       1   10338   10347       1   10323
   10332       1   10323   10335       1   10314   10326       1   10314   10329
       1   10305   10317       1   10305   10320       1   10296   10308       1
   10296   10311       1   10284   10299       1   10284   10302       1   10275
   10293       3   10266   10287       1   10266   10290       1   10260   10281
       3   10254   10278       3   10251   10269       1   10251   10272       1
   10248   10263       3   10245   10257       3   10224   10242       3   10221
   10239       3   10215   10236       3   10212   10230       3   10197   10218
       3   10191   10209       3   10545   10551       1   10545   10554       1
   10545   10557       1   10533   10542       1   10533   10548       1   10530
   10536       1   10530   10539       1   10515   10524       1   10515   10527
       1   10506   10518       1   10506   10521       1   10497   10509       1
   10497   10512       1   10488   10500       1   10488   10503       1   10476
   10491       1   10476   10494       1   10467   10485       3   10458   10479
       1   10458   10482       1   10452   10473       3   10446   10470       3
   10443   10461       1   10443   10464       1   10440   10455       3   10437
   10449       3   10416   10434       3   10413   10431       3   10407   10428
       3   10404   10422       3   10389   10410       3   10383   10401       3
   10737   10743       1   10737   10746       1   10737   10749       1   10725
   10734       1   10725   10740       1   10722   10728       1   10722   10731
       1   10707   10716       1   10707   10719       1   10698   10710       1
   10698   10713       1   10689   10701       1   10689   10704       1   10680
   10692       1   10680   10695       1   10668   10683       1   10668   10686
       1   10659   10677       3   10650   10671       1   10650   10674       1
   10644   10665       3   10638   10662       3   10635   10653       1   10635
   10656       1   10632   10647       3   10629   10641       3   10608   10626
       3   10605   10623       3   10599   10620       3   10596   10614       3
   10581   10602       3   10575   10593       3   10929   10935       1   10929
   10938       1   10929   10941       1   10917   10926       1   10917   10932
       1   10914   10920       1   10914   10923       1   10899   10908       1
   10899   10911       1   10890   10902       1   10890   10905       1   10881
   10893       1   10881   10896       1   10872   10884       1   10872   10887
       1   10860   10875       1   10860   10878       1   10851   10869       3
   10842   10863       1   10842   10866       1   10836   10857       3   10830
   10854       3   10827   10845       1   10827   10848       1   10824   10839
       3   10821   10833       3   10800   10818       3   10797   10815       3
   10791   10812       3   10788   10806       3   10773   10794       3   10767
   10785       3   11121   11127       1   11121   11130       1   11121   11133
       1   11109   11118       1   11109   11124       1   11106   11112       1
   11106   11115       1   11091   11100       1   11091   11103       1   11082
   11094       1   11082   11097       1   11073   11085       1   11073   11088
       1   11064   11076       1   11064   11079       1   11052   11067       1
   11052   11070       1   11043   11061       3   11034   11055       1   11034
   11058       1   11028   11049       3   11022   11046       3   11019   11037
       1   11019   11040       1   11016   11031       3   11013   11025       3
   10992   11010       3   10989   11007       3   10983   11004       3   10980
   10998       3   10965   10986       3   10959   10977       3   11313   11319
       1   11313   11322       1   11313   11325       1   11301   11310       1
   11301   11316       1   11298   11304       1   11298   11307       1   11283
   11292       1   11283   11295       1   11274   11286       1   11274   11289
       1   11265   11277       1   11265   11280       1   11256   11268       1
   11256   11271       1   11244   11259       1   11244   11262       1   11235
   11253       3   11226   11247       1   11226   11250       1   11220   11241
       3   11214   11238       3   11211   11229       1   11211   11232       1
   11208   11223       3   11205   11217       3   11184   11202       3   11181
   11199       3   11175   11196       3   11172   11190       3   11157   11178
       3   11151   11169       3   11505   11511       1   11505   11514       1
   11505   11517       1   11493   11502       1   11493   11508       1   11490
   11496       1   11490   11499       1   11475   11484       1   11475   11487
       1   11466   11478       1   11466   11481       1   11457   11469       1
   11457   11472       1   11448   11460       1   11448   11463       1   11436
   11451       1   11436   11454       1   11427   11445       3   11418   11439
       1   11418   11442       1   11412   11433       3   11406   11430       3
   11403   11421       1   11403   11424       1   11400   11415       3   11397
   11409       3   11376   11394       3   11373   11391       3   11367   11388
       3   11364   11382       3   11349   11370       3   11343   11361       3
   11697   11703       1   11697   11706       1   11697   11709       1   11685
   11694       1   11685   11700       1   11682   11688       1   11682   11691
       1   11667   11676       1   11667   11679       1   11658   11670       1
   11658   11673       1   11649   11661       1   11649   11664       1   11640
   11652       1   11640   11655       1   11628   11643       1   11628   11646
       1   11619   11637       3   11610   11631       1   11610   11634       1
   11604   11625       3   11598   11622       3   11595   11613       1   11595
   11616       1   11592   11607       3   11589   11601       3   11568   11586
       3   11565   11583       3   11559   11580       3   11556   11574       3
   11541   11562       3   11535   11553       3   11889   11895       1   11889
   11898       1   11889   11901       1   11877   11886       1   11877   11892
       1   11874   11880       1   11874   11883       1   11859   11868       1
   11859   11871       1   11850   11862       1   11850   11865       1   11841
   11853       1   11841   11856       1   11832   11844       1   11832   11847
       1   11820   11835       1   11820   11838       1   11811   11829       3
   11802   11823       1   11802   11826       1   11796   11817       3   11790
   11814       3   11787   11805       1   11787   11808       1   11784   11799
       3   11781   11793       3   11760   11778       3   11757   11775       3
   11751   11772       3   11748   11766       3   11733   11754       3   11727
   11745       3   12081   12087       1   12081   12090       1   12081   12093
       1   12069   12078       1   12069   12084       1   12066   12072       1
   12066   12075       1   12051   12060       1   12051   12063       1   12042
   12054       1   12042   12057       1   12033   12045       1   12033   12048
       1   12024   12036       1   12024   12039       1   12012   12027       1
   12012   12030       1   12003   12021       3   11994   12015       1   11994
   12018       1   11988   12009       3   11982   12006       3   11979   11997
       1   11979   12000       1   11976   11991       3   11973   11985       3
   11952   11970       3   11949   11967       3   11943   11964       3   11940
   11958       3   11925   11946       3   11919   11937       3   12273   12279
       1   12273   12282       1   12273   12285       1   12261   12270       1
   12261   12276       1   12258   12264       1   12258   12267       1   12243
   12252       1   12243   12255       1   12234   12246       1   12234   12249
       1   12225   12237       1   12225   12240       1   12216   12228       1
   12216   12231       1   12204   12219       1   12204   12222       1   12195
   12213       3   12186   12207       1   12186   12210       1   12180   12201
       3   12174   12198       3   12171   12189       1   12171   12192       1
   12168   12183       3   12165   12177       3   12144   12162       3   12141
   12159       3   12135   12156       3   12132   12150       3   12117   12138
       3   12111   12129       3   12465   12471       1   12465   12474       1
   12465   12477       1   12453   12462       1   12453   12468       1   12450
   12456       1   12450   12459       1   12435   12444       1   12435   12447
       1   12426   12438       1   12426   12441       1   12417   12429       1
   12417   12432       1   12408   12420       1   12408   12423       1   12396
   12411       1   12396   12414       1   12387   12405       3   12378   12399
       1   12378   12402       1   12372   12393       3   12366   12390       3
   12363   12381       1   12363   12384       1   12360   12375       3   12357
   12369       3   12336   12354       3   12333   12351       3   12327   12348
       3   12324   12342       3   12309   12330       3   12303   12321       3
   12657   12663       1   12657   12666       1   12657   12669       1   12645
   12654       1   12645   12660       1   12642   12648       1   12642   12651
       1   12627   12636       1   12627   12639       1   12618   12630       1
   12618   12633       1   12609   12621       1   12609   12624       1   12600
   12612       1   12600   12615       1   12588   12603       1   12588   12606
       1   12579   12597       3   12570   12591       1   12570   12594       1
   12564   12585       3   12558   12582       3   12555   12573       1   12555
   12576       1   12552   12567       3   12549   12561       3   12528   12546
       3   12525   12543       3   12519   12540       3   12516   12534       3
   12501   12522       3   12495   12513       3   12849   12855       1   12849
   12858       1   12849   12861       1   12837   12846       1   12837   12852
       1   12834   12840       1   12834   12843       1   12819   12828       1
   12819   12831       1   12810   12822       1   12810   12825       1   12801
   12813       1   12801   12816       1   12792   12804       1   12792   12807
       1   12780   12795       1   12780   12798       1   12771   12789       3
   12762   12783       1   12762   12786       1   12756   12777       3   12750
   12774       3   12747   12765       1   12747   12768       1   12744   12759
       3   12741   12753       3   12720   12738       3   12717   12735       3
   12711   12732       3   12708   12726       3   12693   12714       3   12687
   12705       3   13041   13047       1   13041   13050       1   13041   13053
       1   13029   13038       1   13029   13044       1   13026   13032       1
   13026   13035       1   13011   13020       1   13011   13023       1   13002
   13014       1   13002   13017       1   12993   13005       1   12993   13008
       1   12984   12996       1   12984   12999       1   12972   12987       1
   12972   12990       1   12963   12981       3   12954   12975       1   12954
   12978       1   12948   12969       3   12942   12966       3   12939   12957
       1   12939   12960       1   12936   12951       3   12933   12945       3
   12912   12930       3   12909   12927       3   12903   12924       3   12900
   12918       3   12885   12906       3   12879   12897       3   13233   13239
       1   13233   13242       1   13233   13245       1   13221   13230       1
   13221   13236       1   13218   13224       1   13218   13227       1   13203
   13212       1   13203   13215       1   13194   13206       1   13194   13209
       1   13185   13197       1   13185   13200       1   13176   13188       1
   13176   13191       1   13164   13179       1   13164   13182       1   13155
   13173       3   13146   13167       1   13146   13170       1   13140   13161
       3   13134   13158       3   13131   13149       1   13131   13152       1
   13128   13143       3   13125   13137       3   13104   13122       3   13101
   13119       3   13095   13116       3   13092   13110       3   13077   13098
       3   13071   13089       3   13425   13431       1   13425   13434       1
   13425   13437       1   13413   13422       1   13413   13428       1   13410
   13416       1   13410   13419       1   13395   13404       1   13395   13407
       1   13386   13398       1   13386   13401       1   13377   13389       1
   13377   13392       1   13368   13380       1   13368   13383       1   13356
   13371       1   13356   13374       1   13347   13365       3   13338   13359
       1   13338   13362       1   13332   13353       3   13326   13350       3
   13323   13341       1   13323   13344       1   13320   13335       3   13317
   13329       3   13296   13314       3   13293   13311       3   13287   13308
       3   13284   13302       3   13269   13290       3   13263   13281       3
   13617   13623       1   13617   13626       1   13617   13629       1   13605
   13614       1   13605   13620       1   13602   13608       1   13602   13611
       1   13587   13596       1   13587   13599       1   13578   13590       1
   13578   13593       1   13569   13581       1   13569   13584       1   13560
   13572       1   13560   13575       1   13548   13563       1   13548   13566
       1   13539   13557       3   13530   13551       1   13530   13554       1
   13524   13545       3   13518   13542       3   13515   13533       1   13515
   13536       1   13512   13527       3   13509   13521       3   13488   13506
       3   13485   13503       3   13479   13500       3   13476   13494       3
   13461   13482       3   13455   13473       3   13809   13815       1   13809
   13818       1   13809   13821       1   13797   13806       1   13797   13812
       1   13794   13800       1   13794   13803       1   13779   13788       1
   13779   13791       1   13770   13782       1   13770   13785       1   13761
   13773       1   13761   13776       1   13752   13764       1   13752   13767
       1   13740   13755       1   13740   13758       1   13731   13749       3
   13722   13743       1   13722   13746       1   13716   13737       3   13710
   13734       3   13707   13725       1   13707   13728       1   13704   13719
       3   13701   13713       3   13680   13698       3   13677   13695       3
   13671   13692       3   13668   13686       3   13653   13674       3   13647
   13665       3   14001   14007       1   14001   14010       1   14001   14013
       1   13989   13998       1   13989   14004       1   13986   13992       1
   13986   13995       1   13971   13980       1   13971   13983       1   13962
   13974       1   13962   13977       1   13953   13965       1   13953   13968
       1   13944   13956       1   13944   13959       1   13932   13947       1
   13932   13950       1   13923   13941       3   13914   13935       1   13914
   13938       1   13908   13929       3   13902   13926       3   13899   13917
       1   13899   13920       1   13896   13911       3   13893   13905       3
   13872   13890       3   13869   13887       3   13863   13884       3   13860
   13878       3   13845   13866       3   13839   13857       3   14193   14199
       1   14193   14202       1   14193   14205       1   14181   14190       1
   14181   14196       1   14178   14184       1   14178   14187       1   14163
   14172       1   14163   14175       1   14154   14166       1   14154   14169
       1   14145   14157       1   14145   14160       1   14136   14148       1
   14136   14151       1   14124   14139       1   14124   14142       1   14115
   14133       3   14106   14127       1   14106   14130       1   14100   14121
       3   14094   14118       3   14091   14109       1   14091   14112       1
   14088   14103       3   14085   14097       3   14064   14082       3   14061
   14079       3   14055   14076       3   14052   14070       3   14037   14058
       3   14031   14049       3   14385   14391       1   14385   14394       1
   14385   14397       1   14373   14382       1   14373   14388       1   14370
   14376       1   14370   14379       1   14355   14364       1   14355   14367
       1   14346   14358       1   14346   14361       1   14337   14349       1
   14337   14352       1   14328   14340       1   14328   14343       1   14316
   14331       1   14316   14334       1   14307   14325       3   14298   14319
       1   14298   14322       1   14292   14313       3   14286   14310       3
   14283   14301       1   14283   14304       1   14280   14295       3   14277
   14289       3   14256   14274       3   14253   14271       3   14247   14268
       3   14244   14262       3   14229   14250       3   14223   14241       3
   14577   14583       1   14577   14586       1   14577   14589       1   14565
   14574       1   14565   14580       1   14562   14568       1   14562   14571
       1   14547   14556       1   14547   14559       1   14538   14550       1
   14538   14553       1   14529   14541       1   14529   14544       1   14520
   14532       1   14520   14535       1   14508   14523       1   14508   14526
       1   14499   14517       3   14490   14511       1   14490   14514       1
   14484   14505       3   14478   14502       3   14475   14493       1   14475
   14496       1   14472   14487       3   14469   14481       3   14448   14466
       3   14445   14463       3   14439   14460       3   14436   14454       3
   14421   14442       3   14415   14433       3   14769   14775       1   14769
   14778       1   14769   14781       1   14757   14766       1   14757   14772
       1   14754   14760       1   14754   14763       1   14739   14748       1
   14739   14751       1   14730   14742       1   14730   14745       1   14721
   14733       1   14721   14736       1   14712   14724       1   14712   14727
       1   14700   14715       1   14700   14718       1   14691   14709       3
   14682   14703       1   14682   14706       1   14676   14697       3   14670
   14694       3   14667   14685       1   14667   14688       1   14664   14679
       3   14661   14673       3   14640   14658       3   14637   14655       3
   14631   14652       3   14628   14646       3   14613   14634       3   14607
   14625       3   14961   14967       1   14961   14970       1   14961   14973
       1   14949   14958       1   14949   14964       1   14946   14952       1
   14946   14955       1   14931   14940       1   14931   14943       1   14922
   14934       1   14922   14937       1   14913   14925       1   14913   14928
       1   14904   14916       1   14904   14919       1   14892   14907       1
   14892   14910       1   14883   14901       3   14874   14895       1   14874
   14898       1   14868   14889       3   14862   14886       3   14859   14877
       1   14859   14880       1   14856   14871       3   14853   14865       3
   14832   14850       3   14829   14847       3   14823   14844       3   14820
   14838       3   14805   14826       3   14799   14817       3   15153   15159
       1   15153   15162       1   15153   15165       1   15141   15150       1
   15141   15156       1   15138   15144       1   15138   15147       1   15123
   15132       1   15123   15135       1   15114   15126       1   15114   15129
       1   15105   15117       1   15105   15120       1   15096   15108       1
   15096   15111       1   15084   15099       1   15084   15102       1   15075
   15093       3   15066   15087       1   15066   15090       1   15060   15081
       3   15054   15078       3   15051   15069       1   15051   15072       1
   15048   15063       3   15045   15057       3   15024   15042       3   15021
   15039       3   15015   15036       3   15012   15030       3   14997   15018
       3   14991   15009       3   15345   15351       1   15345   15354       1
   15345   15357       1   15333   15342       1   15333   15348       1   15330
   15336       1   15330   15339       1   15315   15324       1   15315   15327
       1   15306   15318       1   15306   15321       1   15297   15309       1
   15297   15312       1   15288   15300       1   15288   15303       1   15276
   15291       1   15276   15294       1   15267   15285       3   15258   15279
       1   15258   15282       1   15252   15273       3   15246   15270       3
   15243   15261       1   15243   15264       1   15240   15255       3   15237
   15249       3   15216   15234       3   15213   15231       3   15207   15228
       3   15204   15222       3   15189   15210       3   15183   15201       3
   15537   15543       1   15537   15546       1   15537   15549       1   15525
   15534       1   15525   15540       1   15522   15528       1   15522   15531
       1   15507   15516       1   15507   15519       1   15498   15510       1
   15498   15513       1   15489   15501       1   15489   15504       1   15480
   15492       1   15480   15495       1   15468   15483       1   15468   15486
       1   15459   15477       3   15450   15471       1   15450   15474       1
   15444   15465       3   15438   15462       3   15435   15453       1   15435
   15456       1   15432   15447       3   15429   15441       3   15408   15426
       3   15405   15423       3   15399   15420       3   15396   15414       3
   15381   15402       3   15375   15393       3   15729   15735       1   15729
   15738       1   15729   15741       1   15717   15726       1   15717   15732
       1   15714   15720       1   15714   15723       1   15699   15708       1
   15699   15711       1   15690   15702       1   15690   15705       1   15681
   15693       1   15681   15696       1   15672   15684       1   15672   15687
       1   15660   15675       1   15660   15678       1   15651   15669       3
   15642   15663       1   15642   15666       1   15636   15657       3   15630
   15654       3   15627   15645       1   15627   15648       1   15624   15639
       3   15621   15633       3   15600   15618       3   15597   15615       3
   15591   15612       3   15588   15606       3   15573   15594       3   15567
   15585       3   15921   15927       1   15921   15930       1   15921   15933
       1   15909   15918       1   15909   15924       1   15906   15912       1
   15906   15915       1   15891   15900       1   15891   15903       1   15882
   15894       1   15882   15897       1   15873   15885       1   15873   15888
       1   15864   15876       1   15864   15879       1   15852   15867       1
   15852   15870       1   15843   15861       3   15834   15855       1   15834
   15858       1   15828   15849       3   15822   15846       3   15819   15837
       1   15819   15840       1   15816   15831       3   15813   15825       3
   15792   15810       3   15789   15807       3   15783   15804       3   15780
   15798       3   15765   15786       3   15759   15777       3   16113   16119
       1   16113   16122       1   16113   16125       1   16101   16110       1
   16101   16116       1   16098   16104       1   16098   16107       1   16083
   16092       1   16083   16095       1   16074   16086       1   16074   16089
       1   16065   16077       1   16065   16080       1   16056   16068       1
   16056   16071       1   16044   16059       1   16044   16062       1   16035
   16053       3   16026   16047       1   16026   16050       1   16020   16041
       3   16014   16038       3   16011   16029       1   16011   16032       1
   16008   16023       3   16005   16017       3   15984   16002       3   15981
   15999       3   15975   15996       3   15972   15990       3   15957   15978
       3   15951   15969       3   16305   16311       1   16305   16314       1
   16305   16317       1   16293   16302       1   16293   16308       1   16290
   16296       1   16290   16299       1   16275   16284       1   16275   16287
       1   16266   16278       1   16266   16281       1   16257   16269       1
   16257   16272       1   16248   16260       1   16248   16263       1   16236
   16251       1   16236   16254       1   16227   16245       3   16218   16239
       1   16218   16242       1   16212   16233       3   16206   16230       3
   16203   16221       1   16203   16224       1   16200   16215       3   16197
   16209       3   16176   16194       3   16173   16191       3   16167   16188
       3   16164   16182       3   16149   16170       3   16143   16161       3
   16497   16503       1   16497   16506       1   16497   16509       1   16485
   16494       1   16485   16500       1   16482   16488       1   16482   16491
       1   16467   16476       1   16467   16479       1   16458   16470       1
   16458   16473       1   16449   16461       1   16449   16464       1   16440
   16452       1   16440   16455       1   16428   16443       1   16428   16446
       1   16419   16437       3   16410   16431       1   16410   16434       1
   16404   16425       3   16398   16422       3   16395   16413       1   16395
   16416       1   16392   16407       3   16389   16401       3   16368   16386
       3   16365   16383       3   16359   16380       3   16356   16374       3
   16341   16362       3   16335   16353       3   16689   16695       1   16689
   16698       1   16689   16701       1   16677   16686       1   16677   16692
       1   16674   16680       1   16674   16683       1   16659   16668       1
   16659   16671       1   16650   16662       1   16650   16665       1   16641
   16653       1   16641   16656       1   16632   16644       1   16632   16647
       1   16620   16635       1   16620   16638       1   16611   16629       3
   16602   16623       1   16602   16626       1   16596   16617       3   16590
   16614       3   16587   16605       1   16587   16608       1   16584   16599
       3   16581   16593       3   16560   16578       3   16557   16575       3
   16551   16572       3   16548   16566       3   16533   16554       3   16527
   16545       3   16881   16887       1   16881   16890       1   16881   16893
       1   16869   16878       1   16869   16884       1   16866   16872       1
   16866   16875       1   16851   16860       1   16851   16863       1   16842
   16854       1   16842   16857       1   16833   16845       1   16833   16848
       1   16824   16836       1   16824   16839       1   16812   16827       1
   16812   16830       1   16803   16821       3   16794   16815       1   16794
   16818       1   16788   16809       3   16782   16806       3   16779   16797
       1   16779   16800       1   16776   16791       3   16773   16785       3
   16752   16770       3   16749   16767       3   16743   16764       3   16740
   16758       3   16725   16746       3   16719   16737       3   17073   17079
       1   17073   17082       1   17073   17085       1   17061   17070       1
   17061   17076       1   17058   17064       1   17058   17067       1   17043
   17052       1   17043   17055       1   17034   17046       1   17034   17049
       1   17025   17037       1   17025   17040       1   17016   17028       1
   17016   17031       1   17004   17019       1   17004   17022       1   16995
   17013       3   16986   17007       1   16986   17010       1   16980   17001
       3   16974   16998       3   16971   16989       1   16971   16992       1
   16968   16983       3   16965   16977       3   16944   16962       3   16941
   16959       3   16935   16956       3   16932   16950       3   16917   16938
       3   16911   16929       3   17265   17271       1   17265   17274       1
   17265   17277       1   17253   17262       1   17253   17268       1   17250
   17256       1   17250   17259       1   17235   17244       1   17235   17247
       1   17226   17238       1   17226   17241       1   17217   17229       1
   17217   17232       1   17208   17220       1   17208   17223       1   17196
   17211       1   17196   17214       1   17187   17205       3   17178   17199
       1   17178   17202       1   17172   17193       3   17166   17190       3
   17163   17181       1   17163   17184       1   17160   17175       3   17157
   17169       3   17136   17154       3   17133   17151       3   17127   17148
       3   17124   17142       3   17109   17130       3   17103   17121       3
   17457   17463       1   17457   17466       1   17457   17469       1   17445
   17454       1   17445   17460       1   17442   17448       1   17442   17451
       1   17427   17436       1   17427   17439       1   17418   17430       1
   17418   17433       1   17409   17421       1   17409   17424       1   17400
   17412       1   17400   17415       1   17388   17403       1   17388   17406
       1   17379   17397       3   17370   17391       1   17370   17394       1
   17364   17385       3   17358   17382       3   17355   17373       1   17355
   17376       1   17352   17367       3   17349   17361       3   17328   17346
       3   17325   17343       3   17319   17340       3   17316   17334       3
   17301   17322       3   17295   17313       3   17649   17655       1   17649
   17658       1   17649   17661       1   17637   17646       1   17637   17652
       1   17634   17640       1   17634   17643       1   17619   17628       1
   17619   17631       1   17610   17622       1   17610   17625       1   17601
   17613       1   17601   17616       1   17592   17604       1   17592   17607
       1   17580   17595       1   17580   17598       1   17571   17589       3
   17562   17583       1   17562   17586       1   17556   17577       3   17550
   17574       3   17547   17565       1   17547   17568       1   17544   17559
       3   17541   17553       3   17520   17538       3   17517   17535       3
   17511   17532       3   17508   17526       3   17493   17514       3   17487
   17505       3   17841   17847       1   17841   17850       1   17841   17853
       1   17829   17838       1   17829   17844       1   17826   17832       1
   17826   17835       1   17811   17820       1   17811   17823       1   17802
   17814       1   17802   17817       1   17793   17805       1   17793   17808
       1   17784   17796       1   17784   17799       1   17772   17787       1
   17772   17790       1   17763   17781       3   17754   17775       1   17754
   17778       1   17748   17769       3   17742   17766       3   17739   17757
       1   17739   17760       1   17736   17751       3   17733   17745       3
   17712   17730       3   17709   17727       3   17703   17724       3   17700
   17718       3   17685   17706       3   17679   17697       3   18033   18039
       1   18033   18042       1   18033   18045       1   18021   18030       1
   18021   18036       1   18018   18024       1   18018   18027       1   18003
   18012       1   18003   18015       1   17994   18006       1   17994   18009
       1   17985   17997       1   17985   18000       1   17976   17988       1
   17976   17991       1   17964   17979       1   17964   17982       1   17955
   17973       3   17946   17967       1   17946   17970       1   17940   17961
       3   17934   17958       3   17931   17949       1   17931   17952       1
   17928   17943       3   17925   17937       3   17904   17922       3   17901
   17919       3   17895   17916       3   17892   17910       3   17877   17898
       3   17871   17889       3   18225   18231       1   18225   18234       1
   18225   18237       1   18213   18222       1   18213   18228       1   18210
   18216       1   18210   18219       1   18195   18204       1   18195   18207
       1   18186   18198       1   18186   18201       1   18177   18189       1
   18177   18192       1   18168   18180       1   18168   18183       1   18156
   18171       1   18156   18174       1   18147   18165       3   18138   18159
       1   18138   18162       1   18132   18153       3   18126   18150       3
   18123   18141       1   18123   18144       1   18120   18135       3   18117
   18129       3   18096   18114       3   18093   18111       3   18087   18108
       3   18084   18102       3   18069   18090       3   18063   18081       3
   18417   18423       1   18417   18426       1   18417   18429       1   18405
   18414       1   18405   18420       1   18402   18408       1   18402   18411
       1   18387   18396       1   18387   18399       1   18378   18390       1
   18378   18393       1   18369   18381       1   18369   18384       1   18360
   18372       1   18360   18375       1   18348   18363       1   18348   18366
       1   18339   18357       3   18330   18351       1   18330   18354       1
   18324   18345       3   18318   18342       3   18315   18333       1   18315
   18336       1   18312   18327       3   18309   18321       3   18288   18306
       3   18285   18303       3   18279   18300       3   18276   18294       3
   18261   18282       3   18255   18273       3   18609   18615       1   18609
   18618       1   18609   18621       1   18597   18606       1   18597   18612
       1   18594   18600       1   18594   18603       1   18579   18588       1
   18579   18591       1   18570   18582       1   18570   18585       1   18561
   18573       1   18561   18576       1   18552   18564       1   18552   18567
       1   18540   18555       1   18540   18558       1   18531   18549       3
   18522   18543       1   18522   18546       1   18516   18537       3   18510
   18534       3   18507   18525       1   18507   18528       1   18504   18519
       3   18501   18513       3   18480   18498       3   18477   18495       3
   18471   18492       3   18468   18486       3   18453   18474       3   18447
   18465       3   18801   18807       1   18801   18810       1   18801   18813
       1   18789   18798       1   18789   18804       1   18786   18792       1
   18786   18795       1   18771   18780       1   18771   18783       1   18762
   18774       1   18762   18777       1   18753   18765       1   18753   18768
       1   18744   18756       1   18744   18759       1   18732   18747       1
   18732   18750       1   18723   18741       3   18714   18735       1   18714
   18738       1   18708   18729       3   18702   18726       3   18699   18717
       1   18699   18720       1   18696   18711       3   18693   18705       3
   18672   18690       3   18669   18687       3   18663   18684       3   18660
   18678       3   18645   18666       3   18639   18657       3   18993   18999
       1   18993   19002       1   18993   19005       1   18981   18990       1
   18981   18996       1   18978   18984       1   18978   18987       1   18963
   18972       1   18963   18975       1   18954   18966       1   18954   18969
       1   18945   18957       1   18945   18960       1   18936   18948       1
   18936   18951       1   18924   18939       1   18924   18942       1   18915
   18933       3   18906   18927       1   18906   18930       1   18900   18921
       3   18894   18918       3   18891   18909       1   18891   18912       1
   18888   18903       3   18885   18897       3   18864   18882       3   18861
   18879       3   18855   18876       3   18852   18870       3   18837   18858
       3   18831   18849       3   19185   19191       1   19185   19194       1
   19185   19197       1   19173   19182       1   19173   19188       1   19170
   19176       1   19170   19179       1   19155   19164       1   19155   19167
       1   19146   19158       1   19146   19161       1   19137   19149       1
   19137   19152       1   19128   19140       1   19128   19143       1   19116
   19131       1   19116   19134       1   19107   19125       3   19098   19119
       1   19098   19122       1   19092   19113       3   19086   19110       3
   19083   19101       1   19083   19104       1   19080   19095       3   19077
   19089       3   19056   19074       3   19053   19071       3   19047   19068
       3   19044   19062       3   19029   19050       3   19023   19041       3
   19377   19383       1   19377   19386       1   19377   19389       1   19365
   19374       1   19365   19380       1   19362   19368       1   19362   19371
       1   19347   19356       1   19347   19359       1   19338   19350       1
   19338   19353       1   19329   19341       1   19329   19344       1   19320
   19332       1   19320   19335       1   19308   19323       1   19308   19326
       1   19299   19317       3   19290   19311       1   19290   19314       1
   19284   19305       3   19278   19302       3   19275   19293       1   19275
   19296       1   19272   19287       3   19269   19281       3   19248   19266
       3   19245   19263       3   19239   19260       3   19236   19254       3
   19221   19242       3   19215   19233       3   19569   19575       1   19569
   19578       1   19569   19581       1   19557   19566       1   19557   19572
       1   19554   19560       1   19554   19563       1   19539   19548       1
   19539   19551       1   19530   19542       1   19530   19545       1   19521
   19533       1   19521   19536       1   19512   19524       1   19512   19527
       1   19500   19515       1   19500   19518       1   19491   19509       3
   19482   19503       1   19482   19506       1   19476   19497       3   19470
   19494       3   19467   19485       1   19467   19488       1   19464   19479
       3   19461   19473       3   19440   19458       3   19437   19455       3
   19431   19452       3   19428   19446       3   19413   19434       3   19407
   19425       3   19761   19767       1   19761   19770       1   19761   19773
       1   19749   19758       1   19749   19764       1   19746   19752       1
   19746   19755       1   19731   19740       1   19731   19743       1   19722
   19734       1   19722   19737       1   19713   19725       1   19713   19728
       1   19704   19716       1   19704   19719       1   19692   19707       1
   19692   19710       1   19683   19701       3   19674   19695       1   19674
   19698       1   19668   19689       3   19662   19686       3   19659   19677
       1   19659   19680       1   19656   19671       3   19653   19665       3
   19632   19650       3   19629   19647       3   19623   19644       3   19620
   19638       3   19605   19626       3   19599   19617       3   19953   19959
       1   19953   19962       1   19953   19965       1   19941   19950       1
   19941   19956       1   19938   19944       1   19938   19947       1   19923
   19932       1   19923   19935       1   19914   19926       1   19914   19929
       1   19905   19917       1   19905   19920       1   19896   19908       1
   19896   19911       1   19884   19899       1   19884   19902       1   19875
   19893       3   19866   19887       1   19866   19890       1   19860   19881
       3   19854   19878       3   19851   19869       1   19851   19872       1
   19848   19863       3   19845   19857       3   19824   19842       3   19821
   19839       3   19815   19836       3   19812   19830       3   19797   19818
       3   19791   19809       3   20145   20151       1   20145   20154       1
   20145   20157       1   20133   20142       1   20133   20148       1   20130
   20136       1   20130   20139       1   20115   20124       1   20115   20127
       1   20106   20118       1   20106   20121       1   20097   20109       1
   20097   20112       1   20088   20100       1   20088   20103       1   20076
   20091       1   20076   20094       1   20067   20085       3   20058   20079
       1   20058   20082       1   20052   20073       3   20046   20070       3
   20043   20061       1   20043   20064       1   20040   20055       3   20037
   20049       3   20016   20034       3   20013   20031       3   20007   20028
       3   20004   20022       3   19989   20010       3   19983   20001       3
   20337   20343       1   20337   20346       1   20337   20349       1   20325
   20334       1   20325   20340       1   20322   20328       1   20322   20331
       1   20307   20316       1   20307   20319       1   20298   20310       1
   20298   20313       1   20289   20301       1   20289   20304       1   20280
   20292       1   20280   20295       1   20268   20283       1   20268   20286
       1   20259   20277       3   20250   20271       1   20250   20274       1
   20244   20265       3   20238   20262       3   20235   20253       1   20235
   20256       1   20232   20247       3   20229   20241       3   20208   20226
       3   20205   20223       3   20199   20220       3   20196   20214       3
   20181   20202       3   20175   20193       3   20529   20535       1   20529
   20538       1   20529   20541       1   20517   20526       1   20517   20532
       1   20514   20520       1   20514   20523       1   20499   20508       1
   20499   20511       1   20490   20502       1   20490   20505       1   20481
   20493       1   20481   20496       1   20472   20484       1   20472   20487
       1   20460   20475       1   20460   20478       1   20451   20469       3
   20442   20463       1   20442   20466       1   20436   20457       3   20430
   20454       3   20427   20445       1   20427   20448       1   20424   20439
       3   20421   20433       3   20400   20418       3   20397   20415       3
   20391   20412       3   20388   20406       3   20373   20394       3   20367
   20385       3   20721   20727       1   20721   20730       1   20721   20733
       1   20709   20718       1   20709   20724       1   20706   20712       1
   20706   20715       1   20691   20700       1   20691   20703       1   20682
   20694       1   20682   20697       1   20673   20685       1   20673   20688
       1   20664   20676       1   20664   20679       1   20652   20667       1
   20652   20670       1   20643   20661       3   20634   20655       1   20634
   20658       1   20628   20649       3   20622   20646       3   20619   20637
       1   20619   20640       1   20616   20631       3   20613   20625       3
   20592   20610       3   20589   20607       3   20583   20604       3   20580
   20598       3   20565   20586       3   20559   20577       3   20913   20919
       1   20913   20922       1   20913   20925       1   20901   20910       1
   20901   20916       1   20898   20904       1   20898   20907       1   20883
   20892       1   20883   20895       1   20874   20886       1   20874   20889
       1   20865   20877       1   20865   20880       1   20856   20868       1
   20856   20871       1   20844   20859       1   20844   20862       1   20835
   20853       3   20826   20847       1   20826   20850       1   20820   20841
       3   20814   20838       3   20811   20829       1   20811   20832       1
   20808   20823       3   20805   20817       3   20784   20802       3   20781
   20799       3   20775   20796       3   20772   20790       3   20757   20778
       3   20751   20769       3   21105   21111       1   21105   21114       1
   21105   21117       1   21093   21102       1   21093   21108       1   21090
   21096       1   21090   21099       1   21075   21084       1   21075   21087
       1   21066   21078       1   21066   21081       1   21057   21069       1
   21057   21072       1   21048   21060       1   21048   21063       1   21036
   21051       1   21036   21054       1   21027   21045       3   21018   21039
       1   21018   21042       1   21012   21033       3   21006   21030       3
   21003   21021       1   21003   21024       1   21000   21015       3   20997
   21009       3   20976   20994       3   20973   20991       3   20967   20988
       3   20964   20982       3   20949   20970       3   20943   20961       3
   21297   21303       1   21297   21306       1   21297   21309       1   21285
   21294       1   21285   21300       1   21282   21288       1   21282   21291
       1   21267   21276       1   21267   21279       1   21258   21270       1
   21258   21273       1   21249   21261       1   21249   21264       1   21240
   21252       1   21240   21255       1   21228   21243       1   21228   21246
       1   21219   21237       3   21210   21231       1   21210   21234       1
   21204   21225       3   21198   21222       3   21195   21213       1   21195
   21216       1   21192   21207       3   21189   21201       3   21168   21186
       3   21165   21183       3   21159   21180       3   21156   21174       3
   21141   21162       3   21135   21153       3   21489   21495       1   21489
   21498       1   21489   21501       1   21477   21486       1   21477   21492
       1   21474   21480       1   21474   21483       1   21459   21468       1
   21459   21471       1   21450   21462       1   21450   21465       1   21441
   21453       1   21441   21456       1   21432   21444       1   21432   21447
       1   21420   21435       1   21420   21438       1   21411   21429       3
   21402   21423       1   21402   21426       1   21396   21417       3   21390
   21414       3   21387   21405       1   21387   21408       1   21384   21399
       3   21381   21393       3   21360   21378       3   21357   21375       3
   21351   21372       3   21348   21366       3   21333   21354       3   21327
   21345       3   21681   21687       1   21681   21690       1   21681   21693
       1   21669   21678       1   21669   21684       1   21666   21672       1
   21666   21675       1   21651   21660       1   21651   21663       1   21642
   21654       1   21642   21657       1   21633   21645       1   21633   21648
       1   21624   21636       1   21624   21639       1   21612   21627       1
   21612   21630       1   21603   21621       3   21594   21615       1   21594
   21618       1   21588   21609       3   21582   21606       3   21579   21597
       1   21579   21600       1   21576   21591       3   21573   21585       3
   21552   21570       3   21549   21567       3   21543   21564       3   21540
   21558       3   21525   21546       3   21519   21537       3   21873   21879
       1   21873   21882       1   21873   21885       1   21861   21870       1
   21861   21876       1   21858   21864       1   21858   21867       1   21843
   21852       1   21843   21855       1   21834   21846       1   21834   21849
       1   21825   21837       1   21825   21840       1   21816   21828       1
   21816   21831       1   21804   21819       1   21804   21822       1   21795
   21813       3   21786   21807       1   21786   21810       1   21780   21801
       3   21774   21798       3   21771   21789       1   21771   21792       1
   21768   21783       3   21765   21777       3   21744   21762       3   21741
   21759       3   21735   21756       3   21732   21750       3   21717   21738
       3   21711   21729       3   22065   22071       1   22065   22074       1
   22065   22077       1   22053   22062       1   22053   22068       1   22050
   22056       1   22050   22059       1   22035   22044       1   22035   22047
       1   22026   22038       1   22026   22041       1   22017   22029       1
   22017   22032       1   22008   22020       1   22008   22023       1   21996
   22011       1   21996   22014       1   21987   22005       3   21978   21999
       1   21978   22002       1   21972   21993       3   21966   21990       3
   21963   21981       1   21963   21984       1   21960   21975       3   21957
   21969       3   21936   21954       3   21933   21951       3   21927   21948
       3   21924   21942       3   21909   21930       3   21903   21921       3
   22257   22263       1   22257   22266       1   22257   22269       1   22245
   22254       1   22245   22260       1   22242   22248       1   22242   22251
       1   22227   22236       1   22227   22239       1   22218   22230       1
   22218   22233       1   22209   22221       1   22209   22224       1   22200
   22212       1   22200   22215       1   22188   22203       1   22188   22206
       1   22179   22197       3   22170   22191       1   22170   22194       1
   22164   22185       3   22158   22182       3   22155   22173       1   22155
   22176       1   22152   22167       3   22149   22161       3   22128   22146
       3   22125   22143       3   22119   22140       3   22116   22134       3
   22101   22122       3   22095   22113       3   22449   22455       1   22449
   22458       1   22449   22461       1   22437   22446       1   22437   22452
       1   22434   22440       1   22434   22443       1   22419   22428       1
   22419   22431       1   22410   22422       1   22410   22425       1   22401
   22413       1   22401   22416       1   22392   22404       1   22392   22407
       1   22380   22395       1   22380   22398       1   22371   22389       3
   22362   22383       1   22362   22386       1   22356   22377       3   22350
   22374       3   22347   22365       1   22347   22368       1   22344   22359
       3   22341   22353       3   22320   22338       3   22317   22335       3
   22311   22332       3   22308   22326       3   22293   22314       3   22287
   22305       3   22641   22647       1   22641   22650       1   22641   22653
       1   22629   22638       1   22629   22644       1   22626   22632       1
   22626   22635       1   22611   22620       1   22611   22623       1   22602
   22614       1   22602   22617       1   22593   22605       1   22593   22608
       1   22584   22596       1   22584   22599       1   22572   22587       1
   22572   22590       1   22563   22581       3   22554   22575       1   22554
   22578       1   22548   22569       3   22542   22566       3   22539   22557
       1   22539   22560       1   22536   22551       3   22533   22545       3
   22512   22530       3   22509   22527       3   22503   22524       3   22500
   22518       3   22485   22506       3   22479   22497       3   22833   22839
       1   22833   22842       1   22833   22845       1   22821   22830       1
   22821   22836       1   22818   22824       1   22818   22827       1   22803
   22812       1   22803   22815       1   22794   22806       1   22794   22809
       1   22785   22797       1   22785   22800       1   22776   22788       1
   22776   22791       1   22764   22779       1   22764   22782       1   22755
   22773       3   22746   22767       1   22746   22770       1   22740   22761
       3   22734   22758       3   22731   22749       1   22731   22752       1
   22728   22743       3   22725   22737       3   22704   22722       3   22701
   22719       3   22695   22716       3   22692   22710       3   22677   22698
       3   22671   22689       3   23025   23031       1   23025   23034       1
   23025   23037       1   23013   23022       1   23013   23028       1   23010
   23016       1   23010   23019       1   22995   23004       1   22995   23007
       1   22986   22998       1   22986   23001       1   22977   22989       1
   22977   22992       1   22968   22980       1   22968   22983       1   22956
   22971       1   22956   22974       1   22947   22965       3   22938   22959
       1   22938   22962       1   22932   22953       3   22926   22950       3
   22923   22941       1   22923   22944       1   22920   22935       3   22917
   22929       3   22896   22914       3   22893   22911       3   22887   22908
       3   22884   22902       3   22869   22890       3   22863   22881       3
   23217   23223       1   23217   23226       1   23217   23229       1   23205
   23214       1   23205   23220       1   23202   23208       1   23202   23211
       1   23187   23196       1   23187   23199       1   23178   23190       1
   23178   23193       1   23169   23181       1   23169   23184       1   23160
   23172       1   23160   23175       1   23148   23163       1   23148   23166
       1   23139   23157       3   23130   23151       1   23130   23154       1
   23124   23145       3   23118   23142       3   23115   23133       1   23115
   23136       1   23112   23127       3   23109   23121       3   23088   23106
       3   23085   23103       3   23079   23100       3   23076   23094       3
   23061   23082       3   23055   23073       3   23409   23415       1   23409
   23418       1   23409   23421       1   23397   23406       1   23397   23412
       1   23394   23400       1   23394   23403       1   23379   23388       1
   23379   23391       1   23370   23382       1   23370   23385       1   23361
   23373       1   23361   23376       1   23352   23364       1   23352   23367
       1   23340   23355       1   23340   23358       1   23331   23349       3
   23322   23343       1   23322   23346       1   23316   23337       3   23310
   23334       3   23307   23325       1   23307   23328       1   23304   23319
       3   23301   23313       3   23280   23298       3   23277   23295       3
   23271   23292       3   23268   23286       3   23253   23274       3   23247
   23265       3   23601   23607       1   23601   23610       1   23601   23613
       1   23589   23598       1   23589   23604       1   23586   23592       1
   23586   23595       1   23571   23580       1   23571   23583       1   23562
   23574       1   23562   23577       1   23553   23565       1   23553   23568
       1   23544   23556       1   23544   23559       1   23532   23547       1
   23532   23550       1   23523   23541       3   23514   23535       1   23514
   23538       1   23508   23529       3   23502   23526       3   23499   23517
       1   23499   23520       1   23496   23511       3   23493   23505       3
   23472   23490       3   23469   23487       3   23463   23484       3   23460
   23478       3   23445   23466       3   23439   23457       3   23793   23799
       1   23793   23802       1   23793   23805       1   23781   23790       1
   23781   23796       1   23778   23784       1   23778   23787       1   23763
   23772       1   23763   23775       1   23754   23766       1   23754   23769
       1   23745   23757       1   23745   23760       1   23736   23748       1
   23736   23751       1   23724   23739       1   23724   23742       1   23715
   23733       3   23706   23727       1   23706   23730       1   23700   23721
       3   23694   23718       3   23691   23709       1   23691   23712       1
   23688   23703       3   23685   23697       3   23664   23682       3   23661
   23679       3   23655   23676       3   23652   23670       3   23637   23658
       3   23631   23649       3   23985   23991       1   23985   23994       1
   23985   23997       1   23973   23982       1   23973   23988       1   23970
   23976       1   23970   23979       1   23955   23964       1   23955   23967
       1   23946   23958       1   23946   23961       1   23937   23949       1
   23937   23952       1   23928   23940       1   23928   23943       1   23916
   23931       1   23916   23934       1   23907   23925       3   23898   23919
       1   23898   23922       1   23892   23913       3   23886   23910       3
   23883   23901       1   23883   23904       1   23880   23895       3   23877
   23889       3   23856   23874       3   23853   23871       3   23847   23868
       3   23844   23862       3   23829   23850       3   23823   23841       3
   24177   24183       1   24177   24186       1   24177   24189       1   24165
   24174       1   24165   24180       1   24162   24168       1   24162   24171
       1   24147   24156       1   24147   24159       1   24138   24150       1
   24138   24153       1   24129   24141       1   24129   24144       1   24120
   24132       1   24120   24135       1   24108   24123       1   24108   24126
       1   24099   24117       3   24090   24111       1   24090   24114       1
   24084   24105       3   24078   24102       3   24075   24093       1   24075
   24096       1   24072   24087       3   24069   24081       3   24048   24066
       3   24045   24063       3   24039   24060       3   24036   24054       3
   24021   24042       3   24015   24033       3   24369   24375       1   24369
   24378       1   24369   24381       1   24357   24366       1   24357   24372
       1   24354   24360       1   24354   24363       1   24339   24348       1
   24339   24351       1   24330   24342       1   24330   24345       1   24321
   24333       1   24321   24336       1   24312   24324       1   24312   24327
       1   24300   24315       1   24300   24318       1   24291   24309       3
   24282   24303       1   24282   24306       1   24276   24297       3   24270
   24294       3   24267   24285       1   24267   24288       1   24264   24279
       3   24261   24273       3   24240   24258       3   24237   24255       3
   24231   24252       3   24228   24246       3   24213   24234       3   24207
   24225       3   24561   24567       1   24561   24570       1   24561   24573
       1   24549   24558       1   24549   24564       1   24546   24552       1
   24546   24555       1   24531   24540       1   24531   24543       1   24522
   24534       1   24522   24537       1   24513   24525       1   24513   24528
       1   24504   24516       1   24504   24519       1   24492   24507       1
   24492   24510       1   24483   24501       3   24474   24495       1   24474
   24498       1   24468   24489       3   24462   24486       3   24459   24477
       1   24459   24480       1   24456   24471       3   24453   24465       3
   24432   24450       3   24429   24447       3   24423   24444       3   24420
   24438       3   24405   24426       3   24399   24417       3   24753   24759
       1   24753   24762       1   24753   24765       1   24741   24750       1
   24741   24756       1   24738   24744       1   24738   24747       1   24723
   24732       1   24723   24735       1   24714   24726       1   24714   24729
       1   24705   24717       1   24705   24720       1   24696   24708       1
   24696   24711       1   24684   24699       1   24684   24702       1   24675
   24693       3   24666   24687       1   24666   24690       1   24660   24681
       3   24654   24678       3   24651   24669       1   24651   24672       1
   24648   24663       3   24645   24657       3   24624   24642       3   24621
   24639       3   24615   24636       3   24612   24630       3   24597   24618
       3   24591   24609       3   24945   24951       1   24945   24954       1
   24945   24957       1   24933   24942       1   24933   24948       1   24930
   24936       1   24930   24939       1   24915   24924       1   24915   24927
       1   24906   24918       1   24906   24921       1   24897   24909       1
   24897   24912       1   24888   24900       1   24888   24903       1   24876
   24891       1   24876   24894       1   24867   24885       3   24858   24879
       1   24858   24882       1   24852   24873       3   24846   24870       3
   24843   24861       1   24843   24864       1   24840   24855       3   24837
   24849       3   24816   24834       3   24813   24831       3   24807   24828
       3   24804   24822       3   24789   24810       3   24783   24801       3
   25137   25143       1   25137   25146       1   25137   25149       1   25125
   25134       1   25125   25140       1   25122   25128       1   25122   25131
       1   25107   25116       1   25107   25119       1   25098   25110       1
   25098   25113       1   25089   25101       1   25089   25104       1   25080
   25092       1   25080   25095       1   25068   25083       1   25068   25086
       1   25059   25077       3   25050   25071       1   25050   25074       1
   25044   25065       3   25038   25062       3   25035   25053       1   25035
   25056       1   25032   25047       3   25029   25041       3   25008   25026
       3   25005   25023       3   24999   25020       3   24996   25014       3
   24981   25002       3   24975   24993       3   25329   25335       1   25329
   25338       1   25329   25341       1   25317   25326       1   25317   25332
       1   25314   25320       1   25314   25323       1   25299   25308       1
   25299   25311       1   25290   25302       1   25290   25305       1   25281
   25293       1   25281   25296       1   25272   25284       1   25272   25287
       1   25260   25275       1   25260   25278       1   25251   25269       3
   25242   25263       1   25242   25266       1   25236   25257       3   25230
   25254       3   25227   25245       1   25227   25248       1   25224   25239
       3   25221   25233       3   25200   25218       3   25197   25215       3
   25191   25212       3   25188   25206       3   25173   25194       3   25167
   25185       3   25521   25527       1   25521   25530       1   25521   25533
       1   25509   25518       1   25509   25524       1   25506   25512       1
   25506   25515       1   25491   25500       1   25491   25503       1   25482
   25494       1   25482   25497       1   25473   25485       1   25473   25488
       1   25464   25476       1   25464   25479       1   25452   25467       1
   25452   25470       1   25443   25461       3   25434   25455       1   25434
   25458       1   25428   25449       3   25422   25446       3   25419   25437
       1   25419   25440       1   25416   25431       3   25413   25425       3
   25392   25410       3   25389   25407       3   25383   25404       3   25380
   25398       3   25365   25386       3   25359   25377       3   25713   25719
       1   25713   25722       1   25713   25725       1   25701   25710       1
   25701   25716       1   25698   25704       1   25698   25707       1   25683
   25692       1   25683   25695       1   25674   25686       1   25674   25689
       1   25665   25677       1   25665   25680       1   25656   25668       1
   25656   25671       1   25644   25659       1   25644   25662       1   25635
   25653       3   25626   25647       1   25626   25650       1   25620   25641
       3   25614   25638       3   25611   25629       1   25611   25632       1
   25608   25623       3   25605   25617       3   25584   25602       3   25581
   25599       3   25575   25596       3   25572   25590       3   25557   25578
       3   25551   25569       3   25905   25911       1   25905   25914       1
   25905   25917       1   25893   25902       1   25893   25908       1   25890
   25896       1   25890   25899       1   25875   25884       1   25875   25887
       1   25866   25878       1   25866   25881       1   25857   25869       1
   25857   25872       1   25848   25860       1   25848   25863       1   25836
   25851       1   25836   25854       1   25827   25845       3   25818   25839
       1   25818   25842       1   25812   25833       3   25806   25830       3
   25803   25821       1   25803   25824       1   25800   25815       3   25797
   25809       3   25776   25794       3   25773   25791       3   25767   25788
       3   25764   25782       3   25749   25770       3   25743   25761       3
   26097   26103       1   26097   26106       1   26097   26109       1   26085
   26094       1   26085   26100       1   26082   26088       1   26082   26091
       1   26067   26076       1   26067   26079       1   26058   26070       1
   26058   26073       1   26049   26061       1   26049   26064       1   26040
   26052       1   26040   26055       1   26028   26043       1   26028   26046
       1   26019   26037       3   26010   26031       1   26010   26034       1
   26004   26025       3   25998   26022       3   25995   26013       1   25995
   26016       1   25992   26007       3   25989   26001       3   25968   25986
       3   25965   25983       3   25959   25980       3   25956   25974       3
   25941   25962       3   25935   25953       3   26289   26295       1   26289
   26298       1   26289   26301       1   26277   26286       1   26277   26292
       1   26274   26280       1   26274   26283       1   26259   26268       1
   26259   26271       1   26250   26262       1   26250   26265       1   26241
   26253       1   26241   26256       1   26232   26244       1   26232   26247
       1   26220   26235       1   26220   26238       1   26211   26229       3
   26202   26223       1   26202   26226       1   26196   26217       3   26190
   26214       3   26187   26205       1   26187   26208       1   26184   26199
       3   26181   26193       3   26160   26178       3   26157   26175       3
   26151   26172       3   26148   26166       3   26133   26154       3   26127
   26145       3   26481   26487       1   26481   26490       1   26481   26493
       1   26469   26478       1   26469   26484       1   26466   26472       1
   26466   26475       1   26451   26460       1   26451   26463       1   26442
   26454       1   26442   26457       1   26433   26445       1   26433   26448
       1   26424   26436       1   26424   26439       1   26412   26427       1
   26412   26430       1   26403   26421       3   26394   26415       1   26394
   26418       1   26388   26409       3   26382   26406       3   26379   26397
       1   26379   26400       1   26376   26391       3   26373   26385       3
   26352   26370       3   26349   26367       3   26343   26364       3   26340
   26358       3   26325   26346       3   26319   26337       3   26673   26679
       1   26673   26682       1   26673   26685       1   26661   26670       1
   26661   26676       1   26658   26664       1   26658   26667       1   26643
   26652       1   26643   26655       1   26634   26646       1   26634   26649
       1   26625   26637       1   26625   26640       1   26616   26628       1
   26616   26631       1   26604   26619       1   26604   26622       1   26595
   26613       3   26586   26607       1   26586   26610       1   26580   26601
       3   26574   26598       3   26571   26589       1   26571   26592       1
   26568   26583       3   26565   26577       3   26544   26562       3   26541
   26559       3   26535   26556       3   26532   26550       3   26517   26538
       3   26511   26529       3   26865   26871       1   26865   26874       1
   26865   26877       1   26853   26862       1   26853   26868       1   26850
   26856       1   26850   26859       1   26835   26844       1   26835   26847
       1   26826   26838       1   26826   26841       1   26817   26829       1
   26817   26832       1   26808   26820       1   26808   26823       1   26796
   26811       1   26796   26814       1   26787   26805       3   26778   26799
       1   26778   26802       1   26772   26793       3   26766   26790       3
   26763   26781       1   26763   26784       1   26760   26775       3   26757
   26769       3   26736   26754       3   26733   26751       3   26727   26748
       3   26724   26742       3   26709   26730       3   26703   26721       3
   27057   27063       1   27057   27066       1   27057   27069       1   27045
   27054       1   27045   27060       1   27042   27048       1   27042   27051
       1   27027   27036       1   27027   27039       1   27018   27030       1
   27018   27033       1   27009   27021       1   27009   27024       1   27000
   27012       1   27000   27015       1   26988   27003       1   26988   27006
       1   26979   26997       3   26970   26991       1   26970   26994       1
   26964   26985       3   26958   26982       3   26955   26973       1   26955
   26976       1   26952   26967       3   26949   26961       3   26928   26946
       3   26925   26943       3   26919   26940       3   26916   26934       3
   26901   26922       3   26895   26913       3   27249   27255       1   27249
   27258       1   27249   27261       1   27237   27246       1   27237   27252
       1   27234   27240       1   27234   27243       1   27219   27228       1
   27219   27231       1   27210   27222       1   27210   27225       1   27201
   27213       1   27201   27216       1   27192   27204       1   27192   27207
       1   27180   27195       1   27180   27198       1   27171   27189       3
   27162   27183       1   27162   27186       1   27156   27177       3   27150
   27174       3   27147   27165       1   27147   27168       1   27144   27159
       3   27141   27153       3   27120   27138       3   27117   27135       3
   27111   27132       3   27108   27126       3   27093   27114       3   27087
   27105       3   27441   27447       1   27441   27450       1   27441   27453
       1   27429   27438       1   27429   27444       1   27426   27432       1
   27426   27435       1   27411   27420       1   27411   27423       1   27402
   27414       1   27402   27417       1   27393   27405       1   27393   27408
       1   27384   27396       1   27384   27399       1   27372   27387       1
   27372   27390       1   27363   27381       3   27354   27375       1   27354
   27378       1   27348   27369       3   27342   27366       3   27339   27357
       1   27339   27360       1   27336   27351       3   27333   27345       3
   27312   27330       3   27309   27327       3   27303   27324       3   27300
   27318       3   27285   27306       3   27279   27297       3   27633   27639
       1   27633   27642       1   27633   27645       1   27621   27630       1
   27621   27636       1   27618   27624       1   27618   27627       1   27603
   27612       1   27603   27615       1   27594   27606       1   27594   27609
       1   27585   27597       1   27585   27600       1   27576   27588       1
   27576   27591       1   27564   27579       1   27564   27582       1   27555
   27573       3   27546   27567       1   27546   27570       1   27540   27561
       3   27534   27558       3   27531   27549       1   27531   27552       1
   27528   27543       3   27525   27537       3   27504   27522       3   27501
   27519       3   27495   27516       3   27492   27510       3   27477   27498
       3   27471   27489       3   27825   27831       1   27825   27834       1
   27825   27837       1   27813   27822       1   27813   27828       1   27810
   27816       1   27810   27819       1   27795   27804       1   27795   27807
       1   27786   27798       1   27786   27801       1   27777   27789       1
   27777   27792       1   27768   27780       1   27768   27783       1   27756
   27771       1   27756   27774       1   27747   27765       3   27738   27759
       1   27738   27762       1   27732   27753       3   27726   27750       3
   27723   27741       1   27723   27744       1   27720   27735       3   27717
   27729       3   27696   27714       3   27693   27711       3   27687   27708
       3   27684   27702       3   27669   27690       3   27663   27681       3
   28017   28023       1   28017   28026       1   28017   28029       1   28005
   28014       1   28005   28020       1   28002   28008       1   28002   28011
       1   27987   27996       1   27987   27999       1   27978   27990       1
   27978   27993       1   27969   27981       1   27969   27984       1   27960
   27972       1   27960   27975       1   27948   27963       1   27948   27966
       1   27939   27957       3   27930   27951       1   27930   27954       1
   27924   27945       3   27918   27942       3   27915   27933       1   27915
   27936       1   27912   27927       3   27909   27921       3   27888   27906
       3   27885   27903       3   27879   27900       3   27876   27894       3
   27861   27882       3   27855   27873       3   28209   28215       1   28209
   28218       1   28209   28221       1   28197   28206       1   28197   28212
       1   28194   28200       1   28194   28203       1   28179   28188       1
   28179   28191       1   28170   28182       1   28170   28185       1   28161
   28173       1   28161   28176       1   28152   28164       1   28152   28167
       1   28140   28155       1   28140   28158       1   28131   28149       3
   28122   28143       1   28122   28146       1   28116   28137       3   28110
   28134       3   28107   28125       1   28107   28128       1   28104   28119
       3   28101   28113       3   28080   28098       3   28077   28095       3
   28071   28092       3   28068   28086       3   28053   28074       3   28047
   28065       3   28401   28407       1   28401   28410       1   28401   28413
       1   28389   28398       1   28389   28404       1   28386   28392       1
   28386   28395       1   28371   28380       1   28371   28383       1   28362
   28374       1   28362   28377       1   28353   28365       1   28353   28368
       1   28344   28356       1   28344   28359       1   28332   28347       1
   28332   28350       1   28323   28341       3   28314   28335       1   28314
   28338       1   28308   28329       3   28302   28326       3   28299   28317
       1   28299   28320       1   28296   28311       3   28293   28305       3
   28272   28290       3   28269   28287       3   28263   28284       3   28260
   28278       3   28245   28266       3   28239   28257       3   28593   28599
       1   28593   28602       1   28593   28605       1   28581   28590       1
   28581   28596       1   28578   28584       1   28578   28587       1   28563
   28572       1   28563   28575       1   28554   28566       1   28554   28569
       1   28545   28557       1   28545   28560       1   28536   28548       1
   28536   28551       1   28524   28539       1   28524   28542       1   28515
   28533       3   28506   28527       1   28506   28530       1   28500   28521
       3   28494   28518       3   28491   28509       1   28491   28512       1
   28488   28503       3   28485   28497       3   28464   28482       3   28461
   28479       3   28455   28476       3   28452   28470       3   28437   28458
       3   28431   28449       3   28785   28791       1   28785   28794       1
   28785   28797       1   28773   28782       1   28773   28788       1   28770
   28776       1   28770   28779       1   28755   28764       1   28755   28767
       1   28746   28758       1   28746   28761       1   28737   28749       1
   28737   28752       1   28728   28740       1   28728   28743       1   28716
   28731       1   28716   28734       1   28707   28725       3   28698   28719
       1   28698   28722       1   28692   28713       3   28686   28710       3
   28683   28701       1   28683   28704       1   28680   28695       3   28677
   28689       3   28656   28674       3   28653   28671       3   28647   28668
       3   28644   28662       3   28629   28650       3   28623   28641       3
   28977   28983       1   28977   28986       1   28977   28989       1   28965
   28974       1   28965   28980       1   28962   28968       1   28962   28971
       1   28947   28956       1   28947   28959       1   28938   28950       1
   28938   28953       1   28929   28941       1   28929   28944       1   28920
   28932       1   28920   28935       1   28908   28923       1   28908   28926
       1   28899   28917       3   28890   28911       1   28890   28914       1
   28884   28905       3   28878   28902       3   28875   28893       1   28875
   28896       1   28872   28887       3   28869   28881       3   28848   28866
       3   28845   28863       3   28839   28860       3   28836   28854       3
   28821   28842       3   28815   28833       3   29169   29175       1   29169
   29178       1   29169   29181       1   29157   29166       1   29157   29172
       1   29154   29160       1   29154   29163       1   29139   29148       1
   29139   29151       1   29130   29142       1   29130   29145       1   29121
   29133       1   29121   29136       1   29112   29124       1   29112   29127
       1   29100   29115       1   29100   29118       1   29091   29109       3
   29082   29103       1   29082   29106       1   29076   29097       3   29070
   29094       3   29067   29085       1   29067   29088       1   29064   29079
       3   29061   29073       3   29040   29058       3   29037   29055       3
   29031   29052       3   29028   29046       3   29013   29034       3   29007
   29025       3   29361   29367       1   29361   29370       1   29361   29373
       1   29349   29358       1   29349   29364       1   29346   29352       1
   29346   29355       1   29331   29340       1   29331   29343       1   29322
   29334       1   29322   29337       1   29313   29325       1   29313   29328
       1   29304   29316       1   29304   29319       1   29292   29307       1
   29292   29310       1   29283   29301       3   29274   29295       1   29274
   29298       1   29268   29289       3   29262   29286       3   29259   29277
       1   29259   29280       1   29256   29271       3   29253   29265       3
   29232   29250       3   29229   29247       3   29223   29244       3   29220
   29238       3   29205   29226       3   29199   29217       3   29553   29559
       1   29553   29562       1   29553   29565       1   29541   29550       1
   29541   29556       1   29538   29544       1   29538   29547       1   29523
   29532       1   29523   29535       1   29514   29526       1   29514   29529
       1   29505   29517       1   29505   29520       1   29496   29508       1
   29496   29511       1   29484   29499       1   29484   29502       1   29475
   29493       3   29466   29487       1   29466   29490       1   29460   29481
       3   29454   29478       3   29451   29469       1   29451   29472       1
   29448   29463       3   29445   29457       3   29424   29442       3   29421
   29439       3   29415   29436       3   29412   29430       3   29397   29418
       3   29391   29409       3   29745   29751       1   29745   29754       1
   29745   29757       1   29733   29742       1   29733   29748       1   29730
   29736       1   29730   29739       1   29715   29724       1   29715   29727
       1   29706   29718       1   29706   29721       1   29697   29709       1
   29697   29712       1   29688   29700       1   29688   29703       1   29676
   29691       1   29676   29694       1   29667   29685       3   29658   29679
       1   29658   29682       1   29652   29673       3   29646   29670       3
   29643   29661       1   29643   29664       1   29640   29655       3   29637
   29649       3   29616   29634       3   29613   29631       3   29607   29628
       3   29604   29622       3   29589   29610       3   29583   29601       3
   29937   29943       1   29937   29946       1   29937   29949       1   29925
   29934       1   29925   29940       1   29922   29928       1   29922   29931
       1   29907   29916       1   29907   29919       1   29898   29910       1
   29898   29913       1   29889   29901       1   29889   29904       1   29880
   29892       1   29880   29895       1   29868   29883       1   29868   29886
       1   29859   29877       3   29850   29871       1   29850   29874       1
   29844   29865       3   29838   29862       3   29835   29853       1   29835
   29856       1   29832   29847       3   29829   29841       3   29808   29826
       3   29805   29823       3   29799   29820       3   29796   29814       3
   29781   29802       3   29775   29793       3   30129   30135       1   30129
   30138       1   30129   30141       1   30117   30126       1   30117   30132
       1   30114   30120       1   30114   30123       1   30099   30108       1
   30099   30111       1   30090   30102       1   30090   30105       1   30081
   30093       1   30081   30096       1   30072   30084       1   30072   30087
       1   30060   30075       1   30060   30078       1   30051   30069       3
   30042   30063       1   30042   30066       1   30036   30057       3   30030
   30054       3   30027   30045       1   30027   30048       1   30024   30039
       3   30021   30033       3   30000   30018       3   29997   30015       3
   29991   30012       3   29988   30006       3   29973   29994       3   29967
   29985       3   30321   30327       1   30321   30330       1   30321   30333
       1   30309   30318       1   30309   30324       1   30306   30312       1
   30306   30315       1   30291   30300       1   30291   30303       1   30282
   30294       1   30282   30297       1   30273   30285       1   30273   30288
       1   30264   30276       1   30264   30279       1   30252   30267       1
   30252   30270       1   30243   30261       3   30234   30255       1   30234
   30258       1   30228   30249       3   30222   30246       3   30219   30237
       1   30219   30240       1   30216   30231       3   30213   30225       3
   30192   30210       3   30189   30207       3   30183   30204       3   30180
   30198       3   30165   30186       3   30159   30177       3   30513   30519
       1   30513   30522       1   30513   30525       1   30501   30510       1
   30501   30516       1   30498   30504       1   30498   30507       1   30483
   30492       1   30483   30495       1   30474   30486       1   30474   30489
       1   30465   30477       1   30465   30480       1   30456   30468       1
   30456   30471       1   30444   30459       1   30444   30462       1   30435
   30453       3   30426   30447       1   30426   30450       1   30420   30441
       3   30414   30438       3   30411   30429       1   30411   30432       1
   30408   30423       3   30405   30417       3   30384   30402       3   30381
   30399       3   30375   30396       3   30372   30390       3   30357   30378
       3   30351   30369       3   30705   30711       1   30705   30714       1
   30705   30717       1   30693   30702       1   30693   30708       1   30690
   30696       1   30690   30699       1   30675   30684       1   30675   30687
       1   30666   30678       1   30666   30681       1   30657   30669       1
   30657   30672       1   30648   30660       1   30648   30663       1   30636
   30651       1   30636   30654       1   30627   30645       3   30618   30639
       1   30618   30642       1   30612   30633       3   30606   30630       3
   30603   30621       1   30603   30624       1   30600   30615       3   30597
   30609       3   30576   30594       3   30573   30591       3   30567   30588
       3   30564   30582       3   30549   30570       3   30543   30561       3
   30897   30903       1   30897   30906       1   30897   30909       1   30885
   30894       1   30885   30900       1   30882   30888       1   30882   30891
       1   30867   30876       1   30867   30879       1   30858   30870       1
   30858   30873       1   30849   30861       1   30849   30864       1   30840
   30852       1   30840   30855       1   30828   30843       1   30828   30846
       1   30819   30837       3   30810   30831       1   30810   30834       1
   30804   30825       3   30798   30822       3   30795   30813       1   30795
   30816       1   30792   30807       3   30789   30801       3   30768   30786
       3   30765   30783       3   30759   30780       3   30756   30774       3
   30741   30762       3   30735   30753       3   31089   31095       1   31089
   31098       1   31089   31101       1   31077   31086       1   31077   31092
       1   31074   31080       1   31074   31083       1   31059   31068       1
   31059   31071       1   31050   31062       1   31050   31065       1   31041
   31053       1   31041   31056       1   31032   31044       1   31032   31047
       1   31020   31035       1   31020   31038       1   31011   31029       3
   31002   31023       1   31002   31026       1   30996   31017       3   30990
   31014       3   30987   31005       1   30987   31008       1   30984   30999
       3   30981   30993       3   30960   30978       3   30957   30975       3
   30951   30972       3   30948   30966       3   30933   30954       3   30927
   30945       3   31281   31287       1   31281   31290       1   31281   31293
       1   31269   31278       1   31269   31284       1   31266   31272       1
   31266   31275       1   31251   31260       1   31251   31263       1   31242
   31254       1   31242   31257       1   31233   31245       1   31233   31248
       1   31224   31236       1   31224   31239       1   31212   31227       1
   31212   31230       1   31203   31221       3   31194   31215       1   31194
   31218       1   31188   31209       3   31182   31206       3   31179   31197
       1   31179   31200       1   31176   31191       3   31173   31185       3
   31152   31170       3   31149   31167       3   31143   31164       3   31140
   31158       3   31125   31146       3   31119   31137       3   31473   31479
       1   31473   31482       1   31473   31485       1   31461   31470       1
   31461   31476       1   31458   31464       1   31458   31467       1   31443
   31452       1   31443   31455       1   31434   31446       1   31434   31449
       1   31425   31437       1   31425   31440       1   31416   31428       1
   31416   31431       1   31404   31419       1   31404   31422       1   31395
   31413       3   31386   31407       1   31386   31410       1   31380   31401
       3   31374   31398       3   31371   31389       1   31371   31392       1
   31368   31383       3   31365   31377       3   31344   31362       3   31341
   31359       3   31335   31356       3   31332   31350       3   31317   31338
       3   31311   31329       3   31665   31671       1   31665   31674       1
   31665   31677       1   31653   31662       1   31653   31668       1   31650
   31656       1   31650   31659       1   31635   31644       1   31635   31647
       1   31626   31638       1   31626   31641       1   31617   31629       1
   31617   31632       1   31608   31620       1   31608   31623       1   31596
   31611       1   31596   31614       1   31587   31605       3   31578   31599
       1   31578   31602       1   31572   31593       3   31566   31590       3
   31563   31581       1   31563   31584       1   31560   31575       3   31557
   31569       3   31536   31554       3   31533   31551       3   31527   31548
       3   31524   31542       3   31509   31530       3   31503   31521       3
   31857   31863       1   31857   31866       1   31857   31869       1   31845
   31854       1   31845   31860       1   31842   31848       1   31842   31851
       1   31827   31836       1   31827   31839       1   31818   31830       1
   31818   31833       1   31809   31821       1   31809   31824       1   31800
   31812       1   31800   31815       1   31788   31803       1   31788   31806
       1   31779   31797       3   31770   31791       1   31770   31794       1
   31764   31785       3   31758   31782       3   31755   31773       1   31755
   31776       1   31752   31767       3   31749   31761       3   31728   31746
       3   31725   31743       3   31719   31740       3   31716   31734       3
   31701   31722       3   31695   31713       3   32049   32055       1   32049
   32058       1   32049   32061       1   32037   32046       1   32037   32052
       1   32034   32040       1   32034   32043       1   32019   32028       1
   32019   32031       1   32010   32022       1   32010   32025       1   32001
   32013       1   32001   32016       1   31992   32004       1   31992   32007
       1   31980   31995       1   31980   31998       1   31971   31989       3
   31962   31983       1   31962   31986       1   31956   31977       3   31950
   31974       3   31947   31965       1   31947   31968       1   31944   31959
       3   31941   31953       3   31920   31938       3   31917   31935       3
   31911   31932       3   31908   31926       3   31893   31914       3   31887
   31905       3   32241   32247       1   32241   32250       1   32241   32253
       1   32229   32238       1   32229   32244       1   32226   32232       1
   32226   32235       1   32211   32220       1   32211   32223       1   32202
   32214       1   32202   32217       1   32193   32205       1   32193   32208
       1   32184   32196       1   32184   32199       1   32172   32187       1
   32172   32190       1   32163   32181       3   32154   32175       1   32154
   32178       1   32148   32169       3   32142   32166       3   32139   32157
       1   32139   32160       1   32136   32151       3   32133   32145       3
   32112   32130       3   32109   32127       3   32103   32124       3   32100
   32118       3   32085   32106       3   32079   32097       3   32433   32439
       1   32433   32442       1   32433   32445       1   32421   32430       1
   32421   32436       1   32418   32424       1   32418   32427       1   32403
   32412       1   32403   32415       1   32394   32406       1   32394   32409
       1   32385   32397       1   32385   32400       1   32376   32388       1
   32376   32391       1   32364   32379       1   32364   32382       1   32355
   32373       3   32346   32367       1   32346   32370       1   32340   32361
       3   32334   32358       3   32331   32349       1   32331   32352       1
   32328   32343       3   32325   32337       3   32304   32322       3   32301
   32319       3   32295   32316       3   32292   32310       3   32277   32298
       3   32271   32289       3   32625   32631       1   32625   32634       1
   32625   32637       1   32613   32622       1   32613   32628       1   32610
   32616       1   32610   32619       1   32595   32604       1   32595   32607
       1   32586   32598       1   32586   32601       1   32577   32589       1
   32577   32592       1   32568   32580       1   32568   32583       1   32556
   32571       1   32556   32574       1   32547   32565       3   32538   32559
       1   32538   32562       1   32532   32553       3   32526   32550       3
   32523   32541       1   32523   32544       1   32520   32535       3   32517
   32529       3   32496   32514       3   32493   32511       3   32487   32508
       3   32484   32502       3   32469   32490       3   32463   32481       3
   32817   32823       1   32817   32826       1   32817   32829       1   32805
   32814       1   32805   32820       1   32802   32808       1   32802   32811
       1   32787   32796       1   32787   32799       1   32778   32790       1
   32778   32793       1   32769   32781       1   32769   32784       1   32760
   32772       1   32760   32775       1   32748   32763       1   32748   32766
       1   32739   32757       3   32730   32751       1   32730   32754       1
   32724   32745       3   32718   32742       3   32715   32733       1   32715
   32736       1   32712   32727       3   32709   32721       3   32688   32706
       3   32685   32703       3   32679   32700       3   32676   32694       3
   32661   32682       3   32655   32673       3   33009   33015       1   33009
   33018       1   33009   33021       1   32997   33006       1   32997   33012
       1   32994   33000       1   32994   33003       1   32979   32988       1
   32979   32991       1   32970   32982       1   32970   32985       1   32961
   32973       1   32961   32976       1   32952   32964       1   32952   32967
       1   32940   32955       1   32940   32958       1   32931   32949       3
   32922   32943       1   32922   32946       1   32916   32937       3   32910
   32934       3   32907   32925       1   32907   32928       1   32904   32919
       3   32901   32913       3   32880   32898       3   32877   32895       3
   32871   32892       3   32868   32886       3   32853   32874       3   32847
   32865       3   33201   33207       1   33201   33210       1   33201   33213
       1   33189   33198       1   33189   33204       1   33186   33192       1
   33186   33195       1   33171   33180       1   33171   33183       1   33162
   33174       1   33162   33177       1   33153   33165       1   33153   33168
       1   33144   33156       1   33144   33159       1   33132   33147       1
   33132   33150       1   33123   33141       3   33114   33135       1   33114
   33138       1   33108   33129       3   33102   33126       3   33099   33117
       1   33099   33120       1   33096   33111       3   33093   33105       3
   33072   33090       3   33069   33087       3   33063   33084       3   33060
   33078       3   33045   33066       3   33039   33057       3   33393   33399
       1   33393   33402       1   33393   33405       1   33381   33390       1
   33381   33396       1   33378   33384       1   33378   33387       1   33363
   33372       1   33363   33375       1   33354   33366       1   33354   33369
       1   33345   33357       1   33345   33360       1   33336   33348       1
   33336   33351       1   33324   33339       1   33324   33342       1   33315
   33333       3   33306   33327       1   33306   33330       1   33300   33321
       3   33294   33318       3   33291   33309       1   33291   33312       1
   33288   33303       3   33285   33297       3   33264   33282       3   33261
   33279       3   33255   33276       3   33252   33270       3   33237   33258
       3   33231   33249       3   33585   33591       1   33585   33594       1
   33585   33597       1   33573   33582       1   33573   33588       1   33570
   33576       1   33570   33579       1   33555   33564       1   33555   33567
       1   33546   33558       1   33546   33561       1   33537   33549       1
   33537   33552       1   33528   33540       1   33528   33543       1   33516
   33531       1   33516   33534       1   33507   33525       3   33498   33519
       1   33498   33522       1   33492   33513       3   33486   33510       3
   33483   33501       1   33483   33504       1   33480   33495       3   33477
   33489       3   33456   33474       3   33453   33471       3   33447   33468
       3   33444   33462       3   33429   33450       3   33423   33441       3
   33777   33783       1   33777   33786       1   33777   33789       1   33765
   33774       1   33765   33780       1   33762   33768       1   33762   33771
       1   33747   33756       1   33747   33759       1   33738   33750       1
   33738   33753       1   33729   33741       1   33729   33744       1   33720
   33732       1   33720   33735       1   33708   33723       1   33708   33726
       1   33699   33717       3   33690   33711       1   33690   33714       1
   33684   33705       3   33678   33702       3   33675   33693       1   33675
   33696       1   33672   33687       3   33669   33681       3   33648   33666
       3   33645   33663       3   33639   33660       3   33636   33654       3
   33621   33642       3   33615   33633       3   33969   33975       1   33969
   33978       1   33969   33981       1   33957   33966       1   33957   33972
       1   33954   33960       1   33954   33963       1   33939   33948       1
   33939   33951       1   33930   33942       1   33930   33945       1   33921
   33933       1   33921   33936       1   33912   33924       1   33912   33927
       1   33900   33915       1   33900   33918       1   33891   33909       3
   33882   33903       1   33882   33906       1   33876   33897       3   33870
   33894       3   33867   33885       1   33867   33888       1   33864   33879
       3   33861   33873       3   33840   33858       3   33837   33855       3
   33831   33852       3   33828   33846       3   33813   33834       3   33807
   33825       3   34161   34167       1   34161   34170       1   34161   34173
       1   34149   34158       1   34149   34164       1   34146   34152       1
   34146   34155       1   34131   34140       1   34131   34143       1   34122
   34134       1   34122   34137       1   34113   34125       1   34113   34128
       1   34104   34116       1   34104   34119       1   34092   34107       1
   34092   34110       1   34083   34101       3   34074   34095       1   34074
   34098       1   34068   34089       3   34062   34086       3   34059   34077
       1   34059   34080       1   34056   34071       3   34053   34065       3
   34032   34050       3   34029   34047       3   34023   34044       3   34020
   34038       3   34005   34026       3   33999   34017       3   34353   34359
       1   34353   34362       1   34353   34365       1   34341   34350       1
   34341   34356       1   34338   34344       1   34338   34347       1   34323
   34332       1   34323   34335       1   34314   34326       1   34314   34329
       1   34305   34317       1   34305   34320       1   34296   34308       1
   34296   34311       1   34284   34299       1   34284   34302       1   34275
   34293       3   34266   34287       1   34266   34290       1   34260   34281
       3   34254   34278       3   34251   34269       1   34251   34272       1
   34248   34263       3   34245   34257       3   34224   34242       3   34221
   34239       3   34215   34236       3   34212   34230       3   34197   34218
       3   34191   34209       3   34545   34551       1   34545   34554       1
   34545   34557       1   34533   34542       1   34533   34548       1   34530
   34536       1   34530   34539       1   34515   34524       1   34515   34527
       1   34506   34518       1   34506   34521       1   34497   34509       1
   34497   34512       1   34488   34500       1   34488   34503       1   34476
   34491       1   34476   34494       1   34467   34485       3   34458   34479
       1   34458   34482       1   34452   34473       3   34446   34470       3
   34443   34461       1   34443   34464       1   34440   34455       3   34437
   34449       3   34416   34434       3   34413   34431       3   34407   34428
       3   34404   34422       3   34389   34410       3   34383   34401       3
   34737   34743       1   34737   34746       1   34737   34749       1   34725
   34734       1   34725   34740       1   34722   34728       1   34722   34731
       1   34707   34716       1   34707   34719       1   34698   34710       1
   34698   34713       1   34689   34701       1   34689   34704       1   34680
   34692       1   34680   34695       1   34668   34683       1   34668   34686
       1   34659   34677       3   34650   34671       1   34650   34674       1
   34644   34665       3   34638   34662       3   34635   34653       1   34635
   34656       1   34632   34647       3   34629   34641       3   34608   34626
       3   34605   34623       3   34599   34620       3   34596   34614       3
   34581   34602       3   34575   34593       3   34929   34935       1   34929
   34938       1   34929   34941       1   34917   34926       1   34917   34932
       1   34914   34920       1   34914   34923       1   34899   34908       1
   34899   34911       1   34890   34902       1   34890   34905       1   34881
   34893       1   34881   34896       1   34872   34884       1   34872   34887
       1   34860   34875       1   34860   34878       1   34851   34869       3
   34842   34863       1   34842   34866       1   34836   34857       3   34830
   34854       3   34827   34845       1   34827   34848       1   34824   34839
       3   34821   34833       3   34800   34818       3   34797   34815       3
   34791   34812       3   34788   34806       3   34773   34794       3   34767
   34785       3   35121   35127       1   35121   35130       1   35121   35133
       1   35109   35118       1   35109   35124       1   35106   35112       1
   35106   35115       1   35091   35100       1   35091   35103       1   35082
   35094       1   35082   35097       1   35073   35085       1   35073   35088
       1   35064   35076       1   35064   35079       1   35052   35067       1
   35052   35070       1   35043   35061       3   35034   35055       1   35034
   35058       1   35028   35049       3   35022   35046       3   35019   35037
       1   35019   35040       1   35016   35031       3   35013   35025       3
   34992   35010       3   34989   35007       3   34983   35004       3   34980
   34998       3   34965   34986       3   34959   34977       3   35313   35319
       1   35313   35322       1   35313   35325       1   35301   35310       1
   35301   35316       1   35298   35304       1   35298   35307       1   35283
   35292       1   35283   35295       1   35274   35286       1   35274   35289
       1   35265   35277       1   35265   35280       1   35256   35268       1
   35256   35271       1   35244   35259       1   35244   35262       1   35235
   35253       3   35226   35247       1   35226   35250       1   35220   35241
       3   35214   35238       3   35211   35229       1   35211   35232       1
   35208   35223       3   35205   35217       3   35184   35202       3   35181
   35199       3   35175   35196       3   35172   35190       3   35157   35178
       3   35151   35169       3   35505   35511       1   35505   35514       1
   35505   35517       1   35493   35502       1   35493   35508       1   35490
   35496       1   35490   35499       1   35475   35484       1   35475   35487
       1   35466   35478       1   35466   35481       1   35457   35469       1
   35457   35472       1   35448   35460       1   35448   35463       1   35436
   35451       1   35436   35454       1   35427   35445       3   35418   35439
       1   35418   35442       1   35412   35433       3   35406   35430       3
   35403   35421       1   35403   35424       1   35400   35415       3   35397
   35409       3   35376   35394       3   35373   35391       3   35367   35388
       3   35364   35382       3   35349   35370       3   35343   35361       3
   35697   35703       1   35697   35706       1   35697   35709       1   35685
   35694       1   35685   35700       1   35682   35688       1   35682   35691
       1   35667   35676       1   35667   35679       1   35658   35670       1
   35658   35673       1   35649   35661       1   35649   35664       1   35640
   35652       1   35640   35655       1   35628   35643       1   35628   35646
       1   35619   35637       3   35610   35631       1   35610   35634       1
   35604   35625       3   35598   35622       3   35595   35613       1   35595
   35616       1   35592   35607       3   35589   35601       3   35568   35586
       3   35565   35583       3   35559   35580       3   35556   35574       3
   35541   35562       3   35535   35553       3   35889   35895       1   35889
   35898       1   35889   35901       1   35877   35886       1   35877   35892
       1   35874   35880       1   35874   35883       1   35859   35868       1
   35859   35871       1   35850   35862       1   35850   35865       1   35841
   35853       1   35841   35856       1   35832   35844       1   35832   35847
       1   35820   35835       1   35820   35838       1   35811   35829       3
   35802   35823       1   35802   35826       1   35796   35817       3   35790
   35814       3   35787   35805       1   35787   35808       1   35784   35799
       3   35781   35793       3   35760   35778       3   35757   35775       3
   35751   35772       3   35748   35766       3   35733   35754       3   35727
   35745       3   36081   36087       1   36081   36090       1   36081   36093
       1   36069   36078       1   36069   36084       1   36066   36072       1
   36066   36075       1   36051   36060       1   36051   36063       1   36042
   36054       1   36042   36057       1   36033   36045       1   36033   36048
       1   36024   36036       1   36024   36039       1   36012   36027       1
   36012   36030       1   36003   36021       3   35994   36015       1   35994
   36018       1   35988   36009       3   35982   36006       3   35979   35997
       1   35979   36000       1   35976   35991       3   35973   35985       3
   35952   35970       3   35949   35967       3   35943   35964       3   35940
   35958       3   35925   35946       3   35919   35937       3   36273   36279
       1   36273   36282       1   36273   36285       1   36261   36270       1
   36261   36276       1   36258   36264       1   36258   36267       1   36243
   36252       1   36243   36255       1   36234   36246       1   36234   36249
       1   36225   36237       1   36225   36240       1   36216   36228       1
   36216   36231       1   36204   36219       1   36204   36222       1   36195
   36213       3   36186   36207       1   36186   36210       1   36180   36201
       3   36174   36198       3   36171   36189       1   36171   36192       1
   36168   36183       3   36165   36177       3   36144   36162       3   36141
   36159       3   36135   36156       3   36132   36150       3   36117   36138
       3   36111   36129       3   36465   36471       1   36465   36474       1
   36465   36477       1   36453   36462       1   36453   36468       1   36450
   36456       1   36450   36459       1   36435   36444       1   36435   36447
       1   36426   36438       1   36426   36441       1   36417   36429       1
   36417   36432       1   36408   36420       1   36408   36423       1   36396
   36411       1   36396   36414       1   36387   36405       3   36378   36399
       1   36378   36402       1   36372   36393       3   36366   36390       3
   36363   36381       1   36363   36384       1   36360   36375       3   36357
   36369       3   36336   36354       3   36333   36351       3   36327   36348
       3   36324   36342       3   36309   36330       3   36303   36321       3
   36657   36663       1   36657   36666       1   36657   36669       1   36645
   36654       1   36645   36660       1   36642   36648       1   36642   36651
       1   36627   36636       1   36627   36639       1   36618   36630       1
   36618   36633       1   36609   36621       1   36609   36624       1   36600
   36612       1   36600   36615       1   36588   36603       1   36588   36606
       1   36579   36597       3   36570   36591       1   36570   36594       1
   36564   36585       3   36558   36582       3   36555   36573       1   36555
   36576       1   36552   36567       3   36549   36561       3   36528   36546
       3   36525   36543       3   36519   36540       3   36516   36534       3
   36501   36522       3   36495   36513       3   36849   36855       1   36849
   36858       1   36849   36861       1   36837   36846       1   36837   36852
       1   36834   36840       1   36834   36843       1   36819   36828       1
   36819   36831       1   36810   36822       1   36810   36825       1   36801
   36813       1   36801   36816       1   36792   36804       1   36792   36807
       1   36780   36795       1   36780   36798       1   36771   36789       3
   36762   36783       1   36762   36786       1   36756   36777       3   36750
   36774       3   36747   36765       1   36747   36768       1   36744   36759
       3   36741   36753       3   36720   36738       3   36717   36735       3
   36711   36732       3   36708   36726       3   36693   36714       3   36687
   36705       3   37041   37047       1   37041   37050       1   37041   37053
       1   37029   37038       1   37029   37044       1   37026   37032       1
   37026   37035       1   37011   37020       1   37011   37023       1   37002
   37014       1   37002   37017       1   36993   37005       1   36993   37008
       1   36984   36996       1   36984   36999       1   36972   36987       1
   36972   36990       1   36963   36981       3   36954   36975       1   36954
   36978       1   36948   36969       3   36942   36966       3   36939   36957
       1   36939   36960       1   36936   36951       3   36933   36945       3
   36912   36930       3   36909   36927       3   36903   36924       3   36900
   36918       3   36885   36906       3   36879   36897       3   37233   37239
       1   37233   37242       1   37233   37245       1   37221   37230       1
   37221   37236       1   37218   37224       1   37218   37227       1   37203
   37212       1   37203   37215       1   37194   37206       1   37194   37209
       1   37185   37197       1   37185   37200       1   37176   37188       1
   37176   37191       1   37164   37179       1   37164   37182       1   37155
   37173       3   37146   37167       1   37146   37170       1   37140   37161
       3   37134   37158       3   37131   37149       1   37131   37152       1
   37128   37143       3   37125   37137       3   37104   37122       3   37101
   37119       3   37095   37116       3   37092   37110       3   37077   37098
       3   37071   37089       3   37425   37431       1   37425   37434       1
   37425   37437       1   37413   37422       1   37413   37428       1   37410
   37416       1   37410   37419       1   37395   37404       1   37395   37407
       1   37386   37398       1   37386   37401       1   37377   37389       1
   37377   37392       1   37368   37380       1   37368   37383       1   37356
   37371       1   37356   37374       1   37347   37365       3   37338   37359
       1   37338   37362       1   37332   37353       3   37326   37350       3
   37323   37341       1   37323   37344       1   37320   37335       3   37317
   37329       3   37296   37314       3   37293   37311       3   37287   37308
       3   37284   37302       3   37269   37290       3   37263   37281       3
   37617   37623       1   37617   37626       1   37617   37629       1   37605
   37614       1   37605   37620       1   37602   37608       1   37602   37611
       1   37587   37596       1   37587   37599       1   37578   37590       1
   37578   37593       1   37569   37581       1   37569   37584       1   37560
   37572       1   37560   37575       1   37548   37563       1   37548   37566
       1   37539   37557       3   37530   37551       1   37530   37554       1
   37524   37545       3   37518   37542       3   37515   37533       1   37515
   37536       1   37512   37527       3   37509   37521       3   37488   37506
       3   37485   37503       3   37479   37500       3   37476   37494       3
   37461   37482       3   37455   37473       3   37809   37815       1   37809
   37818       1   37809   37821       1   37797   37806       1   37797   37812
       1   37794   37800       1   37794   37803       1   37779   37788       1
   37779   37791       1   37770   37782       1   37770   37785       1   37761
   37773       1   37761   37776       1   37752   37764       1   37752   37767
       1   37740   37755       1   37740   37758       1   37731   37749       3
   37722   37743       1   37722   37746       1   37716   37737       3   37710
   37734       3   37707   37725       1   37707   37728       1   37704   37719
       3   37701   37713       3   37680   37698       3   37677   37695       3
   37671   37692       3   37668   37686       3   37653   37674       3   37647
   37665       3   38001   38007       1   38001   38010       1   38001   38013
       1   37989   37998       1   37989   38004       1   37986   37992       1
   37986   37995       1   37971   37980       1   37971   37983       1   37962
   37974       1   37962   37977       1   37953   37965       1   37953   37968
       1   37944   37956       1   37944   37959       1   37932   37947       1
   37932   37950       1   37923   37941       3   37914   37935       1   37914
   37938       1   37908   37929       3   37902   37926       3   37899   37917
       1   37899   37920       1   37896   37911       3   37893   37905       3
   37872   37890       3   37869   37887       3   37863   37884       3   37860
   37878       3   37845   37866       3   37839   37857       3   38193   38199
       1   38193   38202       1   38193   38205       1   38181   38190       1
   38181   38196       1   38178   38184       1   38178   38187       1   38163
   38172       1   38163   38175       1   38154   38166       1   38154   38169
       1   38145   38157       1   38145   38160       1   38136   38148       1
   38136   38151       1   38124   38139       1   38124   38142       1   38115
   38133       3   38106   38127       1   38106   38130       1   38100   38121
       3   38094   38118       3   38091   38109       1   38091   38112       1
   38088   38103       3   38085   38097       3   38064   38082       3   38061
   38079       3   38055   38076       3   38052   38070       3   38037   38058
       3   38031   38049       3   38385   38391       1   38385   38394       1
   38385   38397       1   38373   38382       1   38373   38388       1   38370
   38376       1   38370   38379       1   38355   38364       1   38355   38367
       1   38346   38358       1   38346   38361       1   38337   38349       1
   38337   38352       1   38328   38340       1   38328   38343       1   38316
   38331       1   38316   38334       1   38307   38325       3   38298   38319
       1   38298   38322       1   38292   38313       3   38286   38310       3
   38283   38301       1   38283   38304       1   38280   38295       3   38277
   38289       3   38256   38274       3   38253   38271       3   38247   38268
       3   38244   38262       3   38229   38250       3   38223   38241       3
   38577   38583       1   38577   38586       1   38577   38589       1   38565
   38574       1   38565   38580       1   38562   38568       1   38562   38571
       1   38547   38556       1   38547   38559       1   38538   38550       1
   38538   38553       1   38529   38541       1   38529   38544       1   38520
   38532       1   38520   38535       1   38508   38523       1   38508   38526
       1   38499   38517       3   38490   38511       1   38490   38514       1
   38484   38505       3   38478   38502       3   38475   38493       1   38475
   38496       1   38472   38487       3   38469   38481       3   38448   38466
       3   38445   38463       3   38439   38460       3   38436   38454       3
   38421   38442       3   38415   38433       3   38769   38775       1   38769
   38778       1   38769   38781       1   38757   38766       1   38757   38772
       1   38754   38760       1   38754   38763       1   38739   38748       1
   38739   38751       1   38730   38742       1   38730   38745       1   38721
   38733       1   38721   38736       1   38712   38724       1   38712   38727
       1   38700   38715       1   38700   38718       1   38691   38709       3
   38682   38703       1   38682   38706       1   38676   38697       3   38670
   38694       3   38667   38685       1   38667   38688       1   38664   38679
       3   38661   38673       3   38640   38658       3   38637   38655       3
   38631   38652       3   38628   38646       3   38613   38634       3   38607
   38625       3   38961   38967       1   38961   38970       1   38961   38973
       1   38949   38958       1   38949   38964       1   38946   38952       1
   38946   38955       1   38931   38940       1   38931   38943       1   38922
   38934       1   38922   38937       1   38913   38925       1   38913   38928
       1   38904   38916       1   38904   38919       1   38892   38907       1
   38892   38910       1   38883   38901       3   38874   38895       1   38874
   38898       1   38868   38889       3   38862   38886       3   38859   38877
       1   38859   38880       1   38856   38871       3   38853   38865       3
   38832   38850       3   38829   38847       3   38823   38844       3   38820
   38838       3   38805   38826       3   38799   38817       3   39153   39159
       1   39153   39162       1   39153   39165       1   39141   39150       1
   39141   39156       1   39138   39144       1   39138   39147       1   39123
   39132       1   39123   39135       1   39114   39126       1   39114   39129
       1   39105   39117       1   39105   39120       1   39096   39108       1
   39096   39111       1   39084   39099       1   39084   39102       1   39075
   39093       3   39066   39087       1   39066   39090       1   39060   39081
       3   39054   39078       3   39051   39069       1   39051   39072       1
   39048   39063       3   39045   39057       3   39024   39042       3   39021
   39039       3   39015   39036       3   39012   39030       3   38997   39018
       3   38991   39009       3   39345   39351       1   39345   39354       1
   39345   39357       1   39333   39342       1   39333   39348       1   39330
   39336       1   39330   39339       1   39315   39324       1   39315   39327
       1   39306   39318       1   39306   39321       1   39297   39309       1
   39297   39312       1   39288   39300       1   39288   39303       1   39276
   39291       1   39276   39294       1   39267   39285       3   39258   39279
       1   39258   39282       1   39252   39273       3   39246   39270       3
   39243   39261       1   39243   39264       1   39240   39255       3   39237
   39249       3   39216   39234       3   39213   39231       3   39207   39228
       3   39204   39222       3   39189   39210       3   39183   39201       3
   39537   39543       1   39537   39546       1   39537   39549       1   39525
   39534       1   39525   39540       1   39522   39528       1   39522   39531
       1   39507   39516       1   39507   39519       1   39498   39510       1
   39498   39513       1   39489   39501       1   39489   39504       1   39480
   39492       1   39480   39495       1   39468   39483       1   39468   39486
       1   39459   39477       3   39450   39471       1   39450   39474       1
   39444   39465       3   39438   39462       3   39435   39453       1   39435
   39456       1   39432   39447       3   39429   39441       3   39408   39426
       3   39405   39423       3   39399   39420       3   39396   39414       3
   39381   39402       3   39375   39393       3   39729   39735       1   39729
   39738       1   39729   39741       1   39717   39726       1   39717   39732
       1   39714   39720       1   39714   39723       1   39699   39708       1
   39699   39711       1   39690   39702       1   39690   39705       1   39681
   39693       1   39681   39696       1   39672   39684       1   39672   39687
       1   39660   39675       1   39660   39678       1   39651   39669       3
   39642   39663       1   39642   39666       1   39636   39657       3   39630
   39654       3   39627   39645       1   39627   39648       1   39624   39639
       3   39621   39633       3   39600   39618       3   39597   39615       3
   39591   39612       3   39588   39606       3   39573   39594       3   39567
   39585       3   39921   39927       1   39921   39930       1   39921   39933
       1   39909   39918       1   39909   39924       1   39906   39912       1
   39906   39915       1   39891   39900       1   39891   39903       1   39882
   39894       1   39882   39897       1   39873   39885       1   39873   39888
       1   39864   39876       1   39864   39879       1   39852   39867       1
   39852   39870       1   39843   39861       3   39834   39855       1   39834
   39858       1   39828   39849       3   39822   39846       3   39819   39837
       1   39819   39840       1   39816   39831       3   39813   39825       3
   39792   39810       3   39789   39807       3   39783   39804       3   39780
   39798       3   39765   39786       3   39759   39777       3   40113   40119
       1   40113   40122       1   40113   40125       1   40101   40110       1
   40101   40116       1   40098   40104       1   40098   40107       1   40083
   40092       1   40083   40095       1   40074   40086       1   40074   40089
       1   40065   40077       1   40065   40080       1   40056   40068       1
   40056   40071       1   40044   40059       1   40044   40062       1   40035
   40053       3   40026   40047       1   40026   40050       1   40020   40041
       3   40014   40038       3   40011   40029       1   40011   40032       1
   40008   40023       3   40005   40017       3   39984   40002       3   39981
   39999       3   39975   39996       3   39972   39990       3   39957   39978
       3   39951   39969       3   40305   40311       1   40305   40314       1
   40305   40317       1   40293   40302       1   40293   40308       1   40290
   40296       1   40290   40299       1   40275   40284       1   40275   40287
       1   40266   40278       1   40266   40281       1   40257   40269       1
   40257   40272       1   40248   40260       1   40248   40263       1   40236
   40251       1   40236   40254       1   40227   40245       3   40218   40239
       1   40218   40242       1   40212   40233       3   40206   40230       3
   40203   40221       1   40203   40224       1   40200   40215       3   40197
   40209       3   40176   40194       3   40173   40191       3   40167   40188
       3   40164   40182       3   40149   40170       3   40143   40161       3
   40497   40503       1   40497   40506       1   40497   40509       1   40485
   40494       1   40485   40500       1   40482   40488       1   40482   40491
       1   40467   40476       1   40467   40479       1   40458   40470       1
   40458   40473       1   40449   40461       1   40449   40464       1   40440
   40452       1   40440   40455       1   40428   40443       1   40428   40446
       1   40419   40437       3   40410   40431       1   40410   40434       1
   40404   40425       3   40398   40422       3   40395   40413       1   40395
   40416       1   40392   40407       3   40389   40401       3   40368   40386
       3   40365   40383       3   40359   40380       3   40356   40374       3
   40341   40362       3   40335   40353       3   40689   40695       1   40689
   40698       1   40689   40701       1   40677   40686       1   40677   40692
       1   40674   40680       1   40674   40683       1   40659   40668       1
   40659   40671       1   40650   40662       1   40650   40665       1   40641
   40653       1   40641   40656       1   40632   40644       1   40632   40647
       1   40620   40635       1   40620   40638       1   40611   40629       3
   40602   40623       1   40602   40626       1   40596   40617       3   40590
   40614       3   40587   40605       1   40587   40608       1   40584   40599
       3   40581   40593       3   40560   40578       3   40557   40575       3
   40551   40572       3   40548   40566       3   40533   40554       3   40527
   40545       3   40881   40887       1   40881   40890       1   40881   40893
       1   40869   40878       1   40869   40884       1   40866   40872       1
   40866   40875       1   40851   40860       1   40851   40863       1   40842
   40854       1   40842   40857       1   40833   40845       1   40833   40848
       1   40824   40836       1   40824   40839       1   40812   40827       1
   40812   40830       1   40803   40821       3   40794   40815       1   40794
   40818       1   40788   40809       3   40782   40806       3   40779   40797
       1   40779   40800       1   40776   40791       3   40773   40785       3
   40752   40770       3   40749   40767       3   40743   40764       3   40740
   40758       3   40725   40746       3   40719   40737       3   41073   41079
       1   41073   41082       1   41073   41085       1   41061   41070       1
   41061   41076       1   41058   41064       1   41058   41067       1   41043
   41052       1   41043   41055       1   41034   41046       1   41034   41049
       1   41025   41037       1   41025   41040       1   41016   41028       1
   41016   41031       1   41004   41019       1   41004   41022       1   40995
   41013       3   40986   41007       1   40986   41010       1   40980   41001
       3   40974   40998       3   40971   40989       1   40971   40992       1
   40968   40983       3   40965   40977       3   40944   40962       3   40941
   40959       3   40935   40956       3   40932   40950       3   40917   40938
       3   40911   40929       3   41265   41271       1   41265   41274       1
   41265   41277       1   41253   41262       1   41253   41268       1   41250
   41256       1   41250   41259       1   41235   41244       1   41235   41247
       1   41226   41238       1   41226   41241       1   41217   41229       1
   41217   41232       1   41208   41220       1   41208   41223       1   41196
   41211       1   41196   41214       1   41187   41205       3   41178   41199
       1   41178   41202       1   41172   41193       3   41166   41190       3
   41163   41181       1   41163   41184       1   41160   41175       3   41157
   41169       3   41136   41154       3   41133   41151       3   41127   41148
       3   41124   41142       3   41109   41130       3   41103   41121       3
   41457   41463       1   41457   41466       1   41457   41469       1   41445
   41454       1   41445   41460       1   41442   41448       1   41442   41451
       1   41427   41436       1   41427   41439       1   41418   41430       1
   41418   41433       1   41409   41421       1   41409   41424       1   41400
   41412       1   41400   41415       1   41388   41403       1   41388   41406
       1   41379   41397       3   41370   41391       1   41370   41394       1
   41364   41385       3   41358   41382       3   41355   41373       1   41355
   41376       1   41352   41367       3   41349   41361       3   41328   41346
       3   41325   41343       3   41319   41340       3   41316   41334       3
   41301   41322       3   41295   41313       3   41649   41655       1   41649
   41658       1   41649   41661       1   41637   41646       1   41637   41652
       1   41634   41640       1   41634   41643       1   41619   41628       1
   41619   41631       1   41610   41622       1   41610   41625       1   41601
   41613       1   41601   41616       1   41592   41604       1   41592   41607
       1   41580   41595       1   41580   41598       1   41571   41589       3
   41562   41583       1   41562   41586       1   41556   41577       3   41550
   41574       3   41547   41565       1   41547   41568       1   41544   41559
       3   41541   41553       3   41520   41538       3   41517   41535       3
   41511   41532       3   41508   41526       3   41493   41514       3   41487
   41505       3   41841   41847       1   41841   41850       1   41841   41853
       1   41829   41838       1   41829   41844       1   41826   41832       1
   41826   41835       1   41811   41820       1   41811   41823       1   41802
   41814       1   41802   41817       1   41793   41805       1   41793   41808
       1   41784   41796       1   41784   41799       1   41772   41787       1
   41772   41790       1   41763   41781       3   41754   41775       1   41754
   41778       1   41748   41769       3   41742   41766       3   41739   41757
       1   41739   41760       1   41736   41751       3   41733   41745       3
   41712   41730       3   41709   41727       3   41703   41724       3   41700
   41718       3   41685   41706       3   41679   41697       3   42033   42039
       1   42033   42042       1   42033   42045       1   42021   42030       1
   42021   42036       1   42018   42024       1   42018   42027       1   42003
   42012       1   42003   42015       1   41994   42006       1   41994   42009
       1   41985   41997       1   41985   42000       1   41976   41988       1
   41976   41991       1   41964   41979       1   41964   41982       1   41955
   41973       3   41946   41967       1   41946   41970       1   41940   41961
       3   41934   41958       3   41931   41949       1   41931   41952       1
   41928   41943       3   41925   41937       3   41904   41922       3   41901
   41919       3   41895   41916       3   41892   41910       3   41877   41898
       3   41871   41889       3   42225   42231       1   42225   42234       1
   42225   42237       1   42213   42222       1   42213   42228       1   42210
   42216       1   42210   42219       1   42195   42204       1   42195   42207
       1   42186   42198       1   42186   42201       1   42177   42189       1
   42177   42192       1   42168   42180       1   42168   42183       1   42156
   42171       1   42156   42174       1   42147   42165       3   42138   42159
       1   42138   42162       1   42132   42153       3   42126   42150       3
   42123   42141       1   42123   42144       1   42120   42135       3   42117
   42129       3   42096   42114       3   42093   42111       3   42087   42108
       3   42084   42102       3   42069   42090       3   42063   42081       3
   42417   42423       1   42417   42426       1   42417   42429       1   42405
   42414       1   42405   42420       1   42402   42408       1   42402   42411
       1   42387   42396       1   42387   42399       1   42378   42390       1
   42378   42393       1   42369   42381       1   42369   42384       1   42360
   42372       1   42360   42375       1   42348   42363       1   42348   42366
       1   42339   42357       3   42330   42351       1   42330   42354       1
   42324   42345       3   42318   42342       3   42315   42333       1   42315
   42336       1   42312   42327       3   42309   42321       3   42288   42306
       3   42285   42303       3   42279   42300       3   42276   42294       3
   42261   42282       3   42255   42273       3   42609   42615       1   42609
   42618       1   42609   42621       1   42597   42606       1   42597   42612
       1   42594   42600       1   42594   42603       1   42579   42588       1
   42579   42591       1   42570   42582       1   42570   42585       1   42561
   42573       1   42561   42576       1   42552   42564       1   42552   42567
       1   42540   42555       1   42540   42558       1   42531   42549       3
   42522   42543       1   42522   42546       1   42516   42537       3   42510
   42534       3   42507   42525       1   42507   42528       1   42504   42519
       3   42501   42513       3   42480   42498       3   42477   42495       3
   42471   42492       3   42468   42486       3   42453   42474       3   42447
   42465       3   42801   42807       1   42801   42810       1   42801   42813
       1   42789   42798       1   42789   42804       1   42786   42792       1
   42786   42795       1   42771   42780       1   42771   42783       1   42762
   42774       1   42762   42777       1   42753   42765       1   42753   42768
       1   42744   42756       1   42744   42759       1   42732   42747       1
   42732   42750       1   42723   42741       3   42714   42735       1   42714
   42738       1   42708   42729       3   42702   42726       3   42699   42717
       1   42699   42720       1   42696   42711       3   42693   42705       3
   42672   42690       3   42669   42687       3   42663   42684       3   42660
   42678       3   42645   42666       3   42639   42657       3   42993   42999
       1   42993   43002       1   42993   43005       1   42981   42990       1
   42981   42996       1   42978   42984       1   42978   42987       1   42963
   42972       1   42963   42975       1   42954   42966       1   42954   42969
       1   42945   42957       1   42945   42960       1   42936   42948       1
   42936   42951       1   42924   42939       1   42924   42942       1   42915
   42933       3   42906   42927       1   42906   42930       1   42900   42921
       3   42894   42918       3   42891   42909       1   42891   42912       1
   42888   42903       3   42885   42897       3   42864   42882       3   42861
   42879       3   42855   42876       3   42852   42870       3   42837   42858
       3   42831   42849       3   43185   43191       1   43185   43194       1
   43185   43197       1   43173   43182       1   43173   43188       1   43170
   43176       1   43170   43179       1   43155   43164       1   43155   43167
       1   43146   43158       1   43146   43161       1   43137   43149       1
   43137   43152       1   43128   43140       1   43128   43143       1   43116
   43131       1   43116   43134       1   43107   43125       3   43098   43119
       1   43098   43122       1   43092   43113       3   43086   43110       3
   43083   43101       1   43083   43104       1   43080   43095       3   43077
   43089       3   43056   43074       3   43053   43071       3   43047   43068
       3   43044   43062       3   43029   43050       3   43023   43041       3
   43377   43383       1   43377   43386       1   43377   43389       1   43365
   43374       1   43365   43380       1   43362   43368       1   43362   43371
       1   43347   43356       1   43347   43359       1   43338   43350       1
   43338   43353       1   43329   43341       1   43329   43344       1   43320
   43332       1   43320   43335       1   43308   43323       1   43308   43326
       1   43299   43317       3   43290   43311       1   43290   43314       1
   43284   43305       3   43278   43302       3   43275   43293       1   43275
   43296       1   43272   43287       3   43269   43281       3   43248   43266
       3   43245   43263       3   43239   43260       3   43236   43254       3
   43221   43242       3   43215   43233       3   43569   43575       1   43569
   43578       1   43569   43581       1   43557   43566       1   43557   43572
       1   43554   43560       1   43554   43563       1   43539   43548       1
   43539   43551       1   43530   43542       1   43530   43545       1   43521
   43533       1   43521   43536       1   43512   43524       1   43512   43527
       1   43500   43515       1   43500   43518       1   43491   43509       3
   43482   43503       1   43482   43506       1   43476   43497       3   43470
   43494       3   43467   43485       1   43467   43488       1   43464   43479
       3   43461   43473       3   43440   43458       3   43437   43455       3
   43431   43452       3   43428   43446       3   43413   43434       3   43407
   43425       3   43761   43767       1   43761   43770       1   43761   43773
       1   43749   43758       1   43749   43764       1   43746   43752       1
   43746   43755       1   43731   43740       1   43731   43743       1   43722
   43734       1   43722   43737       1   43713   43725       1   43713   43728
       1   43704   43716       1   43704   43719       1   43692   43707       1
   43692   43710       1   43683   43701       3   43674   43695       1   43674
   43698       1   43668   43689       3   43662   43686       3   43659   43677
       1   43659   43680       1   43656   43671       3   43653   43665       3
   43632   43650       3   43629   43647       3   43623   43644       3   43620
   43638       3   43605   43626       3   43599   43617       3   43953   43959
       1   43953   43962       1   43953   43965       1   43941   43950       1
   43941   43956       1   43938   43944       1   43938   43947       1   43923
   43932       1   43923   43935       1   43914   43926       1   43914   43929
       1   43905   43917       1   43905   43920       1   43896   43908       1
   43896   43911       1   43884   43899       1   43884   43902       1   43875
   43893       3   43866   43887       1   43866   43890       1   43860   43881
       3   43854   43878       3   43851   43869       1   43851   43872       1
   43848   43863       3   43845   43857       3   43824   43842       3   43821
   43839       3   43815   43836       3   43812   43830       3   43797   43818
       3   43791   43809       3   44145   44151       1   44145   44154       1
   44145   44157       1   44133   44142       1   44133   44148       1   44130
   44136       1   44130   44139       1   44115   44124       1   44115   44127
       1   44106   44118       1   44106   44121       1   44097   44109       1
   44097   44112       1   44088   44100       1   44088   44103       1   44076
   44091       1   44076   44094       1   44067   44085       3   44058   44079
       1   44058   44082       1   44052   44073       3   44046   44070       3
   44043   44061       1   44043   44064       1   44040   44055       3   44037
   44049       3   44016   44034       3   44013   44031       3   44007   44028
       3   44004   44022       3   43989   44010       3   43983   44001       3
   44337   44343       1   44337   44346       1   44337   44349       1   44325
   44334       1   44325   44340       1   44322   44328       1   44322   44331
       1   44307   44316       1   44307   44319       1   44298   44310       1
   44298   44313       1   44289   44301       1   44289   44304       1   44280
   44292       1   44280   44295       1   44268   44283       1   44268   44286
       1   44259   44277       3   44250   44271       1   44250   44274       1
   44244   44265       3   44238   44262       3   44235   44253       1   44235
   44256       1   44232   44247       3   44229   44241       3   44208   44226
       3   44205   44223       3   44199   44220       3   44196   44214       3
   44181   44202       3   44175   44193       3   44529   44535       1   44529
   44538       1   44529   44541       1   44517   44526       1   44517   44532
       1   44514   44520       1   44514   44523       1   44499   44508       1
   44499   44511       1   44490   44502       1   44490   44505       1   44481
   44493       1   44481   44496       1   44472   44484       1   44472   44487
       1   44460   44475       1   44460   44478       1   44451   44469       3
   44442   44463       1   44442   44466       1   44436   44457       3   44430
   44454       3   44427   44445       1   44427   44448       1   44424   44439
       3   44421   44433       3   44400   44418       3   44397   44415       3
   44391   44412       3   44388   44406       3   44373   44394       3   44367
   44385       3   44721   44727       1   44721   44730       1   44721   44733
       1   44709   44718       1   44709   44724       1   44706   44712       1
   44706   44715       1   44691   44700       1   44691   44703       1   44682
   44694       1   44682   44697       1   44673   44685       1   44673   44688
       1   44664   44676       1   44664   44679       1   44652   44667       1
   44652   44670       1   44643   44661       3   44634   44655       1   44634
   44658       1   44628   44649       3   44622   44646       3   44619   44637
       1   44619   44640       1   44616   44631       3   44613   44625       3
   44592   44610       3   44589   44607       3   44583   44604       3   44580
   44598       3   44565   44586       3   44559   44577       3   44913   44919
       1   44913   44922       1   44913   44925       1   44901   44910       1
   44901   44916       1   44898   44904       1   44898   44907       1   44883
   44892       1   44883   44895       1   44874   44886       1   44874   44889
       1   44865   44877       1   44865   44880       1   44856   44868       1
   44856   44871       1   44844   44859       1   44844   44862       1   44835
   44853       3   44826   44847       1   44826   44850       1   44820   44841
       3   44814   44838       3   44811   44829       1   44811   44832       1
   44808   44823       3   44805   44817       3   44784   44802       3   44781
   44799       3   44775   44796       3   44772   44790       3   44757   44778
       3   44751   44769       3   45105   45111       1   45105   45114       1
   45105   45117       1   45093   45102       1   45093   45108       1   45090
   45096       1   45090   45099       1   45075   45084       1   45075   45087
       1   45066   45078       1   45066   45081       1   45057   45069       1
   45057   45072       1   45048   45060       1   45048   45063       1   45036
   45051       1   45036   45054       1   45027   45045       3   45018   45039
       1   45018   45042       1   45012   45033       3   45006   45030       3
   45003   45021       1   45003   45024       1   45000   45015       3   44997
   45009       3   44976   44994       3   44973   44991       3   44967   44988
       3   44964   44982       3   44949   44970       3   44943   44961       3
   45297   45303       1   45297   45306       1   45297   45309       1   45285
   45294       1   45285   45300       1   45282   45288       1   45282   45291
       1   45267   45276       1   45267   45279       1   45258   45270       1
   45258   45273       1   45249   45261       1   45249   45264       1   45240
   45252       1   45240   45255       1   45228   45243       1   45228   45246
       1   45219   45237       3   45210   45231       1   45210   45234       1
   45204   45225       3   45198   45222       3   45195   45213       1   45195
   45216       1   45192   45207       3   45189   45201       3   45168   45186
       3   45165   45183       3   45159   45180       3   45156   45174       3
   45141   45162       3   45135   45153       3   45489   45495       1   45489
   45498       1   45489   45501       1   45477   45486       1   45477   45492
       1   45474   45480       1   45474   45483       1   45459   45468       1
   45459   45471       1   45450   45462       1   45450   45465       1   45441
   45453       1   45441   45456       1   45432   45444       1   45432   45447
       1   45420   45435       1   45420   45438       1   45411   45429       3
   45402   45423       1   45402   45426       1   45396   45417       3   45390
   45414       3   45387   45405       1   45387   45408       1   45384   45399
       3   45381   45393       3   45360   45378       3   45357   45375       3
   45351   45372       3   45348   45366       3   45333   45354       3   45327
   45345       3   45681   45687       1   45681   45690       1   45681   45693
       1   45669   45678       1   45669   45684       1   45666   45672       1
   45666   45675       1   45651   45660       1   45651   45663       1   45642
   45654       1   45642   45657       1   45633   45645       1   45633   45648
       1   45624   45636       1   45624   45639       1   45612   45627       1
   45612   45630       1   45603   45621       3   45594   45615       1   45594
   45618       1   45588   45609       3   45582   45606       3   45579   45597
       1   45579   45600       1   45576   45591       3   45573   45585       3
   45552   45570       3   45549   45567       3   45543   45564       3   45540
   45558       3   45525   45546       3   45519   45537       3   45873   45879
       1   45873   45882       1   45873   45885       1   45861   45870       1
   45861   45876       1   45858   45864       1   45858   45867       1   45843
   45852       1   45843   45855       1   45834   45846       1   45834   45849
       1   45825   45837       1   45825   45840       1   45816   45828       1
   45816   45831       1   45804   45819       1   45804   45822       1   45795
   45813       3   45786   45807       1   45786   45810       1   45780   45801
       3   45774   45798       3   45771   45789       1   45771   45792       1
   45768   45783       3   45765   45777       3   45744   45762       3   45741
   45759       3   45735   45756       3   45732   45750       3   45717   45738
       3   45711   45729       3   46065   46071       1   46065   46074       1
   46065   46077       1   46053   46062       1   46053   46068       1   46050
   46056       1   46050   46059       1   46035   46044       1   46035   46047
       1   46026   46038       1   46026   46041       1   46017   46029       1
   46017   46032       1   46008   46020       1   46008   46023       1   45996
   46011       1   45996   46014       1   45987   46005       3   45978   45999
       1   45978   46002       1   45972   45993       3   45966   45990       3
   45963   45981       1   45963   45984       1   45960   45975       3   45957
   45969       3   45936   45954       3   45933   45951       3   45927   45948
       3   45924   45942       3   45909   45930       3   45903   45921       3
   46257   46263       1   46257   46266       1   46257   46269       1   46245
   46254       1   46245   46260       1   46242   46248       1   46242   46251
       1   46227   46236       1   46227   46239       1   46218   46230       1
   46218   46233       1   46209   46221       1   46209   46224       1   46200
   46212       1   46200   46215       1   46188   46203       1   46188   46206
       1   46179   46197       3   46170   46191       1   46170   46194       1
   46164   46185       3   46158   46182       3   46155   46173       1   46155
   46176       1   46152   46167       3   46149   46161       3   46128   46146
       3   46125   46143       3   46119   46140       3   46116   46134       3
   46101   46122       3   46095   46113       3   46449   46455       1   46449
   46458       1   46449   46461       1   46437   46446       1   46437   46452
       1   46434   46440       1   46434   46443       1   46419   46428       1
   46419   46431       1   46410   46422       1   46410   46425       1   46401
   46413       1   46401   46416       1   46392   46404       1   46392   46407
       1   46380   46395       1   46380   46398       1   46371   46389       3
   46362   46383       1   46362   46386       1   46356   46377       3   46350
   46374       3   46347   46365       1   46347   46368       1   46344   46359
       3   46341   46353       3   46320   46338       3   46317   46335       3
   46311   46332       3   46308   46326       3   46293   46314       3   46287
   46305       3   46641   46647       1   46641   46650       1   46641   46653
       1   46629   46638       1   46629   46644       1   46626   46632       1
   46626   46635       1   46611   46620       1   46611   46623       1   46602
   46614       1   46602   46617       1   46593   46605       1   46593   46608
       1   46584   46596       1   46584   46599       1   46572   46587       1
   46572   46590       1   46563   46581       3   46554   46575       1   46554
   46578       1   46548   46569       3   46542   46566       3   46539   46557
       1   46539   46560       1   46536   46551       3   46533   46545       3
   46512   46530       3   46509   46527       3   46503   46524       3   46500
   46518       3   46485   46506       3   46479   46497       3   46833   46839
       1   46833   46842       1   46833   46845       1   46821   46830       1
   46821   46836       1   46818   46824       1   46818   46827       1   46803
   46812       1   46803   46815       1   46794   46806       1   46794   46809
       1   46785   46797       1   46785   46800       1   46776   46788       1
   46776   46791       1   46764   46779       1   46764   46782       1   46755
   46773       3   46746   46767       1   46746   46770       1   46740   46761
       3   46734   46758       3   46731   46749       1   46731   46752       1
   46728   46743       3   46725   46737       3   46704   46722       3   46701
   46719       3   46695   46716       3   46692   46710       3   46677   46698
       3   46671   46689       3   47025   47031       1   47025   47034       1
   47025   47037       1   47013   47022       1   47013   47028       1   47010
   47016       1   47010   47019       1   46995   47004       1   46995   47007
       1   46986   46998       1   46986   47001       1   46977   46989       1
   46977   46992       1   46968   46980       1   46968   46983       1   46956
   46971       1   46956   46974       1   46947   46965       3   46938   46959
       1   46938   46962       1   46932   46953       3   46926   46950       3
   46923   46941       1   46923   46944       1   46920   46935       3   46917
   46929       3   46896   46914       3   46893   46911       3   46887   46908
       3   46884   46902       3   46869   46890       3   46863   46881       3
   47217   47223       1   47217   47226       1   47217   47229       1   47205
   47214       1   47205   47220       1   47202   47208       1   47202   47211
       1   47187   47196       1   47187   47199       1   47178   47190       1
   47178   47193       1   47169   47181       1   47169   47184       1   47160
   47172       1   47160   47175       1   47148   47163       1   47148   47166
       1   47139   47157       3   47130   47151       1   47130   47154       1
   47124   47145       3   47118   47142       3   47115   47133       1   47115
   47136       1   47112   47127       3   47109   47121       3   47088   47106
       3   47085   47103       3   47079   47100       3   47076   47094       3
   47061   47082       3   47055   47073       3   47409   47415       1   47409
   47418       1   47409   47421       1   47397   47406       1   47397   47412
       1   47394   47400       1   47394   47403       1   47379   47388       1
   47379   47391       1   47370   47382       1   47370   47385       1   47361
   47373       1   47361   47376       1   47352   47364       1   47352   47367
       1   47340   47355       1   47340   47358       1   47331   47349       3
   47322   47343       1   47322   47346       1   47316   47337       3   47310
   47334       3   47307   47325       1   47307   47328       1   47304   47319
       3   47301   47313       3   47280   47298       3   47277   47295       3
   47271   47292       3   47268   47286       3   47253   47274       3   47247
   47265       3   47601   47607       1   47601   47610       1   47601   47613
       1   47589   47598       1   47589   47604       1   47586   47592       1
   47586   47595       1   47571   47580       1   47571   47583       1   47562
   47574       1   47562   47577       1   47553   47565       1   47553   47568
       1   47544   47556       1   47544   47559       1   47532   47547       1
   47532   47550       1   47523   47541       3   47514   47535       1   47514
   47538       1   47508   47529       3   47502   47526       3   47499   47517
       1   47499   47520       1   47496   47511       3   47493   47505       3
   47472   47490       3   47469   47487       3   47463   47484       3   47460
   47478       3   47445   47466       3   47439   47457       3   47793   47799
       1   47793   47802       1   47793   47805       1   47781   47790       1
   47781   47796       1   47778   47784       1   47778   47787       1   47763
   47772       1   47763   47775       1   47754   47766       1   47754   47769
       1   47745   47757       1   47745   47760       1   47736   47748       1
   47736   47751       1   47724   47739       1   47724   47742       1   47715
   47733       3   47706   47727       1   47706   47730       1   47700   47721
       3   47694   47718       3   47691   47709       1   47691   47712       1
   47688   47703       3   47685   47697       3   47664   47682       3   47661
   47679       3   47655   47676       3   47652   47670       3   47637   47658
       3   47631   47649       3   47985   47991       1   47985   47994       1
   47985   47997       1   47973   47982       1   47973   47988       1   47970
   47976       1   47970   47979       1   47955   47964       1   47955   47967
       1   47946   47958       1   47946   47961       1   47937   47949       1
   47937   47952       1   47928   47940       1   47928   47943       1   47916
   47931       1   47916   47934       1   47907   47925       3   47898   47919
       1   47898   47922       1   47892   47913       3   47886   47910       3
   47883   47901       1   47883   47904       1   47880   47895       3   47877
   47889       3   47856   47874       3   47853   47871       3   47847   47868
       3   47844   47862       3   47829   47850       3   47823   47841       3
   48177   48183       1   48177   48186       1   48177   48189       1   48165
   48174       1   48165   48180       1   48162   48168       1   48162   48171
       1   48147   48156       1   48147   48159       1   48138   48150       1
   48138   48153       1   48129   48141       1   48129   48144       1   48120
   48132       1   48120   48135       1   48108   48123       1   48108   48126
       1   48099   48117       3   48090   48111       1   48090   48114       1
   48084   48105       3   48078   48102       3   48075   48093       1   48075
   48096       1   48072   48087       3   48069   48081       3   48048   48066
       3   48045   48063       3   48039   48060       3   48036   48054       3
   48021   48042       3   48015   48033       3   48369   48375       1   48369
   48378       1   48369   48381       1   48357   48366       1   48357   48372
       1   48354   48360       1   48354   48363       1   48339   48348       1
   48339   48351       1   48330   48342       1   48330   48345       1   48321
   48333       1   48321   48336       1   48312   48324       1   48312   48327
       1   48300   48315       1   48300   48318       1   48291   48309       3
   48282   48303       1   48282   48306       1   48276   48297       3   48270
   48294       3   48267   48285       1   48267   48288       1   48264   48279
       3   48261   48273       3   48240   48258       3   48237   48255       3
   48231   48252       3   48228   48246       3   48213   48234       3   48207
   48225       3   48561   48567       1   48561   48570       1   48561   48573
       1   48549   48558       1   48549   48564       1   48546   48552       1
   48546   48555       1   48531   48540       1   48531   48543       1   48522
   48534       1   48522   48537       1   48513   48525       1   48513   48528
       1   48504   48516       1   48504   48519       1   48492   48507       1
   48492   48510       1   48483   48501       3   48474   48495       1   48474
   48498       1   48468   48489       3   48462   48486       3   48459   48477
       1   48459   48480       1   48456   48471       3   48453   48465       3
   48432   48450       3   48429   48447       3   48423   48444       3   48420
   48438       3   48405   48426       3   48399   48417       3   48753   48759
       1   48753   48762       1   48753   48765       1   48741   48750       1
   48741   48756       1   48738   48744       1   48738   48747       1   48723
   48732       1   48723   48735       1   48714   48726       1   48714   48729
       1   48705   48717       1   48705   48720       1   48696   48708       1
   48696   48711       1   48684   48699       1   48684   48702       1   48675
   48693       3   48666   48687       1   48666   48690       1   48660   48681
       3   48654   48678       3   48651   48669       1   48651   48672       1
   48648   48663       3   48645   48657       3   48624   48642       3   48621
   48639       3   48615   48636       3   48612   48630       3   48597   48618
       3   48591   48609       3   48945   48951       1   48945   48954       1
   48945   48957       1   48933   48942       1   48933   48948       1   48930
   48936       1   48930   48939       1   48915   48924       1   48915   48927
       1   48906   48918       1   48906   48921       1   48897   48909       1
   48897   48912       1   48888   48900       1   48888   48903       1   48876
   48891       1   48876   48894       1   48867   48885       3   48858   48879
       1   48858   48882       1   48852   48873       3   48846   48870       3
   48843   48861       1   48843   48864       1   48840   48855       3   48837
   48849       3   48816   48834       3   48813   48831       3   48807   48828
       3   48804   48822       3   48789   48810       3   48783   48801       3
   49137   49143       1   49137   49146       1   49137   49149       1   49125
   49134       1   49125   49140       1   49122   49128       1   49122   49131
       1   49107   49116       1   49107   49119       1   49098   49110       1
   49098   49113       1   49089   49101       1   49089   49104       1   49080
   49092       1   49080   49095       1   49068   49083       1   49068   49086
       1   49059   49077       3   49050   49071       1   49050   49074       1
   49044   49065       3   49038   49062       3   49035   49053       1   49035
   49056       1   49032   49047       3   49029   49041       3   49008   49026
       3   49005   49023       3   48999   49020       3   48996   49014       3
   48981   49002       3   48975   48993       3   49329   49335       1   49329
   49338       1   49329   49341       1   49317   49326       1   49317   49332
       1   49314   49320       1   49314   49323       1   49299   49308       1
   49299   49311       1   49290   49302       1   49290   49305       1   49281
   49293       1   49281   49296       1   49272   49284       1   49272   49287
       1   49260   49275       1   49260   49278       1   49251   49269       3
   49242   49263       1   49242   49266       1   49236   49257       3   49230
   49254       3   49227   49245       1   49227   49248       1   49224   49239
       3   49221   49233       3   49200   49218       3   49197   49215       3
   49191   49212       3   49188   49206       3   49173   49194       3   49167
   49185       3   49521   49527       1   49521   49530       1   49521   49533
       1   49509   49518       1   49509   49524       1   49506   49512       1
   49506   49515       1   49491   49500       1   49491   49503       1   49482
   49494       1   49482   49497       1   49473   49485       1   49473   49488
       1   49464   49476       1   49464   49479       1   49452   49467       1
   49452   49470       1   49443   49461       3   49434   49455       1   49434
   49458       1   49428   49449       3   49422   49446       3   49419   49437
       1   49419   49440       1   49416   49431       3   49413   49425       3
   49392   49410       3   49389   49407       3   49383   49404       3   49380
   49398       3   49365   49386       3   49359   49377       3   49713   49719
       1   49713   49722       1   49713   49725       1   49701   49710       1
   49701   49716       1   49698   49704       1   49698   49707       1   49683
   49692       1   49683   49695       1   49674   49686       1   49674   49689
       1   49665   49677       1   49665   49680       1   49656   49668       1
   49656   49671       1   49644   49659       1   49644   49662       1   49635
   49653       3   49626   49647       1   49626   49650       1   49620   49641
       3   49614   49638       3   49611   49629       1   49611   49632       1
   49608   49623       3   49605   49617       3   49584   49602       3   49581
   49599       3   49575   49596       3   49572   49590       3   49557   49578
       3   49551   49569       3   49905   49911       1   49905   49914       1
   49905   49917       1   49893   49902       1   49893   49908       1   49890
   49896       1   49890   49899       1   49875   49884       1   49875   49887
       1   49866   49878       1   49866   49881       1   49857   49869       1
   49857   49872       1   49848   49860       1   49848   49863       1   49836
   49851       1   49836   49854       1   49827   49845       3   49818   49839
       1   49818   49842       1   49812   49833       3   49806   49830       3
   49803   49821       1   49803   49824       1   49800   49815       3   49797
   49809       3   49776   49794       3   49773   49791       3   49767   49788
       3   49764   49782       3   49749   49770       3   49743   49761       3
   50097   50103       1   50097   50106       1   50097   50109       1   50085
   50094       1   50085   50100       1   50082   50088       1   50082   50091
       1   50067   50076       1   50067   50079       1   50058   50070       1
   50058   50073       1   50049   50061       1   50049   50064       1   50040
   50052       1   50040   50055       1   50028   50043       1   50028   50046
       1   50019   50037       3   50010   50031       1   50010   50034       1
   50004   50025       3   49998   50022       3   49995   50013       1   49995
   50016       1   49992   50007       3   49989   50001       3   49968   49986
       3   49965   49983       3   49959   49980       3   49956   49974       3
   49941   49962       3   49935   49953       3   50289   50295       1   50289
   50298       1   50289   50301       1   50277   50286       1   50277   50292
       1   50274   50280       1   50274   50283       1   50259   50268       1
   50259   50271       1   50250   50262       1   50250   50265       1   50241
   50253       1   50241   50256       1   50232   50244       1   50232   50247
       1   50220   50235       1   50220   50238       1   50211   50229       3
   50202   50223       1   50202   50226       1   50196   50217       3   50190
   50214       3   50187   50205       1   50187   50208       1   50184   50199
       3   50181   50193       3   50160   50178       3   50157   50175       3
   50151   50172       3   50148   50166       3   50133   50154       3   50127
   50145       3   50481   50487       1   50481   50490       1   50481   50493
       1   50469   50478       1   50469   50484       1   50466   50472       1
   50466   50475       1   50451   50460       1   50451   50463       1   50442
   50454       1   50442   50457       1   50433   50445       1   50433   50448
       1   50424   50436       1   50424   50439       1   50412   50427       1
   50412   50430       1   50403   50421       3   50394   50415       1   50394
   50418       1   50388   50409       3   50382   50406       3   50379   50397
       1   50379   50400       1   50376   50391       3   50373   50385       3
   50352   50370       3   50349   50367       3   50343   50364       3   50340
   50358       3   50325   50346       3   50319   50337       3   50673   50679
       1   50673   50682       1   50673   50685       1   50661   50670       1
   50661   50676       1   50658   50664       1   50658   50667       1   50643
   50652       1   50643   50655       1   50634   50646       1   50634   50649
       1   50625   50637       1   50625   50640       1   50616   50628       1
   50616   50631       1   50604   50619       1   50604   50622       1   50595
   50613       3   50586   50607       1   50586   50610       1   50580   50601
       3   50574   50598       3   50571   50589       1   50571   50592       1
   50568   50583       3   50565   50577       3   50544   50562       3   50541
   50559       3   50535   50556       3   50532   50550       3   50517   50538
       3   50511   50529       3   50865   50871       1   50865   50874       1
   50865   50877       1   50853   50862       1   50853   50868       1   50850
   50856       1   50850   50859       1   50835   50844       1   50835   50847
       1   50826   50838       1   50826   50841       1   50817   50829       1
   50817   50832       1   50808   50820       1   50808   50823       1   50796
   50811       1   50796   50814       1   50787   50805       3   50778   50799
       1   50778   50802       1   50772   50793       3   50766   50790       3
   50763   50781       1   50763   50784       1   50760   50775       3   50757
   50769       3   50736   50754       3   50733   50751       3   50727   50748
       3   50724   50742       3   50709   50730       3   50703   50721       3
   51057   51063       1   51057   51066       1   51057   51069       1   51045
   51054       1   51045   51060       1   51042   51048       1   51042   51051
       1   51027   51036       1   51027   51039       1   51018   51030       1
   51018   51033       1   51009   51021       1   51009   51024       1   51000
   51012       1   51000   51015       1   50988   51003       1   50988   51006
       1   50979   50997       3   50970   50991       1   50970   50994       1
   50964   50985       3   50958   50982       3   50955   50973       1   50955
   50976       1   50952   50967       3   50949   50961       3   50928   50946
       3   50925   50943       3   50919   50940       3   50916   50934       3
   50901   50922       3   50895   50913       3   51249   51255       1   51249
   51258       1   51249   51261       1   51237   51246       1   51237   51252
       1   51234   51240       1   51234   51243       1   51219   51228       1
   51219   51231       1   51210   51222       1   51210   51225       1   51201
   51213       1   51201   51216       1   51192   51204       1   51192   51207
       1   51180   51195       1   51180   51198       1   51171   51189       3
   51162   51183       1   51162   51186       1   51156   51177       3   51150
   51174       3   51147   51165       1   51147   51168       1   51144   51159
       3   51141   51153       3   51120   51138       3   51117   51135       3
   51111   51132       3   51108   51126       3   51093   51114       3   51087
   51105       3   51441   51447       1   51441   51450       1   51441   51453
       1   51429   51438       1   51429   51444       1   51426   51432       1
   51426   51435       1   51411   51420       1   51411   51423       1   51402
   51414       1   51402   51417       1   51393   51405       1   51393   51408
       1   51384   51396       1   51384   51399       1   51372   51387       1
   51372   51390       1   51363   51381       3   51354   51375       1   51354
   51378       1   51348   51369       3   51342   51366       3   51339   51357
       1   51339   51360       1   51336   51351       3   51333   51345       3
   51312   51330       3   51309   51327       3   51303   51324       3   51300
   51318       3   51285   51306       3   51279   51297       3   51633   51639
       1   51633   51642       1   51633   51645       1   51621   51630       1
   51621   51636       1   51618   51624       1   51618   51627       1   51603
   51612       1   51603   51615       1   51594   51606       1   51594   51609
       1   51585   51597       1   51585   51600       1   51576   51588       1
   51576   51591       1   51564   51579       1   51564   51582       1   51555
   51573       3   51546   51567       1   51546   51570       1   51540   51561
       3   51534   51558       3   51531   51549       1   51531   51552       1
   51528   51543       3   51525   51537       3   51504   51522       3   51501
   51519       3   51495   51516       3   51492   51510       3   51477   51498
       3   51471   51489       3   51825   51831       1   51825   51834       1
   51825   51837       1   51813   51822       1   51813   51828       1   51810
   51816       1   51810   51819       1   51795   51804       1   51795   51807
       1   51786   51798       1   51786   51801       1   51777   51789       1
   51777   51792       1   51768   51780       1   51768   51783       1   51756
   51771       1   51756   51774       1   51747   51765       3   51738   51759
       1   51738   51762       1   51732   51753       3   51726   51750       3
   51723   51741       1   51723   51744       1   51720   51735       3   51717
   51729       3   51696   51714       3   51693   51711       3   51687   51708
       3   51684   51702       3   51669   51690       3   51663   51681       3
   52017   52023       1   52017   52026       1   52017   52029       1   52005
   52014       1   52005   52020       1   52002   52008       1   52002   52011
       1   51987   51996       1   51987   51999       1   51978   51990       1
   51978   51993       1   51969   51981       1   51969   51984       1   51960
   51972       1   51960   51975       1   51948   51963       1   51948   51966
       1   51939   51957       3   51930   51951       1   51930   51954       1
   51924   51945       3   51918   51942       3   51915   51933       1   51915
   51936       1   51912   51927       3   51909   51921       3   51888   51906
       3   51885   51903       3   51879   51900       3   51876   51894       3
   51861   51882       3   51855   51873       3   52209   52215       1   52209
   52218       1   52209   52221       1   52197   52206       1   52197   52212
       1   52194   52200       1   52194   52203       1   52179   52188       1
   52179   52191       1   52170   52182       1   52170   52185       1   52161
   52173       1   52161   52176       1   52152   52164       1   52152   52167
       1   52140   52155       1   52140   52158       1   52131   52149       3
   52122   52143       1   52122   52146       1   52116   52137       3   52110
   52134       3   52107   52125       1   52107   52128       1   52104   52119
       3   52101   52113       3   52080   52098       3   52077   52095       3
   52071   52092       3   52068   52086       3   52053   52074       3   52047
   52065       3   52401   52407       1   52401   52410       1   52401   52413
       1   52389   52398       1   52389   52404       1   52386   52392       1
   52386   52395       1   52371   52380       1   52371   52383       1   52362
   52374       1   52362   52377       1   52353   52365       1   52353   52368
       1   52344   52356       1   52344   52359       1   52332   52347       1
   52332   52350       1   52323   52341       3   52314   52335       1   52314
   52338       1   52308   52329       3   52302   52326       3   52299   52317
       1   52299   52320       1   52296   52311       3   52293   52305       3
   52272   52290       3   52269   52287       3   52263   52284       3   52260
   52278       3   52245   52266       3   52239   52257       3   52593   52599
       1   52593   52602       1   52593   52605       1   52581   52590       1
   52581   52596       1   52578   52584       1   52578   52587       1   52563
   52572       1   52563   52575       1   52554   52566       1   52554   52569
       1   52545   52557       1   52545   52560       1   52536   52548       1
   52536   52551       1   52524   52539       1   52524   52542       1   52515
   52533       3   52506   52527       1   52506   52530       1   52500   52521
       3   52494   52518       3   52491   52509       1   52491   52512       1
   52488   52503       3   52485   52497       3   52464   52482       3   52461
   52479       3   52455   52476       3   52452   52470       3   52437   52458
       3   52431   52449       3   52785   52791       1   52785   52794       1
   52785   52797       1   52773   52782       1   52773   52788       1   52770
   52776       1   52770   52779       1   52755   52764       1   52755   52767
       1   52746   52758       1   52746   52761       1   52737   52749       1
   52737   52752       1   52728   52740       1   52728   52743       1   52716
   52731       1   52716   52734       1   52707   52725       3   52698   52719
       1   52698   52722       1   52692   52713       3   52686   52710       3
   52683   52701       1   52683   52704       1   52680   52695       3   52677
   52689       3   52656   52674       3   52653   52671       3   52647   52668
       3   52644   52662       3   52629   52650       3   52623   52641       3
   52977   52983       1   52977   52986       1   52977   52989       1   52965
   52974       1   52965   52980       1   52962   52968       1   52962   52971
       1   52947   52956       1   52947   52959       1   52938   52950       1
   52938   52953       1   52929   52941       1   52929   52944       1   52920
   52932       1   52920   52935       1   52908   52923       1   52908   52926
       1   52899   52917       3   52890   52911       1   52890   52914       1
   52884   52905       3   52878   52902       3   52875   52893       1   52875
   52896       1   52872   52887       3   52869   52881       3   52848   52866
       3   52845   52863       3   52839   52860       3   52836   52854       3
   52821   52842       3   52815   52833       3   53169   53175       1   53169
   53178       1   53169   53181       1   53157   53166       1   53157   53172
       1   53154   53160       1   53154   53163       1   53139   53148       1
   53139   53151       1   53130   53142       1   53130   53145       1   53121
   53133       1   53121   53136       1   53112   53124       1   53112   53127
       1   53100   53115       1   53100   53118       1   53091   53109       3
   53082   53103       1   53082   53106       1   53076   53097       3   53070
   53094       3   53067   53085       1   53067   53088       1   53064   53079
       3   53061   53073       3   53040   53058       3   53037   53055       3
   53031   53052       3   53028   53046       3   53013   53034       3   53007
   53025       3   53361   53367       1   53361   53370       1   53361   53373
       1   53349   53358       1   53349   53364       1   53346   53352       1
   53346   53355       1   53331   53340       1   53331   53343       1   53322
   53334       1   53322   53337       1   53313   53325       1   53313   53328
       1   53304   53316       1   53304   53319       1   53292   53307       1
   53292   53310       1   53283   53301       3   53274   53295       1   53274
   53298       1   53268   53289       3   53262   53286       3   53259   53277
       1   53259   53280       1   53256   53271       3   53253   53265       3
   53232   53250       3   53229   53247       3   53223   53244       3   53220
   53238       3   53205   53226       3   53199   53217       3   53553   53559
       1   53553   53562       1   53553   53565       1   53541   53550       1
   53541   53556       1   53538   53544       1   53538   53547       1   53523
   53532       1   53523   53535       1   53514   53526       1   53514   53529
       1   53505   53517       1   53505   53520       1   53496   53508       1
   53496   53511       1   53484   53499       1   53484   53502       1   53475
   53493       3   53466   53487       1   53466   53490       1   53460   53481
       3   53454   53478       3   53451   53469       1   53451   53472       1
   53448   53463       3   53445   53457       3   53424   53442       3   53421
   53439       3   53415   53436       3   53412   53430       3   53397   53418
       3   53391   53409       3   53745   53751       1   53745   53754       1
   53745   53757       1   53733   53742       1   53733   53748       1   53730
   53736       1   53730   53739       1   53715   53724       1   53715   53727
       1   53706   53718       1   53706   53721       1   53697   53709       1
   53697   53712       1   53688   53700       1   53688   53703       1   53676
   53691       1   53676   53694       1   53667   53685       3   53658   53679
       1   53658   53682       1   53652   53673       3   53646   53670       3
   53643   53661       1   53643   53664       1   53640   53655       3   53637
   53649       3   53616   53634       3   53613   53631       3   53607   53628
       3   53604   53622       3   53589   53610       3   53583   53601       3
   53937   53943       1   53937   53946       1   53937   53949       1   53925
   53934       1   53925   53940       1   53922   53928       1   53922   53931
       1   53907   53916       1   53907   53919       1   53898   53910       1
   53898   53913       1   53889   53901       1   53889   53904       1   53880
   53892       1   53880   53895       1   53868   53883       1   53868   53886
       1   53859   53877       3   53850   53871       1   53850   53874       1
   53844   53865       3   53838   53862       3   53835   53853       1   53835
   53856       1   53832   53847       3   53829   53841       3   53808   53826
       3   53805   53823       3   53799   53820       3   53796   53814       3
   53781   53802       3   53775   53793       3   54129   54135       1   54129
   54138       1   54129   54141       1   54117   54126       1   54117   54132
       1   54114   54120       1   54114   54123       1   54099   54108       1
   54099   54111       1   54090   54102       1   54090   54105       1   54081
   54093       1   54081   54096       1   54072   54084       1   54072   54087
       1   54060   54075       1   54060   54078       1   54051   54069       3
   54042   54063       1   54042   54066       1   54036   54057       3   54030
   54054       3   54027   54045       1   54027   54048       1   54024   54039
       3   54021   54033       3   54000   54018       3   53997   54015       3
   53991   54012       3   53988   54006       3   53973   53994       3   53967
   53985       3   54321   54327       1   54321   54330       1   54321   54333
       1   54309   54318       1   54309   54324       1   54306   54312       1
   54306   54315       1   54291   54300       1   54291   54303       1   54282
   54294       1   54282   54297       1   54273   54285       1   54273   54288
       1   54264   54276       1   54264   54279       1   54252   54267       1
   54252   54270       1   54243   54261       3   54234   54255       1   54234
   54258       1   54228   54249       3   54222   54246       3   54219   54237
       1   54219   54240       1   54216   54231       3   54213   54225       3
   54192   54210       3   54189   54207       3   54183   54204       3   54180
   54198       3   54165   54186       3   54159   54177       3   54513   54519
       1   54513   54522       1   54513   54525       1   54501   54510       1
   54501   54516       1   54498   54504       1   54498   54507       1   54483
   54492       1   54483   54495       1   54474   54486       1   54474   54489
       1   54465   54477       1   54465   54480       1   54456   54468       1
   54456   54471       1   54444   54459       1   54444   54462       1   54435
   54453       3   54426   54447       1   54426   54450       1   54420   54441
       3   54414   54438       3   54411   54429       1   54411   54432       1
   54408   54423       3   54405   54417       3   54384   54402       3   54381
   54399       3   54375   54396       3   54372   54390       3   54357   54378
       3   54351   54369       3   54705   54711       1   54705   54714       1
   54705   54717       1   54693   54702       1   54693   54708       1   54690
   54696       1   54690   54699       1   54675   54684       1   54675   54687
       1   54666   54678       1   54666   54681       1   54657   54669       1
   54657   54672       1   54648   54660       1   54648   54663       1   54636
   54651       1   54636   54654       1   54627   54645       3   54618   54639
       1   54618   54642       1   54612   54633       3   54606   54630       3
   54603   54621       1   54603   54624       1   54600   54615       3   54597
   54609       3   54576   54594       3   54573   54591       3   54567   54588
       3   54564   54582       3   54549   54570       3   54543   54561       3
   54897   54903       1   54897   54906       1   54897   54909       1   54885
   54894       1   54885   54900       1   54882   54888       1   54882   54891
       1   54867   54876       1   54867   54879       1   54858   54870       1
   54858   54873       1   54849   54861       1   54849   54864       1   54840
   54852       1   54840   54855       1   54828   54843       1   54828   54846
       1   54819   54837       3   54810   54831       1   54810   54834       1
   54804   54825       3   54798   54822       3   54795   54813       1   54795
   54816       1   54792   54807       3   54789   54801       3   54768   54786
       3   54765   54783       3   54759   54780       3   54756   54774       3
   54741   54762       3   54735   54753       3   55089   55095       1   55089
   55098       1   55089   55101       1   55077   55086       1   55077   55092
       1   55074   55080       1   55074   55083       1   55059   55068       1
   55059   55071       1   55050   55062       1   55050   55065       1   55041
   55053       1   55041   55056       1   55032   55044       1   55032   55047
       1   55020   55035       1   55020   55038       1   55011   55029       3
   55002   55023       1   55002   55026       1   54996   55017       3   54990
   55014       3   54987   55005       1   54987   55008       1   54984   54999
       3   54981   54993       3   54960   54978       3   54957   54975       3
   54951   54972       3   54948   54966       3   54933   54954       3   54927
   54945       3   55281   55287       1   55281   55290       1   55281   55293
       1   55269   55278       1   55269   55284       1   55266   55272       1
   55266   55275       1   55251   55260       1   55251   55263       1   55242
   55254       1   55242   55257       1   55233   55245       1   55233   55248
       1   55224   55236       1   55224   55239       1   55212   55227       1
   55212   55230       1   55203   55221       3   55194   55215       1   55194
   55218       1   55188   55209       3   55182   55206       3   55179   55197
       1   55179   55200       1   55176   55191       3   55173   55185       3
   55152   55170       3   55149   55167       3   55143   55164       3   55140
   55158       3   55125   55146       3   55119   55137       3
%FLAG BONDS_WITHOUT_HYDROGEN                                                    
%FORMAT(10I8)                                                                   
     165     177       2     162     165       2     147     162       2     138
     147       2     129     138       2     120     129       2     108     120
       2      90     108       2      84      99       4      78      99       4
      75      90       2      72      84       4      69      78       4      57
      75       5      51      69       6      51      72       6      45      57
       4      39      57       4      36      48       4      30      48       6
      30      51       7      24      27       8      24      45       4      21
      39       4      18      36       4      15      30       6      12      18
       9      12      27      10       9      21       4       9      24       4
       6      15       4       6      18       4       3       9      11       3
      12      12       0       3      13       0       6       8     357     369
       2     354     357       2     339     354       2     330     339       2
     321     330       2     312     321       2     300     312       2     282
     300       2     276     291       4     270     291       4     267     282
       2     264     276       4     261     270       4     249     267       5
     243     261       6     243     264       6     237     249       4     231
     249       4     228     240       4     222     240       6     222     243
       7     216     219       8     216     237       4     213     231       4
     210     228       4     207     222       6     204     210       9     204
     219      10     201     213       4     201     216       4     198     207
       4     198     210       4     195     201      11     195     204      12
     192     195      13     192     198       8     549     561       2     546
     549       2     531     546       2     522     531       2     513     522
       2     504     513       2     492     504       2     474     492       2
     468     483       4     462     483       4     459     474       2     456
     468       4     453     462       4     441     459       5     435     453
       6     435     456       6     429     441       4     423     441       4
     420     432       4     414     432       6     414     435       7     408
     411       8     408     429       4     405     423       4     402     420
       4     399     414       6     396     402       9     396     411      10
     393     405       4     393     408       4     390     399       4     390
     402       4     387     393      11     387     396      12     384     387
      13     384     390       8     741     753       2     738     741       2
     723     738       2     714     723       2     705     714       2     696
     705       2     684     696       2     666     684       2     660     675
       4     654     675       4     651     666       2     648     660       4
     645     654       4     633     651       5     627     645       6     627
     648       6     621     633       4     615     633       4     612     624
       4     606     624       6     606     627       7     600     603       8
     600     621       4     597     615       4     594     612       4     591
     606       6     588     594       9     588     603      10     585     597
       4     585     600       4     582     591       4     582     594       4
     579     585      11     579     588      12     576     579      13     576
     582       8     933     945       2     930     933       2     915     930
       2     906     915       2     897     906       2     888     897       2
     876     888       2     858     876       2     852     867       4     846
     867       4     843     858       2     840     852       4     837     846
       4     825     843       5     819     837       6     819     840       6
     813     825       4     807     825       4     804     816       4     798
     816       6     798     819       7     792     795       8     792     813
       4     789     807       4     786     804       4     783     798       6
     780     786       9     780     795      10     777     789       4     777
     792       4     774     783       4     774     786       4     771     777
      11     771     780      12     768     771      13     768     774       8
    1125    1137       2    1122    1125       2    1107    1122       2    1098
    1107       2    1089    1098       2    1080    1089       2    1068    1080
       2    1050    1068       2    1044    1059       4    1038    1059       4
    1035    1050       2    1032    1044       4    1029    1038       4    1017
    1035       5    1011    1029       6    1011    1032       6    1005    1017
       4     999    1017       4     996    1008       4     990    1008       6
     990    1011       7     984     987       8     984    1005       4     981
     999       4     978     996       4     975     990       6     972     978
       9     972     987      10     969     981       4     969     984       4
     966     975       4     966     978       4     963     969      11     963
     972      12     960     963      13     960     966       8    1317    1329
       2    1314    1317       2    1299    1314       2    1290    1299       2
    1281    1290       2    1272    1281       2    1260    1272       2    1242
    1260       2    1236    1251       4    1230    1251       4    1227    1242
       2    1224    1236       4    1221    1230       4    1209    1227       5
    1203    1221       6    1203    1224       6    1197    1209       4    1191
    1209       4    1188    1200       4    1182    1200       6    1182    1203
       7    1176    1179       8    1176    1197       4    1173    1191       4
    1170    1188       4    1167    1182       6    1164    1170       9    1164
    1179      10    1161    1173       4    1161    1176       4    1158    1167
       4    1158    1170       4    1155    1161      11    1155    1164      12
    1152    1155      13    1152    1158       8    1509    1521       2    1506
    1509       2    1491    1506       2    1482    1491       2    1473    1482
       2    1464    1473       2    1452    1464       2    1434    1452       2
    1428    1443       4    1422    1443       4    1419    1434       2    1416
    1428       4    1413    1422       4    1401    1419       5    1395    1413
       6    1395    1416       6    1389    1401       4    1383    1401       4
    1380    1392       4    1374    1392       6    1374    1395       7    1368
    1371       8    1368    1389       4    1365    1383       4    1362    1380
       4    1359    1374       6    1356    1362       9    1356    1371      10
    1353    1365       4    1353    1368       4    1350    1359       4    1350
    1362       4    1347    1353      11    1347    1356      12    1344    1347
      13    1344    1350       8    1701    1713       2    1698    1701       2
    1683    1698       2    1674    1683       2    1665    1674       2    1656
    1665       2    1644    1656       2    1626    1644       2    1620    1635
       4    1614    1635       4    1611    1626       2    1608    1620       4
    1605    1614       4    1593    1611       5    1587    1605       6    1587
    1608       6    1581    1593       4    1575    1593       4    1572    1584
       4    1566    1584       6    1566    1587       7    1560    1563       8
    1560    1581       4    1557    1575       4    1554    1572       4    1551
    1566       6    1548    1554       9    1548    1563      10    1545    1557
       4    1545    1560       4    1542    1551       4    1542    1554       4
    1539    1545      11    1539    1548      12    1536    1539      13    1536
    1542       8    1893    1905       2    1890    1893       2    1875    1890
       2    1866    1875       2    1857    1866       2    1848    1857       2
    1836    1848       2    1818    1836       2    1812    1827       4    1806
    1827       4    1803    1818       2    1800    1812       4    1797    1806
       4    1785    1803       5    1779    1797       6    1779    1800       6
    1773    1785       4    1767    1785       4    1764    1776       4    1758
    1776       6    1758    1779       7    1752    1755       8    1752    1773
       4    1749    1767       4    1746    1764       4    1743    1758       6
    1740    1746       9    1740    1755      10    1737    1749       4    1737
    1752       4    1734    1743       4    1734    1746       4    1731    1737
      11    1731    1740      12    1728    1731      13    1728    1734       8
    2085    2097       2    2082    2085       2    2067    2082       2    2058
    2067       2    2049    2058       2    2040    2049       2    2028    2040
       2    2010    2028       2    2004    2019       4    1998    2019       4
    1995    2010       2    1992    2004       4    1989    1998       4    1977
    1995       5    1971    1989       6    1971    1992       6    1965    1977
       4    1959    1977       4    1956    1968       4    1950    1968       6
    1950    1971       7    1944    1947       8    1944    1965       4    1941
    1959       4    1938    1956       4    1935    1950       6    1932    1938
       9    1932    1947      10    1929    1941       4    1929    1944       4
    1926    1935       4    1926    1938       4    1923    1929      11    1923
    1932      12    1920    1923      13    1920    1926       8    2277    2289
       2    2274    2277       2    2259    2274       2    2250    2259       2
    2241    2250       2    2232    2241       2    2220    2232       2    2202
    2220       2    2196    2211       4    2190    2211       4    2187    2202
       2    2184    2196       4    2181    2190       4    2169    2187       5
    2163    2181       6    2163    2184       6    2157    2169       4    2151
    2169       4    2148    2160       4    2142    2160       6    2142    2163
       7    2136    2139       8    2136    2157       4    2133    2151       4
    2130    2148       4    2127    2142       6    2124    2130       9    2124
    2139      10    2121    2133       4    2121    2136       4    2118    2127
       4    2118    2130       4    2115    2121      11    2115    2124      12
    2112    2115      13    2112    2118       8    2469    2481       2    2466
    2469       2    2451    2466       2    2442    2451       2    2433    2442
       2    2424    2433       2    2412    2424       2    2394    2412       2
    2388    2403       4    2382    2403       4    2379    2394       2    2376
    2388       4    2373    2382       4    2361    2379       5    2355    2373
       6    2355    2376       6    2349    2361       4    2343    2361       4
    2340    2352       4    2334    2352       6    2334    2355       7    2328
    2331       8    2328    2349       4    2325    2343       4    2322    2340
       4    2319    2334       6    2316    2322       9    2316    2331      10
    2313    2325       4    2313    2328       4    2310    2319       4    2310
    2322       4    2307    2313      11    2307    2316      12    2304    2307
      13    2304    2310       8    2661    2673       2    2658    2661       2
    2643    2658       2    2634    2643       2    2625    2634       2    2616
    2625       2    2604    2616       2    2586    2604       2    2580    2595
       4    2574    2595       4    2571    2586       2    2568    2580       4
    2565    2574       4    2553    2571       5    2547    2565       6    2547
    2568       6    2541    2553       4    2535    2553       4    2532    2544
       4    2526    2544       6    2526    2547       7    2520    2523       8
    2520    2541       4    2517    2535       4    2514    2532       4    2511
    2526       6    2508    2514       9    2508    2523      10    2505    2517
       4    2505    2520       4    2502    2511       4    2502    2514       4
    2499    2505      11    2499    2508      12    2496    2499      13    2496
    2502       8    2853    2865       2    2850    2853       2    2835    2850
       2    2826    2835       2    2817    2826       2    2808    2817       2
    2796    2808       2    2778    2796       2    2772    2787       4    2766
    2787       4    2763    2778       2    2760    2772       4    2757    2766
       4    2745    2763       5    2739    2757       6    2739    2760       6
    2733    2745       4    2727    2745       4    2724    2736       4    2718
    2736       6    2718    2739       7    2712    2715       8    2712    2733
       4    2709    2727       4    2706    2724       4    2703    2718       6
    2700    2706       9    2700    2715      10    2697    2709       4    2697
    2712       4    2694    2703       4    2694    2706       4    2691    2697
      11    2691    2700      12    2688    2691      13    2688    2694       8
    3045    3057       2    3042    3045       2    3027    3042       2    3018
    3027       2    3009    3018       2    3000    3009       2    2988    3000
       2    2970    2988       2    2964    2979       4    2958    2979       4
    2955    2970       2    2952    2964       4    2949    2958       4    2937
    2955       5    2931    2949       6    2931    2952       6    2925    2937
       4    2919    2937       4    2916    2928       4    2910    2928       6
    2910    2931       7    2904    2907       8    2904    2925       4    2901
    2919       4    2898    2916       4    2895    2910       6    2892    2898
       9    2892    2907      10    2889    2901       4    2889    2904       4
    2886    2895       4    2886    2898       4    2883    2889      11    2883
    2892      12    2880    2883      13    2880    2886       8    3237    3249
       2    3234    3237       2    3219    3234       2    3210    3219       2
    3201    3210       2    3192    3201       2    3180    3192       2    3162
    3180       2    3156    3171       4    3150    3171       4    3147    3162
       2    3144    3156       4    3141    3150       4    3129    3147       5
    3123    3141       6    3123    3144       6    3117    3129       4    3111
    3129       4    3108    3120       4    3102    3120       6    3102    3123
       7    3096    3099       8    3096    3117       4    3093    3111       4
    3090    3108       4    3087    3102       6    3084    3090       9    3084
    3099      10    3081    3093       4    3081    3096       4    3078    3087
       4    3078    3090       4    3075    3081      11    3075    3084      12
    3072    3075      13    3072    3078       8    3429    3441       2    3426
    3429       2    3411    3426       2    3402    3411       2    3393    3402
       2    3384    3393       2    3372    3384       2    3354    3372       2
    3348    3363       4    3342    3363       4    3339    3354       2    3336
    3348       4    3333    3342       4    3321    3339       5    3315    3333
       6    3315    3336       6    3309    3321       4    3303    3321       4
    3300    3312       4    3294    3312       6    3294    3315       7    3288
    3291       8    3288    3309       4    3285    3303       4    3282    3300
       4    3279    3294       6    3276    3282       9    3276    3291      10
    3273    3285       4    3273    3288       4    3270    3279       4    3270
    3282       4    3267    3273      11    3267    3276      12    3264    3267
      13    3264    3270       8    3621    3633       2    3618    3621       2
    3603    3618       2    3594    3603       2    3585    3594       2    3576
    3585       2    3564    3576       2    3546    3564       2    3540    3555
       4    3534    3555       4    3531    3546       2    3528    3540       4
    3525    3534       4    3513    3531       5    3507    3525       6    3507
    3528       6    3501    3513       4    3495    3513       4    3492    3504
       4    3486    3504       6    3486    3507       7    3480    3483       8
    3480    3501       4    3477    3495       4    3474    3492       4    3471
    3486       6    3468    3474       9    3468    3483      10    3465    3477
       4    3465    3480       4    3462    3471       4    3462    3474       4
    3459    3465      11    3459    3468      12    3456    3459      13    3456
    3462       8    3813    3825       2    3810    3813       2    3795    3810
       2    3786    3795       2    3777    3786       2    3768    3777       2
    3756    3768       2    3738    3756       2    3732    3747       4    3726
    3747       4    3723    3738       2    3720    3732       4    3717    3726
       4    3705    3723       5    3699    3717       6    3699    3720       6
    3693    3705       4    3687    3705       4    3684    3696       4    3678
    3696       6    3678    3699       7    3672    3675       8    3672    3693
       4    3669    3687       4    3666    3684       4    3663    3678       6
    3660    3666       9    3660    3675      10    3657    3669       4    3657
    3672       4    3654    3663       4    3654    3666       4    3651    3657
      11    3651    3660      12    3648    3651      13    3648    3654       8
    4005    4017       2    4002    4005       2    3987    4002       2    3978
    3987       2    3969    3978       2    3960    3969       2    3948    3960
       2    3930    3948       2    3924    3939       4    3918    3939       4
    3915    3930       2    3912    3924       4    3909    3918       4    3897
    3915       5    3891    3909       6    3891    3912       6    3885    3897
       4    3879    3897       4    3876    3888       4    3870    3888       6
    3870    3891       7    3864    3867       8    3864    3885       4    3861
    3879       4    3858    3876       4    3855    3870       6    3852    3858
       9    3852    3867      10    3849    3861       4    3849    3864       4
    3846    3855       4    3846    3858       4    3843    3849      11    3843
    3852      12    3840    3843      13    3840    3846       8    4197    4209
       2    4194    4197       2    4179    4194       2    4170    4179       2
    4161    4170       2    4152    4161       2    4140    4152       2    4122
    4140       2    4116    4131       4    4110    4131       4    4107    4122
       2    4104    4116       4    4101    4110       4    4089    4107       5
    4083    4101       6    4083    4104       6    4077    4089       4    4071
    4089       4    4068    4080       4    4062    4080       6    4062    4083
       7    4056    4059       8    4056    4077       4    4053    4071       4
    4050    4068       4    4047    4062       6    4044    4050       9    4044
    4059      10    4041    4053       4    4041    4056       4    4038    4047
       4    4038    4050       4    4035    4041      11    4035    4044      12
    4032    4035      13    4032    4038       8    4389    4401       2    4386
    4389       2    4371    4386       2    4362    4371       2    4353    4362
       2    4344    4353       2    4332    4344       2    4314    4332       2
    4308    4323       4    4302    4323       4    4299    4314       2    4296
    4308       4    4293    4302       4    4281    4299       5    4275    4293
       6    4275    4296       6    4269    4281       4    4263    4281       4
    4260    4272       4    4254    4272       6    4254    4275       7    4248
    4251       8    4248    4269       4    4245    4263       4    4242    4260
       4    4239    4254       6    4236    4242       9    4236    4251      10
    4233    4245       4    4233    4248       4    4230    4239       4    4230
    4242       4    4227    4233      11    4227    4236      12    4224    4227
      13    4224    4230       8    4581    4593       2    4578    4581       2
    4563    4578       2    4554    4563       2    4545    4554       2    4536
    4545       2    4524    4536       2    4506    4524       2    4500    4515
       4    4494    4515       4    4491    4506       2    4488    4500       4
    4485    4494       4    4473    4491       5    4467    4485       6    4467
    4488       6    4461    4473       4    4455    4473       4    4452    4464
       4    4446    4464       6    4446    4467       7    4440    4443       8
    4440    4461       4    4437    4455       4    4434    4452       4    4431
    4446       6    4428    4434       9    4428    4443      10    4425    4437
       4    4425    4440       4    4422    4431       4    4422    4434       4
    4419    4425      11    4419    4428      12    4416    4419      13    4416
    4422       8    4773    4785       2    4770    4773       2    4755    4770
       2    4746    4755       2    4737    4746       2    4728    4737       2
    4716    4728       2    4698    4716       2    4692    4707       4    4686
    4707       4    4683    4698       2    4680    4692       4    4677    4686
       4    4665    4683       5    4659    4677       6    4659    4680       6
    4653    4665       4    4647    4665       4    4644    4656       4    4638
    4656       6    4638    4659       7    4632    4635       8    4632    4653
       4    4629    4647       4    4626    4644       4    4623    4638       6
    4620    4626       9    4620    4635      10    4617    4629       4    4617
    4632       4    4614    4623       4    4614    4626       4    4611    4617
      11    4611    4620      12    4608    4611      13    4608    4614       8
    4965    4977       2    4962    4965       2    4947    4962       2    4938
    4947       2    4929    4938       2    4920    4929       2    4908    4920
       2    4890    4908       2    4884    4899       4    4878    4899       4
    4875    4890       2    4872    4884       4    4869    4878       4    4857
    4875       5    4851    4869       6    4851    4872       6    4845    4857
       4    4839    4857       4    4836    4848       4    4830    4848       6
    4830    4851       7    4824    4827       8    4824    4845       4    4821
    4839       4    4818    4836       4    4815    4830       6    4812    4818
       9    4812    4827      10    4809    4821       4    4809    4824       4
    4806    4815       4    4806    4818       4    4803    4809      11    4803
    4812      12    4800    4803      13    4800    4806       8    5157    5169
       2    5154    5157       2    5139    5154       2    5130    5139       2
    5121    5130       2    5112    5121       2    5100    5112       2    5082
    5100       2    5076    5091       4    5070    5091       4    5067    5082
       2    5064    5076       4    5061    5070       4    5049    5067       5
    5043    5061       6    5043    5064       6    5037    5049       4    5031
    5049       4    5028    5040       4    5022    5040       6    5022    5043
       7    5016    5019       8    5016    5037       4    5013    5031       4
    5010    5028       4    5007    5022       6    5004    5010       9    5004
    5019      10    5001    5013       4    5001    5016       4    4998    5007
       4    4998    5010       4    4995    5001      11    4995    5004      12
    4992    4995      13    4992    4998       8    5349    5361       2    5346
    5349       2    5331    5346       2    5322    5331       2    5313    5322
       2    5304    5313       2    5292    5304       2    5274    5292       2
    5268    5283       4    5262    5283       4    5259    5274       2    5256
    5268       4    5253    5262       4    5241    5259       5    5235    5253
       6    5235    5256       6    5229    5241       4    5223    5241       4
    5220    5232       4    5214    5232       6    5214    5235       7    5208
    5211       8    5208    5229       4    5205    5223       4    5202    5220
       4    5199    5214       6    5196    5202       9    5196    5211      10
    5193    5205       4    5193    5208       4    5190    5199       4    5190
    5202       4    5187    5193      11    5187    5196      12    5184    5187
      13    5184    5190       8    5541    5553       2    5538    5541       2
    5523    5538       2    5514    5523       2    5505    5514       2    5496
    5505       2    5484    5496       2    5466    5484       2    5460    5475
       4    5454    5475       4    5451    5466       2    5448    5460       4
    5445    5454       4    5433    5451       5    5427    5445       6    5427
    5448       6    5421    5433       4    5415    5433       4    5412    5424
       4    5406    5424       6    5406    5427       7    5400    5403       8
    5400    5421       4    5397    5415       4    5394    5412       4    5391
    5406       6    5388    5394       9    5388    5403      10    5385    5397
       4    5385    5400       4    5382    5391       4    5382    5394       4
    5379    5385      11    5379    5388      12    5376    5379      13    5376
    5382       8    5733    5745       2    5730    5733       2    5715    5730
       2    5706    5715       2    5697    5706       2    5688    5697       2
    5676    5688       2    5658    5676       2    5652    5667       4    5646
    5667       4    5643    5658       2    5640    5652       4    5637    5646
       4    5625    5643       5    5619    5637       6    5619    5640       6
    5613    5625       4    5607    5625       4    5604    5616       4    5598
    5616       6    5598    5619       7    5592    5595       8    5592    5613
       4    5589    5607       4    5586    5604       4    5583    5598       6
    5580    5586       9    5580    5595      10    5577    5589       4    5577
    5592       4    5574    5583       4    5574    5586       4    5571    5577
      11    5571    5580      12    5568    5571      13    5568    5574       8
    5925    5937       2    5922    5925       2    5907    5922       2    5898
    5907       2    5889    5898       2    5880    5889       2    5868    5880
       2    5850    5868       2    5844    5859       4    5838    5859       4
    5835    5850       2    5832    5844       4    5829    5838       4    5817
    5835       5    5811    5829       6    5811    5832       6    5805    5817
       4    5799    5817       4    5796    5808       4    5790    5808       6
    5790    5811       7    5784    5787       8    5784    5805       4    5781
    5799       4    5778    5796       4    5775    5790       6    5772    5778
       9    5772    5787      10    5769    5781       4    5769    5784       4
    5766    5775       4    5766    5778       4    5763    5769      11    5763
    5772      12    5760    5763      13    5760    5766       8    6117    6129
       2    6114    6117       2    6099    6114       2    6090    6099       2
    6081    6090       2    6072    6081       2    6060    6072       2    6042
    6060       2    6036    6051       4    6030    6051       4    6027    6042
       2    6024    6036       4    6021    6030       4    6009    6027       5
    6003    6021       6    6003    6024       6    5997    6009       4    5991
    6009       4    5988    6000       4    5982    6000       6    5982    6003
       7    5976    5979       8    5976    5997       4    5973    5991       4
    5970    5988       4    5967    5982       6    5964    5970       9    5964
    5979      10    5961    5973       4    5961    5976       4    5958    5967
       4    5958    5970       4    5955    5961      11    5955    5964      12
    5952    5955      13    5952    5958       8    6309    6321       2    6306
    6309       2    6291    6306       2    6282    6291       2    6273    6282
       2    6264    6273       2    6252    6264       2    6234    6252       2
    6228    6243       4    6222    6243       4    6219    6234       2    6216
    6228       4    6213    6222       4    6201    6219       5    6195    6213
       6    6195    6216       6    6189    6201       4    6183    6201       4
    6180    6192       4    6174    6192       6    6174    6195       7    6168
    6171       8    6168    6189       4    6165    6183       4    6162    6180
       4    6159    6174       6    6156    6162       9    6156    6171      10
    6153    6165       4    6153    6168       4    6150    6159       4    6150
    6162       4    6147    6153      11    6147    6156      12    6144    6147
      13    6144    6150       8    6501    6513       2    6498    6501       2
    6483    6498       2    6474    6483       2    6465    6474       2    6456
    6465       2    6444    6456       2    6426    6444       2    6420    6435
       4    6414    6435       4    6411    6426       2    6408    6420       4
    6405    6414       4    6393    6411       5    6387    6405       6    6387
    6408       6    6381    6393       4    6375    6393       4    6372    6384
       4    6366    6384       6    6366    6387       7    6360    6363       8
    6360    6381       4    6357    6375       4    6354    6372       4    6351
    6366       6    6348    6354       9    6348    6363      10    6345    6357
       4    6345    6360       4    6342    6351       4    6342    6354       4
    6339    6345      11    6339    6348      12    6336    6339      13    6336
    6342       8    6693    6705       2    6690    6693       2    6675    6690
       2    6666    6675       2    6657    6666       2    6648    6657       2
    6636    6648       2    6618    6636       2    6612    6627       4    6606
    6627       4    6603    6618       2    6600    6612       4    6597    6606
       4    6585    6603       5    6579    6597       6    6579    6600       6
    6573    6585       4    6567    6585       4    6564    6576       4    6558
    6576       6    6558    6579       7    6552    6555       8    6552    6573
       4    6549    6567       4    6546    6564       4    6543    6558       6
    6540    6546       9    6540    6555      10    6537    6549       4    6537
    6552       4    6534    6543       4    6534    6546       4    6531    6537
      11    6531    6540      12    6528    6531      13    6528    6534       8
    6885    6897       2    6882    6885       2    6867    6882       2    6858
    6867       2    6849    6858       2    6840    6849       2    6828    6840
       2    6810    6828       2    6804    6819       4    6798    6819       4
    6795    6810       2    6792    6804       4    6789    6798       4    6777
    6795       5    6771    6789       6    6771    6792       6    6765    6777
       4    6759    6777       4    6756    6768       4    6750    6768       6
    6750    6771       7    6744    6747       8    6744    6765       4    6741
    6759       4    6738    6756       4    6735    6750       6    6732    6738
       9    6732    6747      10    6729    6741       4    6729    6744       4
    6726    6735       4    6726    6738       4    6723    6729      11    6723
    6732      12    6720    6723      13    6720    6726       8    7077    7089
       2    7074    7077       2    7059    7074       2    7050    7059       2
    7041    7050       2    7032    7041       2    7020    7032       2    7002
    7020       2    6996    7011       4    6990    7011       4    6987    7002
       2    6984    6996       4    6981    6990       4    6969    6987       5
    6963    6981       6    6963    6984       6    6957    6969       4    6951
    6969       4    6948    6960       4    6942    6960       6    6942    6963
       7    6936    6939       8    6936    6957       4    6933    6951       4
    6930    6948       4    6927    6942       6    6924    6930       9    6924
    6939      10    6921    6933       4    6921    6936       4    6918    6927
       4    6918    6930       4    6915    6921      11    6915    6924      12
    6912    6915      13    6912    6918       8    7269    7281       2    7266
    7269       2    7251    7266       2    7242    7251       2    7233    7242
       2    7224    7233       2    7212    7224       2    7194    7212       2
    7188    7203       4    7182    7203       4    7179    7194       2    7176
    7188       4    7173    7182       4    7161    7179       5    7155    7173
       6    7155    7176       6    7149    7161       4    7143    7161       4
    7140    7152       4    7134    7152       6    7134    7155       7    7128
    7131       8    7128    7149       4    7125    7143       4    7122    7140
       4    7119    7134       6    7116    7122       9    7116    7131      10
    7113    7125       4    7113    7128       4    7110    7119       4    7110
    7122       4    7107    7113      11    7107    7116      12    7104    7107
      13    7104    7110       8    7461    7473       2    7458    7461       2
    7443    7458       2    7434    7443       2    7425    7434       2    7416
    7425       2    7404    7416       2    7386    7404       2    7380    7395
       4    7374    7395       4    7371    7386       2    7368    7380       4
    7365    7374       4    7353    7371       5    7347    7365       6    7347
    7368       6    7341    7353       4    7335    7353       4    7332    7344
       4    7326    7344       6    7326    7347       7    7320    7323       8
    7320    7341       4    7317    7335       4    7314    7332       4    7311
    7326       6    7308    7314       9    7308    7323      10    7305    7317
       4    7305    7320       4    7302    7311       4    7302    7314       4
    7299    7305      11    7299    7308      12    7296    7299      13    7296
    7302       8    7653    7665       2    7650    7653       2    7635    7650
       2    7626    7635       2    7617    7626       2    7608    7617       2
    7596    7608       2    7578    7596       2    7572    7587       4    7566
    7587       4    7563    7578       2    7560    7572       4    7557    7566
       4    7545    7563       5    7539    7557       6    7539    7560       6
    7533    7545       4    7527    7545       4    7524    7536       4    7518
    7536       6    7518    7539       7    7512    7515       8    7512    7533
       4    7509    7527       4    7506    7524       4    7503    7518       6
    7500    7506       9    7500    7515      10    7497    7509       4    7497
    7512       4    7494    7503       4    7494    7506       4    7491    7497
      11    7491    7500      12    7488    7491      13    7488    7494       8
    7845    7857       2    7842    7845       2    7827    7842       2    7818
    7827       2    7809    7818       2    7800    7809       2    7788    7800
       2    7770    7788       2    7764    7779       4    7758    7779       4
    7755    7770       2    7752    7764       4    7749    7758       4    7737
    7755       5    7731    7749       6    7731    7752       6    7725    7737
       4    7719    7737       4    7716    7728       4    7710    7728       6
    7710    7731       7    7704    7707       8    7704    7725       4    7701
    7719       4    7698    7716       4    7695    7710       6    7692    7698
       9    7692    7707      10    7689    7701       4    7689    7704       4
    7686    7695       4    7686    7698       4    7683    7689      11    7683
    7692      12    7680    7683      13    7680    7686       8    8037    8049
       2    8034    8037       2    8019    8034       2    8010    8019       2
    8001    8010       2    7992    8001       2    7980    7992       2    7962
    7980       2    7956    7971       4    7950    7971       4    7947    7962
       2    7944    7956       4    7941    7950       4    7929    7947       5
    7923    7941       6    7923    7944       6    7917    7929       4    7911
    7929       4    7908    7920       4    7902    7920       6    7902    7923
       7    7896    7899       8    7896    7917       4    7893    7911       4
    7890    7908       4    7887    7902       6    7884    7890       9    7884
    7899      10    7881    7893       4    7881    7896       4    7878    7887
       4    7878    7890       4    7875    7881      11    7875    7884      12
    7872    7875      13    7872    7878       8    8229    8241       2    8226
    8229       2    8211    8226       2    8202    8211       2    8193    8202
       2    8184    8193       2    8172    8184       2    8154    8172       2
    8148    8163       4    8142    8163       4    8139    8154       2    8136
    8148       4    8133    8142       4    8121    8139       5    8115    8133
       6    8115    8136       6    8109    8121       4    8103    8121       4
    8100    8112       4    8094    8112       6    8094    8115       7    8088
    8091       8    8088    8109       4    8085    8103       4    8082    8100
       4    8079    8094       6    8076    8082       9    8076    8091      10
    8073    8085       4    8073    8088       4    8070    8079       4    8070
    8082       4    8067    8073      11    8067    8076      12    8064    8067
      13    8064    8070       8    8421    8433       2    8418    8421       2
    8403    8418       2    8394    8403       2    8385    8394       2    8376
    8385       2    8364    8376       2    8346    8364       2    8340    8355
       4    8334    8355       4    8331    8346       2    8328    8340       4
    8325    8334       4    8313    8331       5    8307    8325       6    8307
    8328       6    8301    8313       4    8295    8313       4    8292    8304
       4    8286    8304       6    8286    8307       7    8280    8283       8
    8280    8301       4    8277    8295       4    8274    8292       4    8271
    8286       6    8268    8274       9    8268    8283      10    8265    8277
       4    8265    8280       4    8262    8271       4    8262    8274       4
    8259    8265      11    8259    8268      12    8256    8259      13    8256
    8262       8    8613    8625       2    8610    8613       2    8595    8610
       2    8586    8595       2    8577    8586       2    8568    8577       2
    8556    8568       2    8538    8556       2    8532    8547       4    8526
    8547       4    8523    8538       2    8520    8532       4    8517    8526
       4    8505    8523       5    8499    8517       6    8499    8520       6
    8493    8505       4    8487    8505       4    8484    8496       4    8478
    8496       6    8478    8499       7    8472    8475       8    8472    8493
       4    8469    8487       4    8466    8484       4    8463    8478       6
    8460    8466       9    8460    8475      10    8457    8469       4    8457
    8472       4    8454    8463       4    8454    8466       4    8451    8457
      11    8451    8460      12    8448    8451      13    8448    8454       8
    8805    8817       2    8802    8805       2    8787    8802       2    8778
    8787       2    8769    8778       2    8760    8769       2    8748    8760
       2    8730    8748       2    8724    8739       4    8718    8739       4
    8715    8730       2    8712    8724       4    8709    8718       4    8697
    8715       5    8691    8709       6    8691    8712       6    8685    8697
       4    8679    8697       4    8676    8688       4    8670    8688       6
    8670    8691       7    8664    8667       8    8664    8685       4    8661
    8679       4    8658    8676       4    8655    8670       6    8652    8658
       9    8652    8667      10    8649    8661       4    8649    8664       4
    8646    8655       4    8646    8658       4    8643    8649      11    8643
    8652      12    8640    8643      13    8640    8646       8    8997    9009
       2    8994    8997       2    8979    8994       2    8970    8979       2
    8961    8970       2    8952    8961       2    8940    8952       2    8922
    8940       2    8916    8931       4    8910    8931       4    8907    8922
       2    8904    8916       4    8901    8910       4    8889    8907       5
    8883    8901       6    8883    8904       6    8877    8889       4    8871
    8889       4    8868    8880       4    8862    8880       6    8862    8883
       7    8856    8859       8    8856    8877       4    8853    8871       4
    8850    8868       4    8847    8862       6    8844    8850       9    8844
    8859      10    8841    8853       4    8841    8856       4    8838    8847
       4    8838    8850       4    8835    8841      11    8835    8844      12
    8832    8835      13    8832    8838       8    9189    9201       2    9186
    9189       2    9171    9186       2    9162    9171       2    9153    9162
       2    9144    9153       2    9132    9144       2    9114    9132       2
    9108    9123       4    9102    9123       4    9099    9114       2    9096
    9108       4    9093    9102       4    9081    9099       5    9075    9093
       6    9075    9096       6    9069    9081       4    9063    9081       4
    9060    9072       4    9054    9072       6    9054    9075       7    9048
    9051       8    9048    9069       4    9045    9063       4    9042    9060
       4    9039    9054       6    9036    9042       9    9036    9051      10
    9033    9045       4    9033    9048       4    9030    9039       4    9030
    9042       4    9027    9033      11    9027    9036      12    9024    9027
      13    9024    9030       8    9381    9393       2    9378    9381       2
    9363    9378       2    9354    9363       2    9345    9354       2    9336
    9345       2    9324    9336       2    9306    9324       2    9300    9315
       4    9294    9315       4    9291    9306       2    9288    9300       4
    9285    9294       4    9273    9291       5    9267    9285       6    9267
    9288       6    9261    9273       4    9255    9273       4    9252    9264
       4    9246    9264       6    9246    9267       7    9240    9243       8
    9240    9261       4    9237    9255       4    9234    9252       4    9231
    9246       6    9228    9234       9    9228    9243      10    9225    9237
       4    9225    9240       4    9222    9231       4    9222    9234       4
    9219    9225      11    9219    9228      12    9216    9219      13    9216
    9222       8    9573    9585       2    9570    9573       2    9555    9570
       2    9546    9555       2    9537    9546       2    9528    9537       2
    9516    9528       2    9498    9516       2    9492    9507       4    9486
    9507       4    9483    9498       2    9480    9492       4    9477    9486
       4    9465    9483       5    9459    9477       6    9459    9480       6
    9453    9465       4    9447    9465       4    9444    9456       4    9438
    9456       6    9438    9459       7    9432    9435       8    9432    9453
       4    9429    9447       4    9426    9444       4    9423    9438       6
    9420    9426       9    9420    9435      10    9417    9429       4    9417
    9432       4    9414    9423       4    9414    9426       4    9411    9417
      11    9411    9420      12    9408    9411      13    9408    9414       8
    9765    9777       2    9762    9765       2    9747    9762       2    9738
    9747       2    9729    9738       2    9720    9729       2    9708    9720
       2    9690    9708       2    9684    9699       4    9678    9699       4
    9675    9690       2    9672    9684       4    9669    9678       4    9657
    9675       5    9651    9669       6    9651    9672       6    9645    9657
       4    9639    9657       4    9636    9648       4    9630    9648       6
    9630    9651       7    9624    9627       8    9624    9645       4    9621
    9639       4    9618    9636       4    9615    9630       6    9612    9618
       9    9612    9627      10    9609    9621       4    9609    9624       4
    9606    9615       4    9606    9618       4    9603    9609      11    9603
    9612      12    9600    9603      13    9600    9606       8    9957    9969
       2    9954    9957       2    9939    9954       2    9930    9939       2
    9921    9930       2    9912    9921       2    9900    9912       2    9882
    9900       2    9876    9891       4    9870    9891       4    9867    9882
       2    9864    9876       4    9861    9870       4    9849    9867       5
    9843    9861       6    9843    9864       6    9837    9849       4    9831
    9849       4    9828    9840       4    9822    9840       6    9822    9843
       7    9816    9819       8    9816    9837       4    9813    9831       4
    9810    9828       4    9807    9822       6    9804    9810       9    9804
    9819      10    9801    9813       4    9801    9816       4    9798    9807
       4    9798    9810       4    9795    9801      11    9795    9804      12
    9792    9795      13    9792    9798       8   10149   10161       2   10146
   10149       2   10131   10146       2   10122   10131       2   10113   10122
       2   10104   10113       2   10092   10104       2   10074   10092       2
   10068   10083       4   10062   10083       4   10059   10074       2   10056
   10068       4   10053   10062       4   10041   10059       5   10035   10053
       6   10035   10056       6   10029   10041       4   10023   10041       4
   10020   10032       4   10014   10032       6   10014   10035       7   10008
   10011       8   10008   10029       4   10005   10023       4   10002   10020
       4    9999   10014       6    9996   10002       9    9996   10011      10
    9993   10005       4    9993   10008       4    9990    9999       4    9990
   10002       4    9987    9993      11    9987    9996      12    9984    9987
      13    9984    9990       8   10341   10353       2   10338   10341       2
   10323   10338       2   10314   10323       2   10305   10314       2   10296
   10305       2   10284   10296       2   10266   10284       2   10260   10275
       4   10254   10275       4   10251   10266       2   10248   10260       4
   10245   10254       4   10233   10251       5   10227   10245       6   10227
   10248       6   10221   10233       4   10215   10233       4   10212   10224
       4   10206   10224       6   10206   10227       7   10200   10203       8
   10200   10221       4   10197   10215       4   10194   10212       4   10191
   10206       6   10188   10194       9   10188   10203      10   10185   10197
       4   10185   10200       4   10182   10191       4   10182   10194       4
   10179   10185      11   10179   10188      12   10176   10179      13   10176
   10182       8   10533   10545       2   10530   10533       2   10515   10530
       2   10506   10515       2   10497   10506       2   10488   10497       2
   10476   10488       2   10458   10476       2   10452   10467       4   10446
   10467       4   10443   10458       2   10440   10452       4   10437   10446
       4   10425   10443       5   10419   10437       6   10419   10440       6
   10413   10425       4   10407   10425       4   10404   10416       4   10398
   10416       6   10398   10419       7   10392   10395       8   10392   10413
       4   10389   10407       4   10386   10404       4   10383   10398       6
   10380   10386       9   10380   10395      10   10377   10389       4   10377
   10392       4   10374   10383       4   10374   10386       4   10371   10377
      11   10371   10380      12   10368   10371      13   10368   10374       8
   10725   10737       2   10722   10725       2   10707   10722       2   10698
   10707       2   10689   10698       2   10680   10689       2   10668   10680
       2   10650   10668       2   10644   10659       4   10638   10659       4
   10635   10650       2   10632   10644       4   10629   10638       4   10617
   10635       5   10611   10629       6   10611   10632       6   10605   10617
       4   10599   10617       4   10596   10608       4   10590   10608       6
   10590   10611       7   10584   10587       8   10584   10605       4   10581
   10599       4   10578   10596       4   10575   10590       6   10572   10578
       9   10572   10587      10   10569   10581       4   10569   10584       4
   10566   10575       4   10566   10578       4   10563   10569      11   10563
   10572      12   10560   10563      13   10560   10566       8   10917   10929
       2   10914   10917       2   10899   10914       2   10890   10899       2
   10881   10890       2   10872   10881       2   10860   10872       2   10842
   10860       2   10836   10851       4   10830   10851       4   10827   10842
       2   10824   10836       4   10821   10830       4   10809   10827       5
   10803   10821       6   10803   10824       6   10797   10809       4   10791
   10809       4   10788   10800       4   10782   10800       6   10782   10803
       7   10776   10779       8   10776   10797       4   10773   10791       4
   10770   10788       4   10767   10782       6   10764   10770       9   10764
   10779      10   10761   10773       4   10761   10776       4   10758   10767
       4   10758   10770       4   10755   10761      11   10755   10764      12
   10752   10755      13   10752   10758       8   11109   11121       2   11106
   11109       2   11091   11106       2   11082   11091       2   11073   11082
       2   11064   11073       2   11052   11064       2   11034   11052       2
   11028   11043       4   11022   11043       4   11019   11034       2   11016
   11028       4   11013   11022       4   11001   11019       5   10995   11013
       6   10995   11016       6   10989   11001       4   10983   11001       4
   10980   10992       4   10974   10992       6   10974   10995       7   10968
   10971       8   10968   10989       4   10965   10983       4   10962   10980
       4   10959   10974       6   10956   10962       9   10956   10971      10
   10953   10965       4   10953   10968       4   10950   10959       4   10950
   10962       4   10947   10953      11   10947   10956      12   10944   10947
      13   10944   10950       8   11301   11313       2   11298   11301       2
   11283   11298       2   11274   11283       2   11265   11274       2   11256
   11265       2   11244   11256       2   11226   11244       2   11220   11235
       4   11214   11235       4   11211   11226       2   11208   11220       4
   11205   11214       4   11193   11211       5   11187   11205       6   11187
   11208       6   11181   11193       4   11175   11193       4   11172   11184
       4   11166   11184       6   11166   11187       7   11160   11163       8
   11160   11181       4   11157   11175       4   11154   11172       4   11151
   11166       6   11148   11154       9   11148   11163      10   11145   11157
       4   11145   11160       4   11142   11151       4   11142   11154       4
   11139   11145      11   11139   11148      12   11136   11139      13   11136
   11142       8   11493   11505       2   11490   11493       2   11475   11490
       2   11466   11475       2   11457   11466       2   11448   11457       2
   11436   11448       2   11418   11436       2   11412   11427       4   11406
   11427       4   11403   11418       2   11400   11412       4   11397   11406
       4   11385   11403       5   11379   11397       6   11379   11400       6
   11373   11385       4   11367   11385       4   11364   11376       4   11358
   11376       6   11358   11379       7   11352   11355       8   11352   11373
       4   11349   11367       4   11346   11364       4   11343   11358       6
   11340   11346       9   11340   11355      10   11337   11349       4   11337
   11352       4   11334   11343       4   11334   11346       4   11331   11337
      11   11331   11340      12   11328   11331      13   11328   11334       8
   11685   11697       2   11682   11685       2   11667   11682       2   11658
   11667       2   11649   11658       2   11640   11649       2   11628   11640
       2   11610   11628       2   11604   11619       4   11598   11619       4
   11595   11610       2   11592   11604       4   11589   11598       4   11577
   11595       5   11571   11589       6   11571   11592       6   11565   11577
       4   11559   11577       4   11556   11568       4   11550   11568       6
   11550   11571       7   11544   11547       8   11544   11565       4   11541
   11559       4   11538   11556       4   11535   11550       6   11532   11538
       9   11532   11547      10   11529   11541       4   11529   11544       4
   11526   11535       4   11526   11538       4   11523   11529      11   11523
   11532      12   11520   11523      13   11520   11526       8   11877   11889
       2   11874   11877       2   11859   11874       2   11850   11859       2
   11841   11850       2   11832   11841       2   11820   11832       2   11802
   11820       2   11796   11811       4   11790   11811       4   11787   11802
       2   11784   11796       4   11781   11790       4   11769   11787       5
   11763   11781       6   11763   11784       6   11757   11769       4   11751
   11769       4   11748   11760       4   11742   11760       6   11742   11763
       7   11736   11739       8   11736   11757       4   11733   11751       4
   11730   11748       4   11727   11742       6   11724   11730       9   11724
   11739      10   11721   11733       4   11721   11736       4   11718   11727
       4   11718   11730       4   11715   11721      11   11715   11724      12
   11712   11715      13   11712   11718       8   12069   12081       2   12066
   12069       2   12051   12066       2   12042   12051       2   12033   12042
       2   12024   12033       2   12012   12024       2   11994   12012       2
   11988   12003       4   11982   12003       4   11979   11994       2   11976
   11988       4   11973   11982       4   11961   11979       5   11955   11973
       6   11955   11976       6   11949   11961       4   11943   11961       4
   11940   11952       4   11934   11952       6   11934   11955       7   11928
   11931       8   11928   11949       4   11925   11943       4   11922   11940
       4   11919   11934       6   11916   11922       9   11916   11931      10
   11913   11925       4   11913   11928       4   11910   11919       4   11910
   11922       4   11907   11913      11   11907   11916      12   11904   11907
      13   11904   11910       8   12261   12273       2   12258   12261       2
   12243   12258       2   12234   12243       2   12225   12234       2   12216
   12225       2   12204   12216       2   12186   12204       2   12180   12195
       4   12174   12195       4   12171   12186       2   12168   12180       4
   12165   12174       4   12153   12171       5   12147   12165       6   12147
   12168       6   12141   12153       4   12135   12153       4   12132   12144
       4   12126   12144       6   12126   12147       7   12120   12123       8
   12120   12141       4   12117   12135       4   12114   12132       4   12111
   12126       6   12108   12114       9   12108   12123      10   12105   12117
       4   12105   12120       4   12102   12111       4   12102   12114       4
   12099   12105      11   12099   12108      12   12096   12099      13   12096
   12102       8   12453   12465       2   12450   12453       2   12435   12450
       2   12426   12435       2   12417   12426       2   12408   12417       2
   12396   12408       2   12378   12396       2   12372   12387       4   12366
   12387       4   12363   12378       2   12360   12372       4   12357   12366
       4   12345   12363       5   12339   12357       6   12339   12360       6
   12333   12345       4   12327   12345       4   12324   12336       4   12318
   12336       6   12318   12339       7   12312   12315       8   12312   12333
       4   12309   12327       4   12306   12324       4   12303   12318       6
   12300   12306       9   12300   12315      10   12297   12309       4   12297
   12312       4   12294   12303       4   12294   12306       4   12291   12297
      11   12291   12300      12   12288   12291      13   12288   12294       8
   12645   12657       2   12642   12645       2   12627   12642       2   12618
   12627       2   12609   12618       2   12600   12609       2   12588   12600
       2   12570   12588       2   12564   12579       4   12558   12579       4
   12555   12570       2   12552   12564       4   12549   12558       4   12537
   12555       5   12531   12549       6   12531   12552       6   12525   12537
       4   12519   12537       4   12516   12528       4   12510   12528       6
   12510   12531       7   12504   12507       8   12504   12525       4   12501
   12519       4   12498   12516       4   12495   12510       6   12492   12498
       9   12492   12507      10   12489   12501       4   12489   12504       4
   12486   12495       4   12486   12498       4   12483   12489      11   12483
   12492      12   12480   12483      13   12480   12486       8   12837   12849
       2   12834   12837       2   12819   12834       2   12810   12819       2
   12801   12810       2   12792   12801       2   12780   12792       2   12762
   12780       2   12756   12771       4   12750   12771       4   12747   12762
       2   12744   12756       4   12741   12750       4   12729   12747       5
   12723   12741       6   12723   12744       6   12717   12729       4   12711
   12729       4   12708   12720       4   12702   12720       6   12702   12723
       7   12696   12699       8   12696   12717       4   12693   12711       4
   12690   12708       4   12687   12702       6   12684   12690       9   12684
   12699      10   12681   12693       4   12681   12696       4   12678   12687
       4   12678   12690       4   12675   12681      11   12675   12684      12
   12672   12675      13   12672   12678       8   13029   13041       2   13026
   13029       2   13011   13026       2   13002   13011       2   12993   13002
       2   12984   12993       2   12972   12984       2   12954   12972       2
   12948   12963       4   12942   12963       4   12939   12954       2   12936
   12948       4   12933   12942       4   12921   12939       5   12915   12933
       6   12915   12936       6   12909   12921       4   12903   12921       4
   12900   12912       4   12894   12912       6   12894   12915       7   12888
   12891       8   12888   12909       4   12885   12903       4   12882   12900
       4   12879   12894       6   12876   12882       9   12876   12891      10
   12873   12885       4   12873   12888       4   12870   12879       4   12870
   12882       4   12867   12873      11   12867   12876      12   12864   12867
      13   12864   12870       8   13221   13233       2   13218   13221       2
   13203   13218       2   13194   13203       2   13185   13194       2   13176
   13185       2   13164   13176       2   13146   13164       2   13140   13155
       4   13134   13155       4   13131   13146       2   13128   13140       4
   13125   13134       4   13113   13131       5   13107   13125       6   13107
   13128       6   13101   13113       4   13095   13113       4   13092   13104
       4   13086   13104       6   13086   13107       7   13080   13083       8
   13080   13101       4   13077   13095       4   13074   13092       4   13071
   13086       6   13068   13074       9   13068   13083      10   13065   13077
       4   13065   13080       4   13062   13071       4   13062   13074       4
   13059   13065      11   13059   13068      12   13056   13059      13   13056
   13062       8   13413   13425       2   13410   13413       2   13395   13410
       2   13386   13395       2   13377   13386       2   13368   13377       2
   13356   13368       2   13338   13356       2   13332   13347       4   13326
   13347       4   13323   13338       2   13320   13332       4   13317   13326
       4   13305   13323       5   13299   13317       6   13299   13320       6
   13293   13305       4   13287   13305       4   13284   13296       4   13278
   13296       6   13278   13299       7   13272   13275       8   13272   13293
       4   13269   13287       4   13266   13284       4   13263   13278       6
   13260   13266       9   13260   13275      10   13257   13269       4   13257
   13272       4   13254   13263       4   13254   13266       4   13251   13257
      11   13251   13260      12   13248   13251      13   13248   13254       8
   13605   13617       2   13602   13605       2   13587   13602       2   13578
   13587       2   13569   13578       2   13560   13569       2   13548   13560
       2   13530   13548       2   13524   13539       4   13518   13539       4
   13515   13530       2   13512   13524       4   13509   13518       4   13497
   13515       5   13491   13509       6   13491   13512       6   13485   13497
       4   13479   13497       4   13476   13488       4   13470   13488       6
   13470   13491       7   13464   13467       8   13464   13485       4   13461
   13479       4   13458   13476       4   13455   13470       6   13452   13458
       9   13452   13467      10   13449   13461       4   13449   13464       4
   13446   13455       4   13446   13458       4   13443   13449      11   13443
   13452      12   13440   13443      13   13440   13446       8   13797   13809
       2   13794   13797       2   13779   13794       2   13770   13779       2
   13761   13770       2   13752   13761       2   13740   13752       2   13722
   13740       2   13716   13731       4   13710   13731       4   13707   13722
       2   13704   13716       4   13701   13710       4   13689   13707       5
   13683   13701       6   13683   13704       6   13677   13689       4   13671
   13689       4   13668   13680       4   13662   13680       6   13662   13683
       7   13656   13659       8   13656   13677       4   13653   13671       4
   13650   13668       4   13647   13662       6   13644   13650       9   13644
   13659      10   13641   13653       4   13641   13656       4   13638   13647
       4   13638   13650       4   13635   13641      11   13635   13644      12
   13632   13635      13   13632   13638       8   13989   14001       2   13986
   13989       2   13971   13986       2   13962   13971       2   13953   13962
       2   13944   13953       2   13932   13944       2   13914   13932       2
   13908   13923       4   13902   13923       4   13899   13914       2   13896
   13908       4   13893   13902       4   13881   13899       5   13875   13893
       6   13875   13896       6   13869   13881       4   13863   13881       4
   13860   13872       4   13854   13872       6   13854   13875       7   13848
   13851       8   13848   13869       4   13845   13863       4   13842   13860
       4   13839   13854       6   13836   13842       9   13836   13851      10
   13833   13845       4   13833   13848       4   13830   13839       4   13830
   13842       4   13827   13833      11   13827   13836      12   13824   13827
      13   13824   13830       8   14181   14193       2   14178   14181       2
   14163   14178       2   14154   14163       2   14145   14154       2   14136
   14145       2   14124   14136       2   14106   14124       2   14100   14115
       4   14094   14115       4   14091   14106       2   14088   14100       4
   14085   14094       4   14073   14091       5   14067   14085       6   14067
   14088       6   14061   14073       4   14055   14073       4   14052   14064
       4   14046   14064       6   14046   14067       7   14040   14043       8
   14040   14061       4   14037   14055       4   14034   14052       4   14031
   14046       6   14028   14034       9   14028   14043      10   14025   14037
       4   14025   14040       4   14022   14031       4   14022   14034       4
   14019   14025      11   14019   14028      12   14016   14019      13   14016
   14022       8   14373   14385       2   14370   14373       2   14355   14370
       2   14346   14355       2   14337   14346       2   14328   14337       2
   14316   14328       2   14298   14316       2   14292   14307       4   14286
   14307       4   14283   14298       2   14280   14292       4   14277   14286
       4   14265   14283       5   14259   14277       6   14259   14280       6
   14253   14265       4   14247   14265       4   14244   14256       4   14238
   14256       6   14238   14259       7   14232   14235       8   14232   14253
       4   14229   14247       4   14226   14244       4   14223   14238       6
   14220   14226       9   14220   14235      10   14217   14229       4   14217
   14232       4   14214   14223       4   14214   14226       4   14211   14217
      11   14211   14220      12   14208   14211      13   14208   14214       8
   14565   14577       2   14562   14565       2   14547   14562       2   14538
   14547       2   14529   14538       2   14520   14529       2   14508   14520
       2   14490   14508       2   14484   14499       4   14478   14499       4
   14475   14490       2   14472   14484       4   14469   14478       4   14457
   14475       5   14451   14469       6   14451   14472       6   14445   14457
       4   14439   14457       4   14436   14448       4   14430   14448       6
   14430   14451       7   14424   14427       8   14424   14445       4   14421
   14439       4   14418   14436       4   14415   14430       6   14412   14418
       9   14412   14427      10   14409   14421       4   14409   14424       4
   14406   14415       4   14406   14418       4   14403   14409      11   14403
   14412      12   14400   14403      13   14400   14406       8   14757   14769
       2   14754   14757       2   14739   14754       2   14730   14739       2
   14721   14730       2   14712   14721       2   14700   14712       2   14682
   14700       2   14676   14691       4   14670   14691       4   14667   14682
       2   14664   14676       4   14661   14670       4   14649   14667       5
   14643   14661       6   14643   14664       6   14637   14649       4   14631
   14649       4   14628   14640       4   14622   14640       6   14622   14643
       7   14616   14619       8   14616   14637       4   14613   14631       4
   14610   14628       4   14607   14622       6   14604   14610       9   14604
   14619      10   14601   14613       4   14601   14616       4   14598   14607
       4   14598   14610       4   14595   14601      11   14595   14604      12
   14592   14595      13   14592   14598       8   14949   14961       2   14946
   14949       2   14931   14946       2   14922   14931       2   14913   14922
       2   14904   14913       2   14892   14904       2   14874   14892       2
   14868   14883       4   14862   14883       4   14859   14874       2   14856
   14868       4   14853   14862       4   14841   14859       5   14835   14853
       6   14835   14856       6   14829   14841       4   14823   14841       4
   14820   14832       4   14814   14832       6   14814   14835       7   14808
   14811       8   14808   14829       4   14805   14823       4   14802   14820
       4   14799   14814       6   14796   14802       9   14796   14811      10
   14793   14805       4   14793   14808       4   14790   14799       4   14790
   14802       4   14787   14793      11   14787   14796      12   14784   14787
      13   14784   14790       8   15141   15153       2   15138   15141       2
   15123   15138       2   15114   15123       2   15105   15114       2   15096
   15105       2   15084   15096       2   15066   15084       2   15060   15075
       4   15054   15075       4   15051   15066       2   15048   15060       4
   15045   15054       4   15033   15051       5   15027   15045       6   15027
   15048       6   15021   15033       4   15015   15033       4   15012   15024
       4   15006   15024       6   15006   15027       7   15000   15003       8
   15000   15021       4   14997   15015       4   14994   15012       4   14991
   15006       6   14988   14994       9   14988   15003      10   14985   14997
       4   14985   15000       4   14982   14991       4   14982   14994       4
   14979   14985      11   14979   14988      12   14976   14979      13   14976
   14982       8   15333   15345       2   15330   15333       2   15315   15330
       2   15306   15315       2   15297   15306       2   15288   15297       2
   15276   15288       2   15258   15276       2   15252   15267       4   15246
   15267       4   15243   15258       2   15240   15252       4   15237   15246
       4   15225   15243       5   15219   15237       6   15219   15240       6
   15213   15225       4   15207   15225       4   15204   15216       4   15198
   15216       6   15198   15219       7   15192   15195       8   15192   15213
       4   15189   15207       4   15186   15204       4   15183   15198       6
   15180   15186       9   15180   15195      10   15177   15189       4   15177
   15192       4   15174   15183       4   15174   15186       4   15171   15177
      11   15171   15180      12   15168   15171      13   15168   15174       8
   15525   15537       2   15522   15525       2   15507   15522       2   15498
   15507       2   15489   15498       2   15480   15489       2   15468   15480
       2   15450   15468       2   15444   15459       4   15438   15459       4
   15435   15450       2   15432   15444       4   15429   15438       4   15417
   15435       5   15411   15429       6   15411   15432       6   15405   15417
       4   15399   15417       4   15396   15408       4   15390   15408       6
   15390   15411       7   15384   15387       8   15384   15405       4   15381
   15399       4   15378   15396       4   15375   15390       6   15372   15378
       9   15372   15387      10   15369   15381       4   15369   15384       4
   15366   15375       4   15366   15378       4   15363   15369      11   15363
   15372      12   15360   15363      13   15360   15366       8   15717   15729
       2   15714   15717       2   15699   15714       2   15690   15699       2
   15681   15690       2   15672   15681       2   15660   15672       2   15642
   15660       2   15636   15651       4   15630   15651       4   15627   15642
       2   15624   15636       4   15621   15630       4   15609   15627       5
   15603   15621       6   15603   15624       6   15597   15609       4   15591
   15609       4   15588   15600       4   15582   15600       6   15582   15603
       7   15576   15579       8   15576   15597       4   15573   15591       4
   15570   15588       4   15567   15582       6   15564   15570       9   15564
   15579      10   15561   15573       4   15561   15576       4   15558   15567
       4   15558   15570       4   15555   15561      11   15555   15564      12
   15552   15555      13   15552   15558       8   15909   15921       2   15906
   15909       2   15891   15906       2   15882   15891       2   15873   15882
       2   15864   15873       2   15852   15864       2   15834   15852       2
   15828   15843       4   15822   15843       4   15819   15834       2   15816
   15828       4   15813   15822       4   15801   15819       5   15795   15813
       6   15795   15816       6   15789   15801       4   15783   15801       4
   15780   15792       4   15774   15792       6   15774   15795       7   15768
   15771       8   15768   15789       4   15765   15783       4   15762   15780
       4   15759   15774       6   15756   15762       9   15756   15771      10
   15753   15765       4   15753   15768       4   15750   15759       4   15750
   15762       4   15747   15753      11   15747   15756      12   15744   15747
      13   15744   15750       8   16101   16113       2   16098   16101       2
   16083   16098       2   16074   16083       2   16065   16074       2   16056
   16065       2   16044   16056       2   16026   16044       2   16020   16035
       4   16014   16035       4   16011   16026       2   16008   16020       4
   16005   16014       4   15993   16011       5   15987   16005       6   15987
   16008       6   15981   15993       4   15975   15993       4   15972   15984
       4   15966   15984       6   15966   15987       7   15960   15963       8
   15960   15981       4   15957   15975       4   15954   15972       4   15951
   15966       6   15948   15954       9   15948   15963      10   15945   15957
       4   15945   15960       4   15942   15951       4   15942   15954       4
   15939   15945      11   15939   15948      12   15936   15939      13   15936
   15942       8   16293   16305       2   16290   16293       2   16275   16290
       2   16266   16275       2   16257   16266       2   16248   16257       2
   16236   16248       2   16218   16236       2   16212   16227       4   16206
   16227       4   16203   16218       2   16200   16212       4   16197   16206
       4   16185   16203       5   16179   16197       6   16179   16200       6
   16173   16185       4   16167   16185       4   16164   16176       4   16158
   16176       6   16158   16179       7   16152   16155       8   16152   16173
       4   16149   16167       4   16146   16164       4   16143   16158       6
   16140   16146       9   16140   16155      10   16137   16149       4   16137
   16152       4   16134   16143       4   16134   16146       4   16131   16137
      11   16131   16140      12   16128   16131      13   16128   16134       8
   16485   16497       2   16482   16485       2   16467   16482       2   16458
   16467       2   16449   16458       2   16440   16449       2   16428   16440
       2   16410   16428       2   16404   16419       4   16398   16419       4
   16395   16410       2   16392   16404       4   16389   16398       4   16377
   16395       5   16371   16389       6   16371   16392       6   16365   16377
       4   16359   16377       4   16356   16368       4   16350   16368       6
   16350   16371       7   16344   16347       8   16344   16365       4   16341
   16359       4   16338   16356       4   16335   16350       6   16332   16338
       9   16332   16347      10   16329   16341       4   16329   16344       4
   16326   16335       4   16326   16338       4   16323   16329      11   16323
   16332      12   16320   16323      13   16320   16326       8   16677   16689
       2   16674   16677       2   16659   16674       2   16650   16659       2
   16641   16650       2   16632   16641       2   16620   16632       2   16602
   16620       2   16596   16611       4   16590   16611       4   16587   16602
       2   16584   16596       4   16581   16590       4   16569   16587       5
   16563   16581       6   16563   16584       6   16557   16569       4   16551
   16569       4   16548   16560       4   16542   16560       6   16542   16563
       7   16536   16539       8   16536   16557       4   16533   16551       4
   16530   16548       4   16527   16542       6   16524   16530       9   16524
   16539      10   16521   16533       4   16521   16536       4   16518   16527
       4   16518   16530       4   16515   16521      11   16515   16524      12
   16512   16515      13   16512   16518       8   16869   16881       2   16866
   16869       2   16851   16866       2   16842   16851       2   16833   16842
       2   16824   16833       2   16812   16824       2   16794   16812       2
   16788   16803       4   16782   16803       4   16779   16794       2   16776
   16788       4   16773   16782       4   16761   16779       5   16755   16773
       6   16755   16776       6   16749   16761       4   16743   16761       4
   16740   16752       4   16734   16752       6   16734   16755       7   16728
   16731       8   16728   16749       4   16725   16743       4   16722   16740
       4   16719   16734       6   16716   16722       9   16716   16731      10
   16713   16725       4   16713   16728       4   16710   16719       4   16710
   16722       4   16707   16713      11   16707   16716      12   16704   16707
      13   16704   16710       8   17061   17073       2   17058   17061       2
   17043   17058       2   17034   17043       2   17025   17034       2   17016
   17025       2   17004   17016       2   16986   17004       2   16980   16995
       4   16974   16995       4   16971   16986       2   16968   16980       4
   16965   16974       4   16953   16971       5   16947   16965       6   16947
   16968       6   16941   16953       4   16935   16953       4   16932   16944
       4   16926   16944       6   16926   16947       7   16920   16923       8
   16920   16941       4   16917   16935       4   16914   16932       4   16911
   16926       6   16908   16914       9   16908   16923      10   16905   16917
       4   16905   16920       4   16902   16911       4   16902   16914       4
   16899   16905      11   16899   16908      12   16896   16899      13   16896
   16902       8   17253   17265       2   17250   17253       2   17235   17250
       2   17226   17235       2   17217   17226       2   17208   17217       2
   17196   17208       2   17178   17196       2   17172   17187       4   17166
   17187       4   17163   17178       2   17160   17172       4   17157   17166
       4   17145   17163       5   17139   17157       6   17139   17160       6
   17133   17145       4   17127   17145       4   17124   17136       4   17118
   17136       6   17118   17139       7   17112   17115       8   17112   17133
       4   17109   17127       4   17106   17124       4   17103   17118       6
   17100   17106       9   17100   17115      10   17097   17109       4   17097
   17112       4   17094   17103       4   17094   17106       4   17091   17097
      11   17091   17100      12   17088   17091      13   17088   17094       8
   17445   17457       2   17442   17445       2   17427   17442       2   17418
   17427       2   17409   17418       2   17400   17409       2   17388   17400
       2   17370   17388       2   17364   17379       4   17358   17379       4
   17355   17370       2   17352   17364       4   17349   17358       4   17337
   17355       5   17331   17349       6   17331   17352       6   17325   17337
       4   17319   17337       4   17316   17328       4   17310   17328       6
   17310   17331       7   17304   17307       8   17304   17325       4   17301
   17319       4   17298   17316       4   17295   17310       6   17292   17298
       9   17292   17307      10   17289   17301       4   17289   17304       4
   17286   17295       4   17286   17298       4   17283   17289      11   17283
   17292      12   17280   17283      13   17280   17286       8   17637   17649
       2   17634   17637       2   17619   17634       2   17610   17619       2
   17601   17610       2   17592   17601       2   17580   17592       2   17562
   17580       2   17556   17571       4   17550   17571       4   17547   17562
       2   17544   17556       4   17541   17550       4   17529   17547       5
   17523   17541       6   17523   17544       6   17517   17529       4   17511
   17529       4   17508   17520       4   17502   17520       6   17502   17523
       7   17496   17499       8   17496   17517       4   17493   17511       4
   17490   17508       4   17487   17502       6   17484   17490       9   17484
   17499      10   17481   17493       4   17481   17496       4   17478   17487
       4   17478   17490       4   17475   17481      11   17475   17484      12
   17472   17475      13   17472   17478       8   17829   17841       2   17826
   17829       2   17811   17826       2   17802   17811       2   17793   17802
       2   17784   17793       2   17772   17784       2   17754   17772       2
   17748   17763       4   17742   17763       4   17739   17754       2   17736
   17748       4   17733   17742       4   17721   17739       5   17715   17733
       6   17715   17736       6   17709   17721       4   17703   17721       4
   17700   17712       4   17694   17712       6   17694   17715       7   17688
   17691       8   17688   17709       4   17685   17703       4   17682   17700
       4   17679   17694       6   17676   17682       9   17676   17691      10
   17673   17685       4   17673   17688       4   17670   17679       4   17670
   17682       4   17667   17673      11   17667   17676      12   17664   17667
      13   17664   17670       8   18021   18033       2   18018   18021       2
   18003   18018       2   17994   18003       2   17985   17994       2   17976
   17985       2   17964   17976       2   17946   17964       2   17940   17955
       4   17934   17955       4   17931   17946       2   17928   17940       4
   17925   17934       4   17913   17931       5   17907   17925       6   17907
   17928       6   17901   17913       4   17895   17913       4   17892   17904
       4   17886   17904       6   17886   17907       7   17880   17883       8
   17880   17901       4   17877   17895       4   17874   17892       4   17871
   17886       6   17868   17874       9   17868   17883      10   17865   17877
       4   17865   17880       4   17862   17871       4   17862   17874       4
   17859   17865      11   17859   17868      12   17856   17859      13   17856
   17862       8   18213   18225       2   18210   18213       2   18195   18210
       2   18186   18195       2   18177   18186       2   18168   18177       2
   18156   18168       2   18138   18156       2   18132   18147       4   18126
   18147       4   18123   18138       2   18120   18132       4   18117   18126
       4   18105   18123       5   18099   18117       6   18099   18120       6
   18093   18105       4   18087   18105       4   18084   18096       4   18078
   18096       6   18078   18099       7   18072   18075       8   18072   18093
       4   18069   18087       4   18066   18084       4   18063   18078       6
   18060   18066       9   18060   18075      10   18057   18069       4   18057
   18072       4   18054   18063       4   18054   18066       4   18051   18057
      11   18051   18060      12   18048   18051      13   18048   18054       8
   18405   18417       2   18402   18405       2   18387   18402       2   18378
   18387       2   18369   18378       2   18360   18369       2   18348   18360
       2   18330   18348       2   18324   18339       4   18318   18339       4
   18315   18330       2   18312   18324       4   18309   18318       4   18297
   18315       5   18291   18309       6   18291   18312       6   18285   18297
       4   18279   18297       4   18276   18288       4   18270   18288       6
   18270   18291       7   18264   18267       8   18264   18285       4   18261
   18279       4   18258   18276       4   18255   18270       6   18252   18258
       9   18252   18267      10   18249   18261       4   18249   18264       4
   18246   18255       4   18246   18258       4   18243   18249      11   18243
   18252      12   18240   18243      13   18240   18246       8   18597   18609
       2   18594   18597       2   18579   18594       2   18570   18579       2
   18561   18570       2   18552   18561       2   18540   18552       2   18522
   18540       2   18516   18531       4   18510   18531       4   18507   18522
       2   18504   18516       4   18501   18510       4   18489   18507       5
   18483   18501       6   18483   18504       6   18477   18489       4   18471
   18489       4   18468   18480       4   18462   18480       6   18462   18483
       7   18456   18459       8   18456   18477       4   18453   18471       4
   18450   18468       4   18447   18462       6   18444   18450       9   18444
   18459      10   18441   18453       4   18441   18456       4   18438   18447
       4   18438   18450       4   18435   18441      11   18435   18444      12
   18432   18435      13   18432   18438       8   18789   18801       2   18786
   18789       2   18771   18786       2   18762   18771       2   18753   18762
       2   18744   18753       2   18732   18744       2   18714   18732       2
   18708   18723       4   18702   18723       4   18699   18714       2   18696
   18708       4   18693   18702       4   18681   18699       5   18675   18693
       6   18675   18696       6   18669   18681       4   18663   18681       4
   18660   18672       4   18654   18672       6   18654   18675       7   18648
   18651       8   18648   18669       4   18645   18663       4   18642   18660
       4   18639   18654       6   18636   18642       9   18636   18651      10
   18633   18645       4   18633   18648       4   18630   18639       4   18630
   18642       4   18627   18633      11   18627   18636      12   18624   18627
      13   18624   18630       8   18981   18993       2   18978   18981       2
   18963   18978       2   18954   18963       2   18945   18954       2   18936
   18945       2   18924   18936       2   18906   18924       2   18900   18915
       4   18894   18915       4   18891   18906       2   18888   18900       4
   18885   18894       4   18873   18891       5   18867   18885       6   18867
   18888       6   18861   18873       4   18855   18873       4   18852   18864
       4   18846   18864       6   18846   18867       7   18840   18843       8
   18840   18861       4   18837   18855       4   18834   18852       4   18831
   18846       6   18828   18834       9   18828   18843      10   18825   18837
       4   18825   18840       4   18822   18831       4   18822   18834       4
   18819   18825      11   18819   18828      12   18816   18819      13   18816
   18822       8   19173   19185       2   19170   19173       2   19155   19170
       2   19146   19155       2   19137   19146       2   19128   19137       2
   19116   19128       2   19098   19116       2   19092   19107       4   19086
   19107       4   19083   19098       2   19080   19092       4   19077   19086
       4   19065   19083       5   19059   19077       6   19059   19080       6
   19053   19065       4   19047   19065       4   19044   19056       4   19038
   19056       6   19038   19059       7   19032   19035       8   19032   19053
       4   19029   19047       4   19026   19044       4   19023   19038       6
   19020   19026       9   19020   19035      10   19017   19029       4   19017
   19032       4   19014   19023       4   19014   19026       4   19011   19017
      11   19011   19020      12   19008   19011      13   19008   19014       8
   19365   19377       2   19362   19365       2   19347   19362       2   19338
   19347       2   19329   19338       2   19320   19329       2   19308   19320
       2   19290   19308       2   19284   19299       4   19278   19299       4
   19275   19290       2   19272   19284       4   19269   19278       4   19257
   19275       5   19251   19269       6   19251   19272       6   19245   19257
       4   19239   19257       4   19236   19248       4   19230   19248       6
   19230   19251       7   19224   19227       8   19224   19245       4   19221
   19239       4   19218   19236       4   19215   19230       6   19212   19218
       9   19212   19227      10   19209   19221       4   19209   19224       4
   19206   19215       4   19206   19218       4   19203   19209      11   19203
   19212      12   19200   19203      13   19200   19206       8   19557   19569
       2   19554   19557       2   19539   19554       2   19530   19539       2
   19521   19530       2   19512   19521       2   19500   19512       2   19482
   19500       2   19476   19491       4   19470   19491       4   19467   19482
       2   19464   19476       4   19461   19470       4   19449   19467       5
   19443   19461       6   19443   19464       6   19437   19449       4   19431
   19449       4   19428   19440       4   19422   19440       6   19422   19443
       7   19416   19419       8   19416   19437       4   19413   19431       4
   19410   19428       4   19407   19422       6   19404   19410       9   19404
   19419      10   19401   19413       4   19401   19416       4   19398   19407
       4   19398   19410       4   19395   19401      11   19395   19404      12
   19392   19395      13   19392   19398       8   19749   19761       2   19746
   19749       2   19731   19746       2   19722   19731       2   19713   19722
       2   19704   19713       2   19692   19704       2   19674   19692       2
   19668   19683       4   19662   19683       4   19659   19674       2   19656
   19668       4   19653   19662       4   19641   19659       5   19635   19653
       6   19635   19656       6   19629   19641       4   19623   19641       4
   19620   19632       4   19614   19632       6   19614   19635       7   19608
   19611       8   19608   19629       4   19605   19623       4   19602   19620
       4   19599   19614       6   19596   19602       9   19596   19611      10
   19593   19605       4   19593   19608       4   19590   19599       4   19590
   19602       4   19587   19593      11   19587   19596      12   19584   19587
      13   19584   19590       8   19941   19953       2   19938   19941       2
   19923   19938       2   19914   19923       2   19905   19914       2   19896
   19905       2   19884   19896       2   19866   19884       2   19860   19875
       4   19854   19875       4   19851   19866       2   19848   19860       4
   19845   19854       4   19833   19851       5   19827   19845       6   19827
   19848       6   19821   19833       4   19815   19833       4   19812   19824
       4   19806   19824       6   19806   19827       7   19800   19803       8
   19800   19821       4   19797   19815       4   19794   19812       4   19791
   19806       6   19788   19794       9   19788   19803      10   19785   19797
       4   19785   19800       4   19782   19791       4   19782   19794       4
   19779   19785      11   19779   19788      12   19776   19779      13   19776
   19782       8   20133   20145       2   20130   20133       2   20115   20130
       2   20106   20115       2   20097   20106       2   20088   20097       2
   20076   20088       2   20058   20076       2   20052   20067       4   20046
   20067       4   20043   20058       2   20040   20052       4   20037   20046
       4   20025   20043       5   20019   20037       6   20019   20040       6
   20013   20025       4   20007   20025       4   20004   20016       4   19998
   20016       6   19998   20019       7   19992   19995       8   19992   20013
       4   19989   20007       4   19986   20004       4   19983   19998       6
   19980   19986       9   19980   19995      10   19977   19989       4   19977
   19992       4   19974   19983       4   19974   19986       4   19971   19977
      11   19971   19980      12   19968   19971      13   19968   19974       8
   20325   20337       2   20322   20325       2   20307   20322       2   20298
   20307       2   20289   20298       2   20280   20289       2   20268   20280
       2   20250   20268       2   20244   20259       4   20238   20259       4
   20235   20250       2   20232   20244       4   20229   20238       4   20217
   20235       5   20211   20229       6   20211   20232       6   20205   20217
       4   20199   20217       4   20196   20208       4   20190   20208       6
   20190   20211       7   20184   20187       8   20184   20205       4   20181
   20199       4   20178   20196       4   20175   20190       6   20172   20178
       9   20172   20187      10   20169   20181       4   20169   20184       4
   20166   20175       4   20166   20178       4   20163   20169      11   20163
   20172      12   20160   20163      13   20160   20166       8   20517   20529
       2   20514   20517       2   20499   20514       2   20490   20499       2
   20481   20490       2   20472   20481       2   20460   20472       2   20442
   20460       2   20436   20451       4   20430   20451       4   20427   20442
       2   20424   20436       4   20421   20430       4   20409   20427       5
   20403   20421       6   20403   20424       6   20397   20409       4   20391
   20409       4   20388   20400       4   20382   20400       6   20382   20403
       7   20376   20379       8   20376   20397       4   20373   20391       4
   20370   20388       4   20367   20382       6   20364   20370       9   20364
   20379      10   20361   20373       4   20361   20376       4   20358   20367
       4   20358   20370       4   20355   20361      11   20355   20364      12
   20352   20355      13   20352   20358       8   20709   20721       2   20706
   20709       2   20691   20706       2   20682   20691       2   20673   20682
       2   20664   20673       2   20652   20664       2   20634   20652       2
   20628   20643       4   20622   20643       4   20619   20634       2   20616
   20628       4   20613   20622       4   20601   20619       5   20595   20613
       6   20595   20616       6   20589   20601       4   20583   20601       4
   20580   20592       4   20574   20592       6   20574   20595       7   20568
   20571       8   20568   20589       4   20565   20583       4   20562   20580
       4   20559   20574       6   20556   20562       9   20556   20571      10
   20553   20565       4   20553   20568       4   20550   20559       4   20550
   20562       4   20547   20553      11   20547   20556      12   20544   20547
      13   20544   20550       8   20901   20913       2   20898   20901       2
   20883   20898       2   20874   20883       2   20865   20874       2   20856
   20865       2   20844   20856       2   20826   20844       2   20820   20835
       4   20814   20835       4   20811   20826       2   20808   20820       4
   20805   20814       4   20793   20811       5   20787   20805       6   20787
   20808       6   20781   20793       4   20775   20793       4   20772   20784
       4   20766   20784       6   20766   20787       7   20760   20763       8
   20760   20781       4   20757   20775       4   20754   20772       4   20751
   20766       6   20748   20754       9   20748   20763      10   20745   20757
       4   20745   20760       4   20742   20751       4   20742   20754       4
   20739   20745      11   20739   20748      12   20736   20739      13   20736
   20742       8   21093   21105       2   21090   21093       2   21075   21090
       2   21066   21075       2   21057   21066       2   21048   21057       2
   21036   21048       2   21018   21036       2   21012   21027       4   21006
   21027       4   21003   21018       2   21000   21012       4   20997   21006
       4   20985   21003       5   20979   20997       6   20979   21000       6
   20973   20985       4   20967   20985       4   20964   20976       4   20958
   20976       6   20958   20979       7   20952   20955       8   20952   20973
       4   20949   20967       4   20946   20964       4   20943   20958       6
   20940   20946       9   20940   20955      10   20937   20949       4   20937
   20952       4   20934   20943       4   20934   20946       4   20931   20937
      11   20931   20940      12   20928   20931      13   20928   20934       8
   21285   21297       2   21282   21285       2   21267   21282       2   21258
   21267       2   21249   21258       2   21240   21249       2   21228   21240
       2   21210   21228       2   21204   21219       4   21198   21219       4
   21195   21210       2   21192   21204       4   21189   21198       4   21177
   21195       5   21171   21189       6   21171   21192       6   21165   21177
       4   21159   21177       4   21156   21168       4   21150   21168       6
   21150   21171       7   21144   21147       8   21144   21165       4   21141
   21159       4   21138   21156       4   21135   21150       6   21132   21138
       9   21132   21147      10   21129   21141       4   21129   21144       4
   21126   21135       4   21126   21138       4   21123   21129      11   21123
   21132      12   21120   21123      13   21120   21126       8   21477   21489
       2   21474   21477       2   21459   21474       2   21450   21459       2
   21441   21450       2   21432   21441       2   21420   21432       2   21402
   21420       2   21396   21411       4   21390   21411       4   21387   21402
       2   21384   21396       4   21381   21390       4   21369   21387       5
   21363   21381       6   21363   21384       6   21357   21369       4   21351
   21369       4   21348   21360       4   21342   21360       6   21342   21363
       7   21336   21339       8   21336   21357       4   21333   21351       4
   21330   21348       4   21327   21342       6   21324   21330       9   21324
   21339      10   21321   21333       4   21321   21336       4   21318   21327
       4   21318   21330       4   21315   21321      11   21315   21324      12
   21312   21315      13   21312   21318       8   21669   21681       2   21666
   21669       2   21651   21666       2   21642   21651       2   21633   21642
       2   21624   21633       2   21612   21624       2   21594   21612       2
   21588   21603       4   21582   21603       4   21579   21594       2   21576
   21588       4   21573   21582       4   21561   21579       5   21555   21573
       6   21555   21576       6   21549   21561       4   21543   21561       4
   21540   21552       4   21534   21552       6   21534   21555       7   21528
   21531       8   21528   21549       4   21525   21543       4   21522   21540
       4   21519   21534       6   21516   21522       9   21516   21531      10
   21513   21525       4   21513   21528       4   21510   21519       4   21510
   21522       4   21507   21513      11   21507   21516      12   21504   21507
      13   21504   21510       8   21861   21873       2   21858   21861       2
   21843   21858       2   21834   21843       2   21825   21834       2   21816
   21825       2   21804   21816       2   21786   21804       2   21780   21795
       4   21774   21795       4   21771   21786       2   21768   21780       4
   21765   21774       4   21753   21771       5   21747   21765       6   21747
   21768       6   21741   21753       4   21735   21753       4   21732   21744
       4   21726   21744       6   21726   21747       7   21720   21723       8
   21720   21741       4   21717   21735       4   21714   21732       4   21711
   21726       6   21708   21714       9   21708   21723      10   21705   21717
       4   21705   21720       4   21702   21711       4   21702   21714       4
   21699   21705      11   21699   21708      12   21696   21699      13   21696
   21702       8   22053   22065       2   22050   22053       2   22035   22050
       2   22026   22035       2   22017   22026       2   22008   22017       2
   21996   22008       2   21978   21996       2   21972   21987       4   21966
   21987       4   21963   21978       2   21960   21972       4   21957   21966
       4   21945   21963       5   21939   21957       6   21939   21960       6
   21933   21945       4   21927   21945       4   21924   21936       4   21918
   21936       6   21918   21939       7   21912   21915       8   21912   21933
       4   21909   21927       4   21906   21924       4   21903   21918       6
   21900   21906       9   21900   21915      10   21897   21909       4   21897
   21912       4   21894   21903       4   21894   21906       4   21891   21897
      11   21891   21900      12   21888   21891      13   21888   21894       8
   22245   22257       2   22242   22245       2   22227   22242       2   22218
   22227       2   22209   22218       2   22200   22209       2   22188   22200
       2   22170   22188       2   22164   22179       4   22158   22179       4
   22155   22170       2   22152   22164       4   22149   22158       4   22137
   22155       5   22131   22149       6   22131   22152       6   22125   22137
       4   22119   22137       4   22116   22128       4   22110   22128       6
   22110   22131       7   22104   22107       8   22104   22125       4   22101
   22119       4   22098   22116       4   22095   22110       6   22092   22098
       9   22092   22107      10   22089   22101       4   22089   22104       4
   22086   22095       4   22086   22098       4   22083   22089      11   22083
   22092      12   22080   22083      13   22080   22086       8   22437   22449
       2   22434   22437       2   22419   22434       2   22410   22419       2
   22401   22410       2   22392   22401       2   22380   22392       2   22362
   22380       2   22356   22371       4   22350   22371       4   22347   22362
       2   22344   22356       4   22341   22350       4   22329   22347       5
   22323   22341       6   22323   22344       6   22317   22329       4   22311
   22329       4   22308   22320       4   22302   22320       6   22302   22323
       7   22296   22299       8   22296   22317       4   22293   22311       4
   22290   22308       4   22287   22302       6   22284   22290       9   22284
   22299      10   22281   22293       4   22281   22296       4   22278   22287
       4   22278   22290       4   22275   22281      11   22275   22284      12
   22272   22275      13   22272   22278       8   22629   22641       2   22626
   22629       2   22611   22626       2   22602   22611       2   22593   22602
       2   22584   22593       2   22572   22584       2   22554   22572       2
   22548   22563       4   22542   22563       4   22539   22554       2   22536
   22548       4   22533   22542       4   22521   22539       5   22515   22533
       6   22515   22536       6   22509   22521       4   22503   22521       4
   22500   22512       4   22494   22512       6   22494   22515       7   22488
   22491       8   22488   22509       4   22485   22503       4   22482   22500
       4   22479   22494       6   22476   22482       9   22476   22491      10
   22473   22485       4   22473   22488       4   22470   22479       4   22470
   22482       4   22467   22473      11   22467   22476      12   22464   22467
      13   22464   22470       8   22821   22833       2   22818   22821       2
   22803   22818       2   22794   22803       2   22785   22794       2   22776
   22785       2   22764   22776       2   22746   22764       2   22740   22755
       4   22734   22755       4   22731   22746       2   22728   22740       4
   22725   22734       4   22713   22731       5   22707   22725       6   22707
   22728       6   22701   22713       4   22695   22713       4   22692   22704
       4   22686   22704       6   22686   22707       7   22680   22683       8
   22680   22701       4   22677   22695       4   22674   22692       4   22671
   22686       6   22668   22674       9   22668   22683      10   22665   22677
       4   22665   22680       4   22662   22671       4   22662   22674       4
   22659   22665      11   22659   22668      12   22656   22659      13   22656
   22662       8   23013   23025       2   23010   23013       2   22995   23010
       2   22986   22995       2   22977   22986       2   22968   22977       2
   22956   22968       2   22938   22956       2   22932   22947       4   22926
   22947       4   22923   22938       2   22920   22932       4   22917   22926
       4   22905   22923       5   22899   22917       6   22899   22920       6
   22893   22905       4   22887   22905       4   22884   22896       4   22878
   22896       6   22878   22899       7   22872   22875       8   22872   22893
       4   22869   22887       4   22866   22884       4   22863   22878       6
   22860   22866       9   22860   22875      10   22857   22869       4   22857
   22872       4   22854   22863       4   22854   22866       4   22851   22857
      11   22851   22860      12   22848   22851      13   22848   22854       8
   23205   23217       2   23202   23205       2   23187   23202       2   23178
   23187       2   23169   23178       2   23160   23169       2   23148   23160
       2   23130   23148       2   23124   23139       4   23118   23139       4
   23115   23130       2   23112   23124       4   23109   23118       4   23097
   23115       5   23091   23109       6   23091   23112       6   23085   23097
       4   23079   23097       4   23076   23088       4   23070   23088       6
   23070   23091       7   23064   23067       8   23064   23085       4   23061
   23079       4   23058   23076       4   23055   23070       6   23052   23058
       9   23052   23067      10   23049   23061       4   23049   23064       4
   23046   23055       4   23046   23058       4   23043   23049      11   23043
   23052      12   23040   23043      13   23040   23046       8   23397   23409
       2   23394   23397       2   23379   23394       2   23370   23379       2
   23361   23370       2   23352   23361       2   23340   23352       2   23322
   23340       2   23316   23331       4   23310   23331       4   23307   23322
       2   23304   23316       4   23301   23310       4   23289   23307       5
   23283   23301       6   23283   23304       6   23277   23289       4   23271
   23289       4   23268   23280       4   23262   23280       6   23262   23283
       7   23256   23259       8   23256   23277       4   23253   23271       4
   23250   23268       4   23247   23262       6   23244   23250       9   23244
   23259      10   23241   23253       4   23241   23256       4   23238   23247
       4   23238   23250       4   23235   23241      11   23235   23244      12
   23232   23235      13   23232   23238       8   23589   23601       2   23586
   23589       2   23571   23586       2   23562   23571       2   23553   23562
       2   23544   23553       2   23532   23544       2   23514   23532       2
   23508   23523       4   23502   23523       4   23499   23514       2   23496
   23508       4   23493   23502       4   23481   23499       5   23475   23493
       6   23475   23496       6   23469   23481       4   23463   23481       4
   23460   23472       4   23454   23472       6   23454   23475       7   23448
   23451       8   23448   23469       4   23445   23463       4   23442   23460
       4   23439   23454       6   23436   23442       9   23436   23451      10
   23433   23445       4   23433   23448       4   23430   23439       4   23430
   23442       4   23427   23433      11   23427   23436      12   23424   23427
      13   23424   23430       8   23781   23793       2   23778   23781       2
   23763   23778       2   23754   23763       2   23745   23754       2   23736
   23745       2   23724   23736       2   23706   23724       2   23700   23715
       4   23694   23715       4   23691   23706       2   23688   23700       4
   23685   23694       4   23673   23691       5   23667   23685       6   23667
   23688       6   23661   23673       4   23655   23673       4   23652   23664
       4   23646   23664       6   23646   23667       7   23640   23643       8
   23640   23661       4   23637   23655       4   23634   23652       4   23631
   23646       6   23628   23634       9   23628   23643      10   23625   23637
       4   23625   23640       4   23622   23631       4   23622   23634       4
   23619   23625      11   23619   23628      12   23616   23619      13   23616
   23622       8   23973   23985       2   23970   23973       2   23955   23970
       2   23946   23955       2   23937   23946       2   23928   23937       2
   23916   23928       2   23898   23916       2   23892   23907       4   23886
   23907       4   23883   23898       2   23880   23892       4   23877   23886
       4   23865   23883       5   23859   23877       6   23859   23880       6
   23853   23865       4   23847   23865       4   23844   23856       4   23838
   23856       6   23838   23859       7   23832   23835       8   23832   23853
       4   23829   23847       4   23826   23844       4   23823   23838       6
   23820   23826       9   23820   23835      10   23817   23829       4   23817
   23832       4   23814   23823       4   23814   23826       4   23811   23817
      11   23811   23820      12   23808   23811      13   23808   23814       8
   24165   24177       2   24162   24165       2   24147   24162       2   24138
   24147       2   24129   24138       2   24120   24129       2   24108   24120
       2   24090   24108       2   24084   24099       4   24078   24099       4
   24075   24090       2   24072   24084       4   24069   24078       4   24057
   24075       5   24051   24069       6   24051   24072       6   24045   24057
       4   24039   24057       4   24036   24048       4   24030   24048       6
   24030   24051       7   24024   24027       8   24024   24045       4   24021
   24039       4   24018   24036       4   24015   24030       6   24012   24018
       9   24012   24027      10   24009   24021       4   24009   24024       4
   24006   24015       4   24006   24018       4   24003   24009      11   24003
   24012      12   24000   24003      13   24000   24006       8   24357   24369
       2   24354   24357       2   24339   24354       2   24330   24339       2
   24321   24330       2   24312   24321       2   24300   24312       2   24282
   24300       2   24276   24291       4   24270   24291       4   24267   24282
       2   24264   24276       4   24261   24270       4   24249   24267       5
   24243   24261       6   24243   24264       6   24237   24249       4   24231
   24249       4   24228   24240       4   24222   24240       6   24222   24243
       7   24216   24219       8   24216   24237       4   24213   24231       4
   24210   24228       4   24207   24222       6   24204   24210       9   24204
   24219      10   24201   24213       4   24201   24216       4   24198   24207
       4   24198   24210       4   24195   24201      11   24195   24204      12
   24192   24195      13   24192   24198       8   24549   24561       2   24546
   24549       2   24531   24546       2   24522   24531       2   24513   24522
       2   24504   24513       2   24492   24504       2   24474   24492       2
   24468   24483       4   24462   24483       4   24459   24474       2   24456
   24468       4   24453   24462       4   24441   24459       5   24435   24453
       6   24435   24456       6   24429   24441       4   24423   24441       4
   24420   24432       4   24414   24432       6   24414   24435       7   24408
   24411       8   24408   24429       4   24405   24423       4   24402   24420
       4   24399   24414       6   24396   24402       9   24396   24411      10
   24393   24405       4   24393   24408       4   24390   24399       4   24390
   24402       4   24387   24393      11   24387   24396      12   24384   24387
      13   24384   24390       8   24741   24753       2   24738   24741       2
   24723   24738       2   24714   24723       2   24705   24714       2   24696
   24705       2   24684   24696       2   24666   24684       2   24660   24675
       4   24654   24675       4   24651   24666       2   24648   24660       4
   24645   24654       4   24633   24651       5   24627   24645       6   24627
   24648       6   24621   24633       4   24615   24633       4   24612   24624
       4   24606   24624       6   24606   24627       7   24600   24603       8
   24600   24621       4   24597   24615       4   24594   24612       4   24591
   24606       6   24588   24594       9   24588   24603      10   24585   24597
       4   24585   24600       4   24582   24591       4   24582   24594       4
   24579   24585      11   24579   24588      12   24576   24579      13   24576
   24582       8   24933   24945       2   24930   24933       2   24915   24930
       2   24906   24915       2   24897   24906       2   24888   24897       2
   24876   24888       2   24858   24876       2   24852   24867       4   24846
   24867       4   24843   24858       2   24840   24852       4   24837   24846
       4   24825   24843       5   24819   24837       6   24819   24840       6
   24813   24825       4   24807   24825       4   24804   24816       4   24798
   24816       6   24798   24819       7   24792   24795       8   24792   24813
       4   24789   24807       4   24786   24804       4   24783   24798       6
   24780   24786       9   24780   24795      10   24777   24789       4   24777
   24792       4   24774   24783       4   24774   24786       4   24771   24777
      11   24771   24780      12   24768   24771      13   24768   24774       8
   25125   25137       2   25122   25125       2   25107   25122       2   25098
   25107       2   25089   25098       2   25080   25089       2   25068   25080
       2   25050   25068       2   25044   25059       4   25038   25059       4
   25035   25050       2   25032   25044       4   25029   25038       4   25017
   25035       5   25011   25029       6   25011   25032       6   25005   25017
       4   24999   25017       4   24996   25008       4   24990   25008       6
   24990   25011       7   24984   24987       8   24984   25005       4   24981
   24999       4   24978   24996       4   24975   24990       6   24972   24978
       9   24972   24987      10   24969   24981       4   24969   24984       4
   24966   24975       4   24966   24978       4   24963   24969      11   24963
   24972      12   24960   24963      13   24960   24966       8   25317   25329
       2   25314   25317       2   25299   25314       2   25290   25299       2
   25281   25290       2   25272   25281       2   25260   25272       2   25242
   25260       2   25236   25251       4   25230   25251       4   25227   25242
       2   25224   25236       4   25221   25230       4   25209   25227       5
   25203   25221       6   25203   25224       6   25197   25209       4   25191
   25209       4   25188   25200       4   25182   25200       6   25182   25203
       7   25176   25179       8   25176   25197       4   25173   25191       4
   25170   25188       4   25167   25182       6   25164   25170       9   25164
   25179      10   25161   25173       4   25161   25176       4   25158   25167
       4   25158   25170       4   25155   25161      11   25155   25164      12
   25152   25155      13   25152   25158       8   25509   25521       2   25506
   25509       2   25491   25506       2   25482   25491       2   25473   25482
       2   25464   25473       2   25452   25464       2   25434   25452       2
   25428   25443       4   25422   25443       4   25419   25434       2   25416
   25428       4   25413   25422       4   25401   25419       5   25395   25413
       6   25395   25416       6   25389   25401       4   25383   25401       4
   25380   25392       4   25374   25392       6   25374   25395       7   25368
   25371       8   25368   25389       4   25365   25383       4   25362   25380
       4   25359   25374       6   25356   25362       9   25356   25371      10
   25353   25365       4   25353   25368       4   25350   25359       4   25350
   25362       4   25347   25353      11   25347   25356      12   25344   25347
      13   25344   25350       8   25701   25713       2   25698   25701       2
   25683   25698       2   25674   25683       2   25665   25674       2   25656
   25665       2   25644   25656       2   25626   25644       2   25620   25635
       4   25614   25635       4   25611   25626       2   25608   25620       4
   25605   25614       4   25593   25611       5   25587   25605       6   25587
   25608       6   25581   25593       4   25575   25593       4   25572   25584
       4   25566   25584       6   25566   25587       7   25560   25563       8
   25560   25581       4   25557   25575       4   25554   25572       4   25551
   25566       6   25548   25554       9   25548   25563      10   25545   25557
       4   25545   25560       4   25542   25551       4   25542   25554       4
   25539   25545      11   25539   25548      12   25536   25539      13   25536
   25542       8   25893   25905       2   25890   25893       2   25875   25890
       2   25866   25875       2   25857   25866       2   25848   25857       2
   25836   25848       2   25818   25836       2   25812   25827       4   25806
   25827       4   25803   25818       2   25800   25812       4   25797   25806
       4   25785   25803       5   25779   25797       6   25779   25800       6
   25773   25785       4   25767   25785       4   25764   25776       4   25758
   25776       6   25758   25779       7   25752   25755       8   25752   25773
       4   25749   25767       4   25746   25764       4   25743   25758       6
   25740   25746       9   25740   25755      10   25737   25749       4   25737
   25752       4   25734   25743       4   25734   25746       4   25731   25737
      11   25731   25740      12   25728   25731      13   25728   25734       8
   26085   26097       2   26082   26085       2   26067   26082       2   26058
   26067       2   26049   26058       2   26040   26049       2   26028   26040
       2   26010   26028       2   26004   26019       4   25998   26019       4
   25995   26010       2   25992   26004       4   25989   25998       4   25977
   25995       5   25971   25989       6   25971   25992       6   25965   25977
       4   25959   25977       4   25956   25968       4   25950   25968       6
   25950   25971       7   25944   25947       8   25944   25965       4   25941
   25959       4   25938   25956       4   25935   25950       6   25932   25938
       9   25932   25947      10   25929   25941       4   25929   25944       4
   25926   25935       4   25926   25938       4   25923   25929      11   25923
   25932      12   25920   25923      13   25920   25926       8   26277   26289
       2   26274   26277       2   26259   26274       2   26250   26259       2
   26241   26250       2   26232   26241       2   26220   26232       2   26202
   26220       2   26196   26211       4   26190   26211       4   26187   26202
       2   26184   26196       4   26181   26190       4   26169   26187       5
   26163   26181       6   26163   26184       6   26157   26169       4   26151
   26169       4   26148   26160       4   26142   26160       6   26142   26163
       7   26136   26139       8   26136   26157       4   26133   26151       4
   26130   26148       4   26127   26142       6   26124   26130       9   26124
   26139      10   26121   26133       4   26121   26136       4   26118   26127
       4   26118   26130       4   26115   26121      11   26115   26124      12
   26112   26115      13   26112   26118       8   26469   26481       2   26466
   26469       2   26451   26466       2   26442   26451       2   26433   26442
       2   26424   26433       2   26412   26424       2   26394   26412       2
   26388   26403       4   26382   26403       4   26379   26394       2   26376
   26388       4   26373   26382       4   26361   26379       5   26355   26373
       6   26355   26376       6   26349   26361       4   26343   26361       4
   26340   26352       4   26334   26352       6   26334   26355       7   26328
   26331       8   26328   26349       4   26325   26343       4   26322   26340
       4   26319   26334       6   26316   26322       9   26316   26331      10
   26313   26325       4   26313   26328       4   26310   26319       4   26310
   26322       4   26307   26313      11   26307   26316      12   26304   26307
      13   26304   26310       8   26661   26673       2   26658   26661       2
   26643   26658       2   26634   26643       2   26625   26634       2   26616
   26625       2   26604   26616       2   26586   26604       2   26580   26595
       4   26574   26595       4   26571   26586       2   26568   26580       4
   26565   26574       4   26553   26571       5   26547   26565       6   26547
   26568       6   26541   26553       4   26535   26553       4   26532   26544
       4   26526   26544       6   26526   26547       7   26520   26523       8
   26520   26541       4   26517   26535       4   26514   26532       4   26511
   26526       6   26508   26514       9   26508   26523      10   26505   26517
       4   26505   26520       4   26502   26511       4   26502   26514       4
   26499   26505      11   26499   26508      12   26496   26499      13   26496
   26502       8   26853   26865       2   26850   26853       2   26835   26850
       2   26826   26835       2   26817   26826       2   26808   26817       2
   26796   26808       2   26778   26796       2   26772   26787       4   26766
   26787       4   26763   26778       2   26760   26772       4   26757   26766
       4   26745   26763       5   26739   26757       6   26739   26760       6
   26733   26745       4   26727   26745       4   26724   26736       4   26718
   26736       6   26718   26739       7   26712   26715       8   26712   26733
       4   26709   26727       4   26706   26724       4   26703   26718       6
   26700   26706       9   26700   26715      10   26697   26709       4   26697
   26712       4   26694   26703       4   26694   26706       4   26691   26697
      11   26691   26700      12   26688   26691      13   26688   26694       8
   27045   27057       2   27042   27045       2   27027   27042       2   27018
   27027       2   27009   27018       2   27000   27009       2   26988   27000
       2   26970   26988       2   26964   26979       4   26958   26979       4
   26955   26970       2   26952   26964       4   26949   26958       4   26937
   26955       5   26931   26949       6   26931   26952       6   26925   26937
       4   26919   26937       4   26916   26928       4   26910   26928       6
   26910   26931       7   26904   26907       8   26904   26925       4   26901
   26919       4   26898   26916       4   26895   26910       6   26892   26898
       9   26892   26907      10   26889   26901       4   26889   26904       4
   26886   26895       4   26886   26898       4   26883   26889      11   26883
   26892      12   26880   26883      13   26880   26886       8   27237   27249
       2   27234   27237       2   27219   27234       2   27210   27219       2
   27201   27210       2   27192   27201       2   27180   27192       2   27162
   27180       2   27156   27171       4   27150   27171       4   27147   27162
       2   27144   27156       4   27141   27150       4   27129   27147       5
   27123   27141       6   27123   27144       6   27117   27129       4   27111
   27129       4   27108   27120       4   27102   27120       6   27102   27123
       7   27096   27099       8   27096   27117       4   27093   27111       4
   27090   27108       4   27087   27102       6   27084   27090       9   27084
   27099      10   27081   27093       4   27081   27096       4   27078   27087
       4   27078   27090       4   27075   27081      11   27075   27084      12
   27072   27075      13   27072   27078       8   27429   27441       2   27426
   27429       2   27411   27426       2   27402   27411       2   27393   27402
       2   27384   27393       2   27372   27384       2   27354   27372       2
   27348   27363       4   27342   27363       4   27339   27354       2   27336
   27348       4   27333   27342       4   27321   27339       5   27315   27333
       6   27315   27336       6   27309   27321       4   27303   27321       4
   27300   27312       4   27294   27312       6   27294   27315       7   27288
   27291       8   27288   27309       4   27285   27303       4   27282   27300
       4   27279   27294       6   27276   27282       9   27276   27291      10
   27273   27285       4   27273   27288       4   27270   27279       4   27270
   27282       4   27267   27273      11   27267   27276      12   27264   27267
      13   27264   27270       8   27621   27633       2   27618   27621       2
   27603   27618       2   27594   27603       2   27585   27594       2   27576
   27585       2   27564   27576       2   27546   27564       2   27540   27555
       4   27534   27555       4   27531   27546       2   27528   27540       4
   27525   27534       4   27513   27531       5   27507   27525       6   27507
   27528       6   27501   27513       4   27495   27513       4   27492   27504
       4   27486   27504       6   27486   27507       7   27480   27483       8
   27480   27501       4   27477   27495       4   27474   27492       4   27471
   27486       6   27468   27474       9   27468   27483      10   27465   27477
       4   27465   27480       4   27462   27471       4   27462   27474       4
   27459   27465      11   27459   27468      12   27456   27459      13   27456
   27462       8   27813   27825       2   27810   27813       2   27795   27810
       2   27786   27795       2   27777   27786       2   27768   27777       2
   27756   27768       2   27738   27756       2   27732   27747       4   27726
   27747       4   27723   27738       2   27720   27732       4   27717   27726
       4   27705   27723       5   27699   27717       6   27699   27720       6
   27693   27705       4   27687   27705       4   27684   27696       4   27678
   27696       6   27678   27699       7   27672   27675       8   27672   27693
       4   27669   27687       4   27666   27684       4   27663   27678       6
   27660   27666       9   27660   27675      10   27657   27669       4   27657
   27672       4   27654   27663       4   27654   27666       4   27651   27657
      11   27651   27660      12   27648   27651      13   27648   27654       8
   28005   28017       2   28002   28005       2   27987   28002       2   27978
   27987       2   27969   27978       2   27960   27969       2   27948   27960
       2   27930   27948       2   27924   27939       4   27918   27939       4
   27915   27930       2   27912   27924       4   27909   27918       4   27897
   27915       5   27891   27909       6   27891   27912       6   27885   27897
       4   27879   27897       4   27876   27888       4   27870   27888       6
   27870   27891       7   27864   27867       8   27864   27885       4   27861
   27879       4   27858   27876       4   27855   27870       6   27852   27858
       9   27852   27867      10   27849   27861       4   27849   27864       4
   27846   27855       4   27846   27858       4   27843   27849      11   27843
   27852      12   27840   27843      13   27840   27846       8   28197   28209
       2   28194   28197       2   28179   28194       2   28170   28179       2
   28161   28170       2   28152   28161       2   28140   28152       2   28122
   28140       2   28116   28131       4   28110   28131       4   28107   28122
       2   28104   28116       4   28101   28110       4   28089   28107       5
   28083   28101       6   28083   28104       6   28077   28089       4   28071
   28089       4   28068   28080       4   28062   28080       6   28062   28083
       7   28056   28059       8   28056   28077       4   28053   28071       4
   28050   28068       4   28047   28062       6   28044   28050       9   28044
   28059      10   28041   28053       4   28041   28056       4   28038   28047
       4   28038   28050       4   28035   28041      11   28035   28044      12
   28032   28035      13   28032   28038       8   28389   28401       2   28386
   28389       2   28371   28386       2   28362   28371       2   28353   28362
       2   28344   28353       2   28332   28344       2   28314   28332       2
   28308   28323       4   28302   28323       4   28299   28314       2   28296
   28308       4   28293   28302       4   28281   28299       5   28275   28293
       6   28275   28296       6   28269   28281       4   28263   28281       4
   28260   28272       4   28254   28272       6   28254   28275       7   28248
   28251       8   28248   28269       4   28245   28263       4   28242   28260
       4   28239   28254       6   28236   28242       9   28236   28251      10
   28233   28245       4   28233   28248       4   28230   28239       4   28230
   28242       4   28227   28233      11   28227   28236      12   28224   28227
      13   28224   28230       8   28581   28593       2   28578   28581       2
   28563   28578       2   28554   28563       2   28545   28554       2   28536
   28545       2   28524   28536       2   28506   28524       2   28500   28515
       4   28494   28515       4   28491   28506       2   28488   28500       4
   28485   28494       4   28473   28491       5   28467   28485       6   28467
   28488       6   28461   28473       4   28455   28473       4   28452   28464
       4   28446   28464       6   28446   28467       7   28440   28443       8
   28440   28461       4   28437   28455       4   28434   28452       4   28431
   28446       6   28428   28434       9   28428   28443      10   28425   28437
       4   28425   28440       4   28422   28431       4   28422   28434       4
   28419   28425      11   28419   28428      12   28416   28419      13   28416
   28422       8   28773   28785       2   28770   28773       2   28755   28770
       2   28746   28755       2   28737   28746       2   28728   28737       2
   28716   28728       2   28698   28716       2   28692   28707       4   28686
   28707       4   28683   28698       2   28680   28692       4   28677   28686
       4   28665   28683       5   28659   28677       6   28659   28680       6
   28653   28665       4   28647   28665       4   28644   28656       4   28638
   28656       6   28638   28659       7   28632   28635       8   28632   28653
       4   28629   28647       4   28626   28644       4   28623   28638       6
   28620   28626       9   28620   28635      10   28617   28629       4   28617
   28632       4   28614   28623       4   28614   28626       4   28611   28617
      11   28611   28620      12   28608   28611      13   28608   28614       8
   28965   28977       2   28962   28965       2   28947   28962       2   28938
   28947       2   28929   28938       2   28920   28929       2   28908   28920
       2   28890   28908       2   28884   28899       4   28878   28899       4
   28875   28890       2   28872   28884       4   28869   28878       4   28857
   28875       5   28851   28869       6   28851   28872       6   28845   28857
       4   28839   28857       4   28836   28848       4   28830   28848       6
   28830   28851       7   28824   28827       8   28824   28845       4   28821
   28839       4   28818   28836       4   28815   28830       6   28812   28818
       9   28812   28827      10   28809   28821       4   28809   28824       4
   28806   28815       4   28806   28818       4   28803   28809      11   28803
   28812      12   28800   28803      13   28800   28806       8   29157   29169
       2   29154   29157       2   29139   29154       2   29130   29139       2
   29121   29130       2   29112   29121       2   29100   29112       2   29082
   29100       2   29076   29091       4   29070   29091       4   29067   29082
       2   29064   29076       4   29061   29070       4   29049   29067       5
   29043   29061       6   29043   29064       6   29037   29049       4   29031
   29049       4   29028   29040       4   29022   29040       6   29022   29043
       7   29016   29019       8   29016   29037       4   29013   29031       4
   29010   29028       4   29007   29022       6   29004   29010       9   29004
   29019      10   29001   29013       4   29001   29016       4   28998   29007
       4   28998   29010       4   28995   29001      11   28995   29004      12
   28992   28995      13   28992   28998       8   29349   29361       2   29346
   29349       2   29331   29346       2   29322   29331       2   29313   29322
       2   29304   29313       2   29292   29304       2   29274   29292       2
   29268   29283       4   29262   29283       4   29259   29274       2   29256
   29268       4   29253   29262       4   29241   29259       5   29235   29253
       6   29235   29256       6   29229   29241       4   29223   29241       4
   29220   29232       4   29214   29232       6   29214   29235       7   29208
   29211       8   29208   29229       4   29205   29223       4   29202   29220
       4   29199   29214       6   29196   29202       9   29196   29211      10
   29193   29205       4   29193   29208       4   29190   29199       4   29190
   29202       4   29187   29193      11   29187   29196      12   29184   29187
      13   29184   29190       8   29541   29553       2   29538   29541       2
   29523   29538       2   29514   29523       2   29505   29514       2   29496
   29505       2   29484   29496       2   29466   29484       2   29460   29475
       4   29454   29475       4   29451   29466       2   29448   29460       4
   29445   29454       4   29433   29451       5   29427   29445       6   29427
   29448       6   29421   29433       4   29415   29433       4   29412   29424
       4   29406   29424       6   29406   29427       7   29400   29403       8
   29400   29421       4   29397   29415       4   29394   29412       4   29391
   29406       6   29388   29394       9   29388   29403      10   29385   29397
       4   29385   29400       4   29382   29391       4   29382   29394       4
   29379   29385      11   29379   29388      12   29376   29379      13   29376
   29382       8   29733   29745       2   29730   29733       2   29715   29730
       2   29706   29715       2   29697   29706       2   29688   29697       2
   29676   29688       2   29658   29676       2   29652   29667       4   29646
   29667       4   29643   29658       2   29640   29652       4   29637   29646
       4   29625   29643       5   29619   29637       6   29619   29640       6
   29613   29625       4   29607   29625       4   29604   29616       4   29598
   29616       6   29598   29619       7   29592   29595       8   29592   29613
       4   29589   29607       4   29586   29604       4   29583   29598       6
   29580   29586       9   29580   29595      10   29577   29589       4   29577
   29592       4   29574   29583       4   29574   29586       4   29571   29577
      11   29571   29580      12   29568   29571      13   29568   29574       8
   29925   29937       2   29922   29925       2   29907   29922       2   29898
   29907       2   29889   29898       2   29880   29889       2   29868   29880
       2   29850   29868       2   29844   29859       4   29838   29859       4
   29835   29850       2   29832   29844       4   29829   29838       4   29817
   29835       5   29811   29829       6   29811   29832       6   29805   29817
       4   29799   29817       4   29796   29808       4   29790   29808       6
   29790   29811       7   29784   29787       8   29784   29805       4   29781
   29799       4   29778   29796       4   29775   29790       6   29772   29778
       9   29772   29787      10   29769   29781       4   29769   29784       4
   29766   29775       4   29766   29778       4   29763   29769      11   29763
   29772      12   29760   29763      13   29760   29766       8   30117   30129
       2   30114   30117       2   30099   30114       2   30090   30099       2
   30081   30090       2   30072   30081       2   30060   30072       2   30042
   30060       2   30036   30051       4   30030   30051       4   30027   30042
       2   30024   30036       4   30021   30030       4   30009   30027       5
   30003   30021       6   30003   30024       6   29997   30009       4   29991
   30009       4   29988   30000       4   29982   30000       6   29982   30003
       7   29976   29979       8   29976   29997       4   29973   29991       4
   29970   29988       4   29967   29982       6   29964   29970       9   29964
   29979      10   29961   29973       4   29961   29976       4   29958   29967
       4   29958   29970       4   29955   29961      11   29955   29964      12
   29952   29955      13   29952   29958       8   30309   30321       2   30306
   30309       2   30291   30306       2   30282   30291       2   30273   30282
       2   30264   30273       2   30252   30264       2   30234   30252       2
   30228   30243       4   30222   30243       4   30219   30234       2   30216
   30228       4   30213   30222       4   30201   30219       5   30195   30213
       6   30195   30216       6   30189   30201       4   30183   30201       4
   30180   30192       4   30174   30192       6   30174   30195       7   30168
   30171       8   30168   30189       4   30165   30183       4   30162   30180
       4   30159   30174       6   30156   30162       9   30156   30171      10
   30153   30165       4   30153   30168       4   30150   30159       4   30150
   30162       4   30147   30153      11   30147   30156      12   30144   30147
      13   30144   30150       8   30501   30513       2   30498   30501       2
   30483   30498       2   30474   30483       2   30465   30474       2   30456
   30465       2   30444   30456       2   30426   30444       2   30420   30435
       4   30414   30435       4   30411   30426       2   30408   30420       4
   30405   30414       4   30393   30411       5   30387   30405       6   30387
   30408       6   30381   30393       4   30375   30393       4   30372   30384
       4   30366   30384       6   30366   30387       7   30360   30363       8
   30360   30381       4   30357   30375       4   30354   30372       4   30351
   30366       6   30348   30354       9   30348   30363      10   30345   30357
       4   30345   30360       4   30342   30351       4   30342   30354       4
   30339   30345      11   30339   30348      12   30336   30339      13   30336
   30342       8   30693   30705       2   30690   30693       2   30675   30690
       2   30666   30675       2   30657   30666       2   30648   30657       2
   30636   30648       2   30618   30636       2   30612   30627       4   30606
   30627       4   30603   30618       2   30600   30612       4   30597   30606
       4   30585   30603       5   30579   30597       6   30579   30600       6
   30573   30585       4   30567   30585       4   30564   30576       4   30558
   30576       6   30558   30579       7   30552   30555       8   30552   30573
       4   30549   30567       4   30546   30564       4   30543   30558       6
   30540   30546       9   30540   30555      10   30537   30549       4   30537
   30552       4   30534   30543       4   30534   30546       4   30531   30537
      11   30531   30540      12   30528   30531      13   30528   30534       8
   30885   30897       2   30882   30885       2   30867   30882       2   30858
   30867       2   30849   30858       2   30840   30849       2   30828   30840
       2   30810   30828       2   30804   30819       4   30798   30819       4
   30795   30810       2   30792   30804       4   30789   30798       4   30777
   30795       5   30771   30789       6   30771   30792       6   30765   30777
       4   30759   30777       4   30756   30768       4   30750   30768       6
   30750   30771       7   30744   30747       8   30744   30765       4   30741
   30759       4   30738   30756       4   30735   30750       6   30732   30738
       9   30732   30747      10   30729   30741       4   30729   30744       4
   30726   30735       4   30726   30738       4   30723   30729      11   30723
   30732      12   30720   30723      13   30720   30726       8   31077   31089
       2   31074   31077       2   31059   31074       2   31050   31059       2
   31041   31050       2   31032   31041       2   31020   31032       2   31002
   31020       2   30996   31011       4   30990   31011       4   30987   31002
       2   30984   30996       4   30981   30990       4   30969   30987       5
   30963   30981       6   30963   30984       6   30957   30969       4   30951
   30969       4   30948   30960       4   30942   30960       6   30942   30963
       7   30936   30939       8   30936   30957       4   30933   30951       4
   30930   30948       4   30927   30942       6   30924   30930       9   30924
   30939      10   30921   30933       4   30921   30936       4   30918   30927
       4   30918   30930       4   30915   30921      11   30915   30924      12
   30912   30915      13   30912   30918       8   31269   31281       2   31266
   31269       2   31251   31266       2   31242   31251       2   31233   31242
       2   31224   31233       2   31212   31224       2   31194   31212       2
   31188   31203       4   31182   31203       4   31179   31194       2   31176
   31188       4   31173   31182       4   31161   31179       5   31155   31173
       6   31155   31176       6   31149   31161       4   31143   31161       4
   31140   31152       4   31134   31152       6   31134   31155       7   31128
   31131       8   31128   31149       4   31125   31143       4   31122   31140
       4   31119   31134       6   31116   31122       9   31116   31131      10
   31113   31125       4   31113   31128       4   31110   31119       4   31110
   31122       4   31107   31113      11   31107   31116      12   31104   31107
      13   31104   31110       8   31461   31473       2   31458   31461       2
   31443   31458       2   31434   31443       2   31425   31434       2   31416
   31425       2   31404   31416       2   31386   31404       2   31380   31395
       4   31374   31395       4   31371   31386       2   31368   31380       4
   31365   31374       4   31353   31371       5   31347   31365       6   31347
   31368       6   31341   31353       4   31335   31353       4   31332   31344
       4   31326   31344       6   31326   31347       7   31320   31323       8
   31320   31341       4   31317   31335       4   31314   31332       4   31311
   31326       6   31308   31314       9   31308   31323      10   31305   31317
       4   31305   31320       4   31302   31311       4   31302   31314       4
   31299   31305      11   31299   31308      12   31296   31299      13   31296
   31302       8   31653   31665       2   31650   31653       2   31635   31650
       2   31626   31635       2   31617   31626       2   31608   31617       2
   31596   31608       2   31578   31596       2   31572   31587       4   31566
   31587       4   31563   31578       2   31560   31572       4   31557   31566
       4   31545   31563       5   31539   31557       6   31539   31560       6
   31533   31545       4   31527   31545       4   31524   31536       4   31518
   31536       6   31518   31539       7   31512   31515       8   31512   31533
       4   31509   31527       4   31506   31524       4   31503   31518       6
   31500   31506       9   31500   31515      10   31497   31509       4   31497
   31512       4   31494   31503       4   31494   31506       4   31491   31497
      11   31491   31500      12   31488   31491      13   31488   31494       8
   31845   31857       2   31842   31845       2   31827   31842       2   31818
   31827       2   31809   31818       2   31800   31809       2   31788   31800
       2   31770   31788       2   31764   31779       4   31758   31779       4
   31755   31770       2   31752   31764       4   31749   31758       4   31737
   31755       5   31731   31749       6   31731   31752       6   31725   31737
       4   31719   31737       4   31716   31728       4   31710   31728       6
   31710   31731       7   31704   31707       8   31704   31725       4   31701
   31719       4   31698   31716       4   31695   31710       6   31692   31698
       9   31692   31707      10   31689   31701       4   31689   31704       4
   31686   31695       4   31686   31698       4   31683   31689      11   31683
   31692      12   31680   31683      13   31680   31686       8   32037   32049
       2   32034   32037       2   32019   32034       2   32010   32019       2
   32001   32010       2   31992   32001       2   31980   31992       2   31962
   31980       2   31956   31971       4   31950   31971       4   31947   31962
       2   31944   31956       4   31941   31950       4   31929   31947       5
   31923   31941       6   31923   31944       6   31917   31929       4   31911
   31929       4   31908   31920       4   31902   31920       6   31902   31923
       7   31896   31899       8   31896   31917       4   31893   31911       4
   31890   31908       4   31887   31902       6   31884   31890       9   31884
   31899      10   31881   31893       4   31881   31896       4   31878   31887
       4   31878   31890       4   31875   31881      11   31875   31884      12
   31872   31875      13   31872   31878       8   32229   32241       2   32226
   32229       2   32211   32226       2   32202   32211       2   32193   32202
       2   32184   32193       2   32172   32184       2   32154   32172       2
   32148   32163       4   32142   32163       4   32139   32154       2   32136
   32148       4   32133   32142       4   32121   32139       5   32115   32133
       6   32115   32136       6   32109   32121       4   32103   32121       4
   32100   32112       4   32094   32112       6   32094   32115       7   32088
   32091       8   32088   32109       4   32085   32103       4   32082   32100
       4   32079   32094       6   32076   32082       9   32076   32091      10
   32073   32085       4   32073   32088       4   32070   32079       4   32070
   32082       4   32067   32073      11   32067   32076      12   32064   32067
      13   32064   32070       8   32421   32433       2   32418   32421       2
   32403   32418       2   32394   32403       2   32385   32394       2   32376
   32385       2   32364   32376       2   32346   32364       2   32340   32355
       4   32334   32355       4   32331   32346       2   32328   32340       4
   32325   32334       4   32313   32331       5   32307   32325       6   32307
   32328       6   32301   32313       4   32295   32313       4   32292   32304
       4   32286   32304       6   32286   32307       7   32280   32283       8
   32280   32301       4   32277   32295       4   32274   32292       4   32271
   32286       6   32268   32274       9   32268   32283      10   32265   32277
       4   32265   32280       4   32262   32271       4   32262   32274       4
   32259   32265      11   32259   32268      12   32256   32259      13   32256
   32262       8   32613   32625       2   32610   32613       2   32595   32610
       2   32586   32595       2   32577   32586       2   32568   32577       2
   32556   32568       2   32538   32556       2   32532   32547       4   32526
   32547       4   32523   32538       2   32520   32532       4   32517   32526
       4   32505   32523       5   32499   32517       6   32499   32520       6
   32493   32505       4   32487   32505       4   32484   32496       4   32478
   32496       6   32478   32499       7   32472   32475       8   32472   32493
       4   32469   32487       4   32466   32484       4   32463   32478       6
   32460   32466       9   32460   32475      10   32457   32469       4   32457
   32472       4   32454   32463       4   32454   32466       4   32451   32457
      11   32451   32460      12   32448   32451      13   32448   32454       8
   32805   32817       2   32802   32805       2   32787   32802       2   32778
   32787       2   32769   32778       2   32760   32769       2   32748   32760
       2   32730   32748       2   32724   32739       4   32718   32739       4
   32715   32730       2   32712   32724       4   32709   32718       4   32697
   32715       5   32691   32709       6   32691   32712       6   32685   32697
       4   32679   32697       4   32676   32688       4   32670   32688       6
   32670   32691       7   32664   32667       8   32664   32685       4   32661
   32679       4   32658   32676       4   32655   32670       6   32652   32658
       9   32652   32667      10   32649   32661       4   32649   32664       4
   32646   32655       4   32646   32658       4   32643   32649      11   32643
   32652      12   32640   32643      13   32640   32646       8   32997   33009
       2   32994   32997       2   32979   32994       2   32970   32979       2
   32961   32970       2   32952   32961       2   32940   32952       2   32922
   32940       2   32916   32931       4   32910   32931       4   32907   32922
       2   32904   32916       4   32901   32910       4   32889   32907       5
   32883   32901       6   32883   32904       6   32877   32889       4   32871
   32889       4   32868   32880       4   32862   32880       6   32862   32883
       7   32856   32859       8   32856   32877       4   32853   32871       4
   32850   32868       4   32847   32862       6   32844   32850       9   32844
   32859      10   32841   32853       4   32841   32856       4   32838   32847
       4   32838   32850       4   32835   32841      11   32835   32844      12
   32832   32835      13   32832   32838       8   33189   33201       2   33186
   33189       2   33171   33186       2   33162   33171       2   33153   33162
       2   33144   33153       2   33132   33144       2   33114   33132       2
   33108   33123       4   33102   33123       4   33099   33114       2   33096
   33108       4   33093   33102       4   33081   33099       5   33075   33093
       6   33075   33096       6   33069   33081       4   33063   33081       4
   33060   33072       4   33054   33072       6   33054   33075       7   33048
   33051       8   33048   33069       4   33045   33063       4   33042   33060
       4   33039   33054       6   33036   33042       9   33036   33051      10
   33033   33045       4   33033   33048       4   33030   33039       4   33030
   33042       4   33027   33033      11   33027   33036      12   33024   33027
      13   33024   33030       8   33381   33393       2   33378   33381       2
   33363   33378       2   33354   33363       2   33345   33354       2   33336
   33345       2   33324   33336       2   33306   33324       2   33300   33315
       4   33294   33315       4   33291   33306       2   33288   33300       4
   33285   33294       4   33273   33291       5   33267   33285       6   33267
   33288       6   33261   33273       4   33255   33273       4   33252   33264
       4   33246   33264       6   33246   33267       7   33240   33243       8
   33240   33261       4   33237   33255       4   33234   33252       4   33231
   33246       6   33228   33234       9   33228   33243      10   33225   33237
       4   33225   33240       4   33222   33231       4   33222   33234       4
   33219   33225      11   33219   33228      12   33216   33219      13   33216
   33222       8   33573   33585       2   33570   33573       2   33555   33570
       2   33546   33555       2   33537   33546       2   33528   33537       2
   33516   33528       2   33498   33516       2   33492   33507       4   33486
   33507       4   33483   33498       2   33480   33492       4   33477   33486
       4   33465   33483       5   33459   33477       6   33459   33480       6
   33453   33465       4   33447   33465       4   33444   33456       4   33438
   33456       6   33438   33459       7   33432   33435       8   33432   33453
       4   33429   33447       4   33426   33444       4   33423   33438       6
   33420   33426       9   33420   33435      10   33417   33429       4   33417
   33432       4   33414   33423       4   33414   33426       4   33411   33417
      11   33411   33420      12   33408   33411      13   33408   33414       8
   33765   33777       2   33762   33765       2   33747   33762       2   33738
   33747       2   33729   33738       2   33720   33729       2   33708   33720
       2   33690   33708       2   33684   33699       4   33678   33699       4
   33675   33690       2   33672   33684       4   33669   33678       4   33657
   33675       5   33651   33669       6   33651   33672       6   33645   33657
       4   33639   33657       4   33636   33648       4   33630   33648       6
   33630   33651       7   33624   33627       8   33624   33645       4   33621
   33639       4   33618   33636       4   33615   33630       6   33612   33618
       9   33612   33627      10   33609   33621       4   33609   33624       4
   33606   33615       4   33606   33618       4   33603   33609      11   33603
   33612      12   33600   33603      13   33600   33606       8   33957   33969
       2   33954   33957       2   33939   33954       2   33930   33939       2
   33921   33930       2   33912   33921       2   33900   33912       2   33882
   33900       2   33876   33891       4   33870   33891       4   33867   33882
       2   33864   33876       4   33861   33870       4   33849   33867       5
   33843   33861       6   33843   33864       6   33837   33849       4   33831
   33849       4   33828   33840       4   33822   33840       6   33822   33843
       7   33816   33819       8   33816   33837       4   33813   33831       4
   33810   33828       4   33807   33822       6   33804   33810       9   33804
   33819      10   33801   33813       4   33801   33816       4   33798   33807
       4   33798   33810       4   33795   33801      11   33795   33804      12
   33792   33795      13   33792   33798       8   34149   34161       2   34146
   34149       2   34131   34146       2   34122   34131       2   34113   34122
       2   34104   34113       2   34092   34104       2   34074   34092       2
   34068   34083       4   34062   34083       4   34059   34074       2   34056
   34068       4   34053   34062       4   34041   34059       5   34035   34053
       6   34035   34056       6   34029   34041       4   34023   34041       4
   34020   34032       4   34014   34032       6   34014   34035       7   34008
   34011       8   34008   34029       4   34005   34023       4   34002   34020
       4   33999   34014       6   33996   34002       9   33996   34011      10
   33993   34005       4   33993   34008       4   33990   33999       4   33990
   34002       4   33987   33993      11   33987   33996      12   33984   33987
      13   33984   33990       8   34341   34353       2   34338   34341       2
   34323   34338       2   34314   34323       2   34305   34314       2   34296
   34305       2   34284   34296       2   34266   34284       2   34260   34275
       4   34254   34275       4   34251   34266       2   34248   34260       4
   34245   34254       4   34233   34251       5   34227   34245       6   34227
   34248       6   34221   34233       4   34215   34233       4   34212   34224
       4   34206   34224       6   34206   34227       7   34200   34203       8
   34200   34221       4   34197   34215       4   34194   34212       4   34191
   34206       6   34188   34194       9   34188   34203      10   34185   34197
       4   34185   34200       4   34182   34191       4   34182   34194       4
   34179   34185      11   34179   34188      12   34176   34179      13   34176
   34182       8   34533   34545       2   34530   34533       2   34515   34530
       2   34506   34515       2   34497   34506       2   34488   34497       2
   34476   34488       2   34458   34476       2   34452   34467       4   34446
   34467       4   34443   34458       2   34440   34452       4   34437   34446
       4   34425   34443       5   34419   34437       6   34419   34440       6
   34413   34425       4   34407   34425       4   34404   34416       4   34398
   34416       6   34398   34419       7   34392   34395       8   34392   34413
       4   34389   34407       4   34386   34404       4   34383   34398       6
   34380   34386       9   34380   34395      10   34377   34389       4   34377
   34392       4   34374   34383       4   34374   34386       4   34371   34377
      11   34371   34380      12   34368   34371      13   34368   34374       8
   34725   34737       2   34722   34725       2   34707   34722       2   34698
   34707       2   34689   34698       2   34680   34689       2   34668   34680
       2   34650   34668       2   34644   34659       4   34638   34659       4
   34635   34650       2   34632   34644       4   34629   34638       4   34617
   34635       5   34611   34629       6   34611   34632       6   34605   34617
       4   34599   34617       4   34596   34608       4   34590   34608       6
   34590   34611       7   34584   34587       8   34584   34605       4   34581
   34599       4   34578   34596       4   34575   34590       6   34572   34578
       9   34572   34587      10   34569   34581       4   34569   34584       4
   34566   34575       4   34566   34578       4   34563   34569      11   34563
   34572      12   34560   34563      13   34560   34566       8   34917   34929
       2   34914   34917       2   34899   34914       2   34890   34899       2
   34881   34890       2   34872   34881       2   34860   34872       2   34842
   34860       2   34836   34851       4   34830   34851       4   34827   34842
       2   34824   34836       4   34821   34830       4   34809   34827       5
   34803   34821       6   34803   34824       6   34797   34809       4   34791
   34809       4   34788   34800       4   34782   34800       6   34782   34803
       7   34776   34779       8   34776   34797       4   34773   34791       4
   34770   34788       4   34767   34782       6   34764   34770       9   34764
   34779      10   34761   34773       4   34761   34776       4   34758   34767
       4   34758   34770       4   34755   34761      11   34755   34764      12
   34752   34755      13   34752   34758       8   35109   35121       2   35106
   35109       2   35091   35106       2   35082   35091       2   35073   35082
       2   35064   35073       2   35052   35064       2   35034   35052       2
   35028   35043       4   35022   35043       4   35019   35034       2   35016
   35028       4   35013   35022       4   35001   35019       5   34995   35013
       6   34995   35016       6   34989   35001       4   34983   35001       4
   34980   34992       4   34974   34992       6   34974   34995       7   34968
   34971       8   34968   34989       4   34965   34983       4   34962   34980
       4   34959   34974       6   34956   34962       9   34956   34971      10
   34953   34965       4   34953   34968       4   34950   34959       4   34950
   34962       4   34947   34953      11   34947   34956      12   34944   34947
      13   34944   34950       8   35301   35313       2   35298   35301       2
   35283   35298       2   35274   35283       2   35265   35274       2   35256
   35265       2   35244   35256       2   35226   35244       2   35220   35235
       4   35214   35235       4   35211   35226       2   35208   35220       4
   35205   35214       4   35193   35211       5   35187   35205       6   35187
   35208       6   35181   35193       4   35175   35193       4   35172   35184
       4   35166   35184       6   35166   35187       7   35160   35163       8
   35160   35181       4   35157   35175       4   35154   35172       4   35151
   35166       6   35148   35154       9   35148   35163      10   35145   35157
       4   35145   35160       4   35142   35151       4   35142   35154       4
   35139   35145      11   35139   35148      12   35136   35139      13   35136
   35142       8   35493   35505       2   35490   35493       2   35475   35490
       2   35466   35475       2   35457   35466       2   35448   35457       2
   35436   35448       2   35418   35436       2   35412   35427       4   35406
   35427       4   35403   35418       2   35400   35412       4   35397   35406
       4   35385   35403       5   35379   35397       6   35379   35400       6
   35373   35385       4   35367   35385       4   35364   35376       4   35358
   35376       6   35358   35379       7   35352   35355       8   35352   35373
       4   35349   35367       4   35346   35364       4   35343   35358       6
   35340   35346       9   35340   35355      10   35337   35349       4   35337
   35352       4   35334   35343       4   35334   35346       4   35331   35337
      11   35331   35340      12   35328   35331      13   35328   35334       8
   35685   35697       2   35682   35685       2   35667   35682       2   35658
   35667       2   35649   35658       2   35640   35649       2   35628   35640
       2   35610   35628       2   35604   35619       4   35598   35619       4
   35595   35610       2   35592   35604       4   35589   35598       4   35577
   35595       5   35571   35589       6   35571   35592       6   35565   35577
       4   35559   35577       4   35556   35568       4   35550   35568       6
   35550   35571       7   35544   35547       8   35544   35565       4   35541
   35559       4   35538   35556       4   35535   35550       6   35532   35538
       9   35532   35547      10   35529   35541       4   35529   35544       4
   35526   35535       4   35526   35538       4   35523   35529      11   35523
   35532      12   35520   35523      13   35520   35526       8   35877   35889
       2   35874   35877       2   35859   35874       2   35850   35859       2
   35841   35850       2   35832   35841       2   35820   35832       2   35802
   35820       2   35796   35811       4   35790   35811       4   35787   35802
       2   35784   35796       4   35781   35790       4   35769   35787       5
   35763   35781       6   35763   35784       6   35757   35769       4   35751
   35769       4   35748   35760       4   35742   35760       6   35742   35763
       7   35736   35739       8   35736   35757       4   35733   35751       4
   35730   35748       4   35727   35742       6   35724   35730       9   35724
   35739      10   35721   35733       4   35721   35736       4   35718   35727
       4   35718   35730       4   35715   35721      11   35715   35724      12
   35712   35715      13   35712   35718       8   36069   36081       2   36066
   36069       2   36051   36066       2   36042   36051       2   36033   36042
       2   36024   36033       2   36012   36024       2   35994   36012       2
   35988   36003       4   35982   36003       4   35979   35994       2   35976
   35988       4   35973   35982       4   35961   35979       5   35955   35973
       6   35955   35976       6   35949   35961       4   35943   35961       4
   35940   35952       4   35934   35952       6   35934   35955       7   35928
   35931       8   35928   35949       4   35925   35943       4   35922   35940
       4   35919   35934       6   35916   35922       9   35916   35931      10
   35913   35925       4   35913   35928       4   35910   35919       4   35910
   35922       4   35907   35913      11   35907   35916      12   35904   35907
      13   35904   35910       8   36261   36273       2   36258   36261       2
   36243   36258       2   36234   36243       2   36225   36234       2   36216
   36225       2   36204   36216       2   36186   36204       2   36180   36195
       4   36174   36195       4   36171   36186       2   36168   36180       4
   36165   36174       4   36153   36171       5   36147   36165       6   36147
   36168       6   36141   36153       4   36135   36153       4   36132   36144
       4   36126   36144       6   36126   36147       7   36120   36123       8
   36120   36141       4   36117   36135       4   36114   36132       4   36111
   36126       6   36108   36114       9   36108   36123      10   36105   36117
       4   36105   36120       4   36102   36111       4   36102   36114       4
   36099   36105      11   36099   36108      12   36096   36099      13   36096
   36102       8   36453   36465       2   36450   36453       2   36435   36450
       2   36426   36435       2   36417   36426       2   36408   36417       2
   36396   36408       2   36378   36396       2   36372   36387       4   36366
   36387       4   36363   36378       2   36360   36372       4   36357   36366
       4   36345   36363       5   36339   36357       6   36339   36360       6
   36333   36345       4   36327   36345       4   36324   36336       4   36318
   36336       6   36318   36339       7   36312   36315       8   36312   36333
       4   36309   36327       4   36306   36324       4   36303   36318       6
   36300   36306       9   36300   36315      10   36297   36309       4   36297
   36312       4   36294   36303       4   36294   36306       4   36291   36297
      11   36291   36300      12   36288   36291      13   36288   36294       8
   36645   36657       2   36642   36645       2   36627   36642       2   36618
   36627       2   36609   36618       2   36600   36609       2   36588   36600
       2   36570   36588       2   36564   36579       4   36558   36579       4
   36555   36570       2   36552   36564       4   36549   36558       4   36537
   36555       5   36531   36549       6   36531   36552       6   36525   36537
       4   36519   36537       4   36516   36528       4   36510   36528       6
   36510   36531       7   36504   36507       8   36504   36525       4   36501
   36519       4   36498   36516       4   36495   36510       6   36492   36498
       9   36492   36507      10   36489   36501       4   36489   36504       4
   36486   36495       4   36486   36498       4   36483   36489      11   36483
   36492      12   36480   36483      13   36480   36486       8   36837   36849
       2   36834   36837       2   36819   36834       2   36810   36819       2
   36801   36810       2   36792   36801       2   36780   36792       2   36762
   36780       2   36756   36771       4   36750   36771       4   36747   36762
       2   36744   36756       4   36741   36750       4   36729   36747       5
   36723   36741       6   36723   36744       6   36717   36729       4   36711
   36729       4   36708   36720       4   36702   36720       6   36702   36723
       7   36696   36699       8   36696   36717       4   36693   36711       4
   36690   36708       4   36687   36702       6   36684   36690       9   36684
   36699      10   36681   36693       4   36681   36696       4   36678   36687
       4   36678   36690       4   36675   36681      11   36675   36684      12
   36672   36675      13   36672   36678       8   37029   37041       2   37026
   37029       2   37011   37026       2   37002   37011       2   36993   37002
       2   36984   36993       2   36972   36984       2   36954   36972       2
   36948   36963       4   36942   36963       4   36939   36954       2   36936
   36948       4   36933   36942       4   36921   36939       5   36915   36933
       6   36915   36936       6   36909   36921       4   36903   36921       4
   36900   36912       4   36894   36912       6   36894   36915       7   36888
   36891       8   36888   36909       4   36885   36903       4   36882   36900
       4   36879   36894       6   36876   36882       9   36876   36891      10
   36873   36885       4   36873   36888       4   36870   36879       4   36870
   36882       4   36867   36873      11   36867   36876      12   36864   36867
      13   36864   36870       8   37221   37233       2   37218   37221       2
   37203   37218       2   37194   37203       2   37185   37194       2   37176
   37185       2   37164   37176       2   37146   37164       2   37140   37155
       4   37134   37155       4   37131   37146       2   37128   37140       4
   37125   37134       4   37113   37131       5   37107   37125       6   37107
   37128       6   37101   37113       4   37095   37113       4   37092   37104
       4   37086   37104       6   37086   37107       7   37080   37083       8
   37080   37101       4   37077   37095       4   37074   37092       4   37071
   37086       6   37068   37074       9   37068   37083      10   37065   37077
       4   37065   37080       4   37062   37071       4   37062   37074       4
   37059   37065      11   37059   37068      12   37056   37059      13   37056
   37062       8   37413   37425       2   37410   37413       2   37395   37410
       2   37386   37395       2   37377   37386       2   37368   37377       2
   37356   37368       2   37338   37356       2   37332   37347       4   37326
   37347       4   37323   37338       2   37320   37332       4   37317   37326
       4   37305   37323       5   37299   37317       6   37299   37320       6
   37293   37305       4   37287   37305       4   37284   37296       4   37278
   37296       6   37278   37299       7   37272   37275       8   37272   37293
       4   37269   37287       4   37266   37284       4   37263   37278       6
   37260   37266       9   37260   37275      10   37257   37269       4   37257
   37272       4   37254   37263       4   37254   37266       4   37251   37257
      11   37251   37260      12   37248   37251      13   37248   37254       8
   37605   37617       2   37602   37605       2   37587   37602       2   37578
   37587       2   37569   37578       2   37560   37569       2   37548   37560
       2   37530   37548       2   37524   37539       4   37518   37539       4
   37515   37530       2   37512   37524       4   37509   37518       4   37497
   37515       5   37491   37509       6   37491   37512       6   37485   37497
       4   37479   37497       4   37476   37488       4   37470   37488       6
   37470   37491       7   37464   37467       8   37464   37485       4   37461
   37479       4   37458   37476       4   37455   37470       6   37452   37458
       9   37452   37467      10   37449   37461       4   37449   37464       4
   37446   37455       4   37446   37458       4   37443   37449      11   37443
   37452      12   37440   37443      13   37440   37446       8   37797   37809
       2   37794   37797       2   37779   37794       2   37770   37779       2
   37761   37770       2   37752   37761       2   37740   37752       2   37722
   37740       2   37716   37731       4   37710   37731       4   37707   37722
       2   37704   37716       4   37701   37710       4   37689   37707       5
   37683   37701       6   37683   37704       6   37677   37689       4   37671
   37689       4   37668   37680       4   37662   37680       6   37662   37683
       7   37656   37659       8   37656   37677       4   37653   37671       4
   37650   37668       4   37647   37662       6   37644   37650       9   37644
   37659      10   37641   37653       4   37641   37656       4   37638   37647
       4   37638   37650       4   37635   37641      11   37635   37644      12
   37632   37635      13   37632   37638       8   37989   38001       2   37986
   37989       2   37971   37986       2   37962   37971       2   37953   37962
       2   37944   37953       2   37932   37944       2   37914   37932       2
   37908   37923       4   37902   37923       4   37899   37914       2   37896
   37908       4   37893   37902       4   37881   37899       5   37875   37893
       6   37875   37896       6   37869   37881       4   37863   37881       4
   37860   37872       4   37854   37872       6   37854   37875       7   37848
   37851       8   37848   37869       4   37845   37863       4   37842   37860
       4   37839   37854       6   37836   37842       9   37836   37851      10
   37833   37845       4   37833   37848       4   37830   37839       4   37830
   37842       4   37827   37833      11   37827   37836      12   37824   37827
      13   37824   37830       8   38181   38193       2   38178   38181       2
   38163   38178       2   38154   38163       2   38145   38154       2   38136
   38145       2   38124   38136       2   38106   38124       2   38100   38115
       4   38094   38115       4   38091   38106       2   38088   38100       4
   38085   38094       4   38073   38091       5   38067   38085       6   38067
   38088       6   38061   38073       4   38055   38073       4   38052   38064
       4   38046   38064       6   38046   38067       7   38040   38043       8
   38040   38061       4   38037   38055       4   38034   38052       4   38031
   38046       6   38028   38034       9   38028   38043      10   38025   38037
       4   38025   38040       4   38022   38031       4   38022   38034       4
   38019   38025      11   38019   38028      12   38016   38019      13   38016
   38022       8   38373   38385       2   38370   38373       2   38355   38370
       2   38346   38355       2   38337   38346       2   38328   38337       2
   38316   38328       2   38298   38316       2   38292   38307       4   38286
   38307       4   38283   38298       2   38280   38292       4   38277   38286
       4   38265   38283       5   38259   38277       6   38259   38280       6
   38253   38265       4   38247   38265       4   38244   38256       4   38238
   38256       6   38238   38259       7   38232   38235       8   38232   38253
       4   38229   38247       4   38226   38244       4   38223   38238       6
   38220   38226       9   38220   38235      10   38217   38229       4   38217
   38232       4   38214   38223       4   38214   38226       4   38211   38217
      11   38211   38220      12   38208   38211      13   38208   38214       8
   38565   38577       2   38562   38565       2   38547   38562       2   38538
   38547       2   38529   38538       2   38520   38529       2   38508   38520
       2   38490   38508       2   38484   38499       4   38478   38499       4
   38475   38490       2   38472   38484       4   38469   38478       4   38457
   38475       5   38451   38469       6   38451   38472       6   38445   38457
       4   38439   38457       4   38436   38448       4   38430   38448       6
   38430   38451       7   38424   38427       8   38424   38445       4   38421
   38439       4   38418   38436       4   38415   38430       6   38412   38418
       9   38412   38427      10   38409   38421       4   38409   38424       4
   38406   38415       4   38406   38418       4   38403   38409      11   38403
   38412      12   38400   38403      13   38400   38406       8   38757   38769
       2   38754   38757       2   38739   38754       2   38730   38739       2
   38721   38730       2   38712   38721       2   38700   38712       2   38682
   38700       2   38676   38691       4   38670   38691       4   38667   38682
       2   38664   38676       4   38661   38670       4   38649   38667       5
   38643   38661       6   38643   38664       6   38637   38649       4   38631
   38649       4   38628   38640       4   38622   38640       6   38622   38643
       7   38616   38619       8   38616   38637       4   38613   38631       4
   38610   38628       4   38607   38622       6   38604   38610       9   38604
   38619      10   38601   38613       4   38601   38616       4   38598   38607
       4   38598   38610       4   38595   38601      11   38595   38604      12
   38592   38595      13   38592   38598       8   38949   38961       2   38946
   38949       2   38931   38946       2   38922   38931       2   38913   38922
       2   38904   38913       2   38892   38904       2   38874   38892       2
   38868   38883       4   38862   38883       4   38859   38874       2   38856
   38868       4   38853   38862       4   38841   38859       5   38835   38853
       6   38835   38856       6   38829   38841       4   38823   38841       4
   38820   38832       4   38814   38832       6   38814   38835       7   38808
   38811       8   38808   38829       4   38805   38823       4   38802   38820
       4   38799   38814       6   38796   38802       9   38796   38811      10
   38793   38805       4   38793   38808       4   38790   38799       4   38790
   38802       4   38787   38793      11   38787   38796      12   38784   38787
      13   38784   38790       8   39141   39153       2   39138   39141       2
   39123   39138       2   39114   39123       2   39105   39114       2   39096
   39105       2   39084   39096       2   39066   39084       2   39060   39075
       4   39054   39075       4   39051   39066       2   39048   39060       4
   39045   39054       4   39033   39051       5   39027   39045       6   39027
   39048       6   39021   39033       4   39015   39033       4   39012   39024
       4   39006   39024       6   39006   39027       7   39000   39003       8
   39000   39021       4   38997   39015       4   38994   39012       4   38991
   39006       6   38988   38994       9   38988   39003      10   38985   38997
       4   38985   39000       4   38982   38991       4   38982   38994       4
   38979   38985      11   38979   38988      12   38976   38979      13   38976
   38982       8   39333   39345       2   39330   39333       2   39315   39330
       2   39306   39315       2   39297   39306       2   39288   39297       2
   39276   39288       2   39258   39276       2   39252   39267       4   39246
   39267       4   39243   39258       2   39240   39252       4   39237   39246
       4   39225   39243       5   39219   39237       6   39219   39240       6
   39213   39225       4   39207   39225       4   39204   39216       4   39198
   39216       6   39198   39219       7   39192   39195       8   39192   39213
       4   39189   39207       4   39186   39204       4   39183   39198       6
   39180   39186       9   39180   39195      10   39177   39189       4   39177
   39192       4   39174   39183       4   39174   39186       4   39171   39177
      11   39171   39180      12   39168   39171      13   39168   39174       8
   39525   39537       2   39522   39525       2   39507   39522       2   39498
   39507       2   39489   39498       2   39480   39489       2   39468   39480
       2   39450   39468       2   39444   39459       4   39438   39459       4
   39435   39450       2   39432   39444       4   39429   39438       4   39417
   39435       5   39411   39429       6   39411   39432       6   39405   39417
       4   39399   39417       4   39396   39408       4   39390   39408       6
   39390   39411       7   39384   39387       8   39384   39405       4   39381
   39399       4   39378   39396       4   39375   39390       6   39372   39378
       9   39372   39387      10   39369   39381       4   39369   39384       4
   39366   39375       4   39366   39378       4   39363   39369      11   39363
   39372      12   39360   39363      13   39360   39366       8   39717   39729
       2   39714   39717       2   39699   39714       2   39690   39699       2
   39681   39690       2   39672   39681       2   39660   39672       2   39642
   39660       2   39636   39651       4   39630   39651       4   39627   39642
       2   39624   39636       4   39621   39630       4   39609   39627       5
   39603   39621       6   39603   39624       6   39597   39609       4   39591
   39609       4   39588   39600       4   39582   39600       6   39582   39603
       7   39576   39579       8   39576   39597       4   39573   39591       4
   39570   39588       4   39567   39582       6   39564   39570       9   39564
   39579      10   39561   39573       4   39561   39576       4   39558   39567
       4   39558   39570       4   39555   39561      11   39555   39564      12
   39552   39555      13   39552   39558       8   39909   39921       2   39906
   39909       2   39891   39906       2   39882   39891       2   39873   39882
       2   39864   39873       2   39852   39864       2   39834   39852       2
   39828   39843       4   39822   39843       4   39819   39834       2   39816
   39828       4   39813   39822       4   39801   39819       5   39795   39813
       6   39795   39816       6   39789   39801       4   39783   39801       4
   39780   39792       4   39774   39792       6   39774   39795       7   39768
   39771       8   39768   39789       4   39765   39783       4   39762   39780
       4   39759   39774       6   39756   39762       9   39756   39771      10
   39753   39765       4   39753   39768       4   39750   39759       4   39750
   39762       4   39747   39753      11   39747   39756      12   39744   39747
      13   39744   39750       8   40101   40113       2   40098   40101       2
   40083   40098       2   40074   40083       2   40065   40074       2   40056
   40065       2   40044   40056       2   40026   40044       2   40020   40035
       4   40014   40035       4   40011   40026       2   40008   40020       4
   40005   40014       4   39993   40011       5   39987   40005       6   39987
   40008       6   39981   39993       4   39975   39993       4   39972   39984
       4   39966   39984       6   39966   39987       7   39960   39963       8
   39960   39981       4   39957   39975       4   39954   39972       4   39951
   39966       6   39948   39954       9   39948   39963      10   39945   39957
       4   39945   39960       4   39942   39951       4   39942   39954       4
   39939   39945      11   39939   39948      12   39936   39939      13   39936
   39942       8   40293   40305       2   40290   40293       2   40275   40290
       2   40266   40275       2   40257   40266       2   40248   40257       2
   40236   40248       2   40218   40236       2   40212   40227       4   40206
   40227       4   40203   40218       2   40200   40212       4   40197   40206
       4   40185   40203       5   40179   40197       6   40179   40200       6
   40173   40185       4   40167   40185       4   40164   40176       4   40158
   40176       6   40158   40179       7   40152   40155       8   40152   40173
       4   40149   40167       4   40146   40164       4   40143   40158       6
   40140   40146       9   40140   40155      10   40137   40149       4   40137
   40152       4   40134   40143       4   40134   40146       4   40131   40137
      11   40131   40140      12   40128   40131      13   40128   40134       8
   40485   40497       2   40482   40485       2   40467   40482       2   40458
   40467       2   40449   40458       2   40440   40449       2   40428   40440
       2   40410   40428       2   40404   40419       4   40398   40419       4
   40395   40410       2   40392   40404       4   40389   40398       4   40377
   40395       5   40371   40389       6   40371   40392       6   40365   40377
       4   40359   40377       4   40356   40368       4   40350   40368       6
   40350   40371       7   40344   40347       8   40344   40365       4   40341
   40359       4   40338   40356       4   40335   40350       6   40332   40338
       9   40332   40347      10   40329   40341       4   40329   40344       4
   40326   40335       4   40326   40338       4   40323   40329      11   40323
   40332      12   40320   40323      13   40320   40326       8   40677   40689
       2   40674   40677       2   40659   40674       2   40650   40659       2
   40641   40650       2   40632   40641       2   40620   40632       2   40602
   40620       2   40596   40611       4   40590   40611       4   40587   40602
       2   40584   40596       4   40581   40590       4   40569   40587       5
   40563   40581       6   40563   40584       6   40557   40569       4   40551
   40569       4   40548   40560       4   40542   40560       6   40542   40563
       7   40536   40539       8   40536   40557       4   40533   40551       4
   40530   40548       4   40527   40542       6   40524   40530       9   40524
   40539      10   40521   40533       4   40521   40536       4   40518   40527
       4   40518   40530       4   40515   40521      11   40515   40524      12
   40512   40515      13   40512   40518       8   40869   40881       2   40866
   40869       2   40851   40866       2   40842   40851       2   40833   40842
       2   40824   40833       2   40812   40824       2   40794   40812       2
   40788   40803       4   40782   40803       4   40779   40794       2   40776
   40788       4   40773   40782       4   40761   40779       5   40755   40773
       6   40755   40776       6   40749   40761       4   40743   40761       4
   40740   40752       4   40734   40752       6   40734   40755       7   40728
   40731       8   40728   40749       4   40725   40743       4   40722   40740
       4   40719   40734       6   40716   40722       9   40716   40731      10
   40713   40725       4   40713   40728       4   40710   40719       4   40710
   40722       4   40707   40713      11   40707   40716      12   40704   40707
      13   40704   40710       8   41061   41073       2   41058   41061       2
   41043   41058       2   41034   41043       2   41025   41034       2   41016
   41025       2   41004   41016       2   40986   41004       2   40980   40995
       4   40974   40995       4   40971   40986       2   40968   40980       4
   40965   40974       4   40953   40971       5   40947   40965       6   40947
   40968       6   40941   40953       4   40935   40953       4   40932   40944
       4   40926   40944       6   40926   40947       7   40920   40923       8
   40920   40941       4   40917   40935       4   40914   40932       4   40911
   40926       6   40908   40914       9   40908   40923      10   40905   40917
       4   40905   40920       4   40902   40911       4   40902   40914       4
   40899   40905      11   40899   40908      12   40896   40899      13   40896
   40902       8   41253   41265       2   41250   41253       2   41235   41250
       2   41226   41235       2   41217   41226       2   41208   41217       2
   41196   41208       2   41178   41196       2   41172   41187       4   41166
   41187       4   41163   41178       2   41160   41172       4   41157   41166
       4   41145   41163       5   41139   41157       6   41139   41160       6
   41133   41145       4   41127   41145       4   41124   41136       4   41118
   41136       6   41118   41139       7   41112   41115       8   41112   41133
       4   41109   41127       4   41106   41124       4   41103   41118       6
   41100   41106       9   41100   41115      10   41097   41109       4   41097
   41112       4   41094   41103       4   41094   41106       4   41091   41097
      11   41091   41100      12   41088   41091      13   41088   41094       8
   41445   41457       2   41442   41445       2   41427   41442       2   41418
   41427       2   41409   41418       2   41400   41409       2   41388   41400
       2   41370   41388       2   41364   41379       4   41358   41379       4
   41355   41370       2   41352   41364       4   41349   41358       4   41337
   41355       5   41331   41349       6   41331   41352       6   41325   41337
       4   41319   41337       4   41316   41328       4   41310   41328       6
   41310   41331       7   41304   41307       8   41304   41325       4   41301
   41319       4   41298   41316       4   41295   41310       6   41292   41298
       9   41292   41307      10   41289   41301       4   41289   41304       4
   41286   41295       4   41286   41298       4   41283   41289      11   41283
   41292      12   41280   41283      13   41280   41286       8   41637   41649
       2   41634   41637       2   41619   41634       2   41610   41619       2
   41601   41610       2   41592   41601       2   41580   41592       2   41562
   41580       2   41556   41571       4   41550   41571       4   41547   41562
       2   41544   41556       4   41541   41550       4   41529   41547       5
   41523   41541       6   41523   41544       6   41517   41529       4   41511
   41529       4   41508   41520       4   41502   41520       6   41502   41523
       7   41496   41499       8   41496   41517       4   41493   41511       4
   41490   41508       4   41487   41502       6   41484   41490       9   41484
   41499      10   41481   41493       4   41481   41496       4   41478   41487
       4   41478   41490       4   41475   41481      11   41475   41484      12
   41472   41475      13   41472   41478       8   41829   41841       2   41826
   41829       2   41811   41826       2   41802   41811       2   41793   41802
       2   41784   41793       2   41772   41784       2   41754   41772       2
   41748   41763       4   41742   41763       4   41739   41754       2   41736
   41748       4   41733   41742       4   41721   41739       5   41715   41733
       6   41715   41736       6   41709   41721       4   41703   41721       4
   41700   41712       4   41694   41712       6   41694   41715       7   41688
   41691       8   41688   41709       4   41685   41703       4   41682   41700
       4   41679   41694       6   41676   41682       9   41676   41691      10
   41673   41685       4   41673   41688       4   41670   41679       4   41670
   41682       4   41667   41673      11   41667   41676      12   41664   41667
      13   41664   41670       8   42021   42033       2   42018   42021       2
   42003   42018       2   41994   42003       2   41985   41994       2   41976
   41985       2   41964   41976       2   41946   41964       2   41940   41955
       4   41934   41955       4   41931   41946       2   41928   41940       4
   41925   41934       4   41913   41931       5   41907   41925       6   41907
   41928       6   41901   41913       4   41895   41913       4   41892   41904
       4   41886   41904       6   41886   41907       7   41880   41883       8
   41880   41901       4   41877   41895       4   41874   41892       4   41871
   41886       6   41868   41874       9   41868   41883      10   41865   41877
       4   41865   41880       4   41862   41871       4   41862   41874       4
   41859   41865      11   41859   41868      12   41856   41859      13   41856
   41862       8   42213   42225       2   42210   42213       2   42195   42210
       2   42186   42195       2   42177   42186       2   42168   42177       2
   42156   42168       2   42138   42156       2   42132   42147       4   42126
   42147       4   42123   42138       2   42120   42132       4   42117   42126
       4   42105   42123       5   42099   42117       6   42099   42120       6
   42093   42105       4   42087   42105       4   42084   42096       4   42078
   42096       6   42078   42099       7   42072   42075       8   42072   42093
       4   42069   42087       4   42066   42084       4   42063   42078       6
   42060   42066       9   42060   42075      10   42057   42069       4   42057
   42072       4   42054   42063       4   42054   42066       4   42051   42057
      11   42051   42060      12   42048   42051      13   42048   42054       8
   42405   42417       2   42402   42405       2   42387   42402       2   42378
   42387       2   42369   42378       2   42360   42369       2   42348   42360
       2   42330   42348       2   42324   42339       4   42318   42339       4
   42315   42330       2   42312   42324       4   42309   42318       4   42297
   42315       5   42291   42309       6   42291   42312       6   42285   42297
       4   42279   42297       4   42276   42288       4   42270   42288       6
   42270   42291       7   42264   42267       8   42264   42285       4   42261
   42279       4   42258   42276       4   42255   42270       6   42252   42258
       9   42252   42267      10   42249   42261       4   42249   42264       4
   42246   42255       4   42246   42258       4   42243   42249      11   42243
   42252      12   42240   42243      13   42240   42246       8   42597   42609
       2   42594   42597       2   42579   42594       2   42570   42579       2
   42561   42570       2   42552   42561       2   42540   42552       2   42522
   42540       2   42516   42531       4   42510   42531       4   42507   42522
       2   42504   42516       4   42501   42510       4   42489   42507       5
   42483   42501       6   42483   42504       6   42477   42489       4   42471
   42489       4   42468   42480       4   42462   42480       6   42462   42483
       7   42456   42459       8   42456   42477       4   42453   42471       4
   42450   42468       4   42447   42462       6   42444   42450       9   42444
   42459      10   42441   42453       4   42441   42456       4   42438   42447
       4   42438   42450       4   42435   42441      11   42435   42444      12
   42432   42435      13   42432   42438       8   42789   42801       2   42786
   42789       2   42771   42786       2   42762   42771       2   42753   42762
       2   42744   42753       2   42732   42744       2   42714   42732       2
   42708   42723       4   42702   42723       4   42699   42714       2   42696
   42708       4   42693   42702       4   42681   42699       5   42675   42693
       6   42675   42696       6   42669   42681       4   42663   42681       4
   42660   42672       4   42654   42672       6   42654   42675       7   42648
   42651       8   42648   42669       4   42645   42663       4   42642   42660
       4   42639   42654       6   42636   42642       9   42636   42651      10
   42633   42645       4   42633   42648       4   42630   42639       4   42630
   42642       4   42627   42633      11   42627   42636      12   42624   42627
      13   42624   42630       8   42981   42993       2   42978   42981       2
   42963   42978       2   42954   42963       2   42945   42954       2   42936
   42945       2   42924   42936       2   42906   42924       2   42900   42915
       4   42894   42915       4   42891   42906       2   42888   42900       4
   42885   42894       4   42873   42891       5   42867   42885       6   42867
   42888       6   42861   42873       4   42855   42873       4   42852   42864
       4   42846   42864       6   42846   42867       7   42840   42843       8
   42840   42861       4   42837   42855       4   42834   42852       4   42831
   42846       6   42828   42834       9   42828   42843      10   42825   42837
       4   42825   42840       4   42822   42831       4   42822   42834       4
   42819   42825      11   42819   42828      12   42816   42819      13   42816
   42822       8   43173   43185       2   43170   43173       2   43155   43170
       2   43146   43155       2   43137   43146       2   43128   43137       2
   43116   43128       2   43098   43116       2   43092   43107       4   43086
   43107       4   43083   43098       2   43080   43092       4   43077   43086
       4   43065   43083       5   43059   43077       6   43059   43080       6
   43053   43065       4   43047   43065       4   43044   43056       4   43038
   43056       6   43038   43059       7   43032   43035       8   43032   43053
       4   43029   43047       4   43026   43044       4   43023   43038       6
   43020   43026       9   43020   43035      10   43017   43029       4   43017
   43032       4   43014   43023       4   43014   43026       4   43011   43017
      11   43011   43020      12   43008   43011      13   43008   43014       8
   43365   43377       2   43362   43365       2   43347   43362       2   43338
   43347       2   43329   43338       2   43320   43329       2   43308   43320
       2   43290   43308       2   43284   43299       4   43278   43299       4
   43275   43290       2   43272   43284       4   43269   43278       4   43257
   43275       5   43251   43269       6   43251   43272       6   43245   43257
       4   43239   43257       4   43236   43248       4   43230   43248       6
   43230   43251       7   43224   43227       8   43224   43245       4   43221
   43239       4   43218   43236       4   43215   43230       6   43212   43218
       9   43212   43227      10   43209   43221       4   43209   43224       4
   43206   43215       4   43206   43218       4   43203   43209      11   43203
   43212      12   43200   43203      13   43200   43206       8   43557   43569
       2   43554   43557       2   43539   43554       2   43530   43539       2
   43521   43530       2   43512   43521       2   43500   43512       2   43482
   43500       2   43476   43491       4   43470   43491       4   43467   43482
       2   43464   43476       4   43461   43470       4   43449   43467       5
   43443   43461       6   43443   43464       6   43437   43449       4   43431
   43449       4   43428   43440       4   43422   43440       6   43422   43443
       7   43416   43419       8   43416   43437       4   43413   43431       4
   43410   43428       4   43407   43422       6   43404   43410       9   43404
   43419      10   43401   43413       4   43401   43416       4   43398   43407
       4   43398   43410       4   43395   43401      11   43395   43404      12
   43392   43395      13   43392   43398       8   43749   43761       2   43746
   43749       2   43731   43746       2   43722   43731       2   43713   43722
       2   43704   43713       2   43692   43704       2   43674   43692       2
   43668   43683       4   43662   43683       4   43659   43674       2   43656
   43668       4   43653   43662       4   43641   43659       5   43635   43653
       6   43635   43656       6   43629   43641       4   43623   43641       4
   43620   43632       4   43614   43632       6   43614   43635       7   43608
   43611       8   43608   43629       4   43605   43623       4   43602   43620
       4   43599   43614       6   43596   43602       9   43596   43611      10
   43593   43605       4   43593   43608       4   43590   43599       4   43590
   43602       4   43587   43593      11   43587   43596      12   43584   43587
      13   43584   43590       8   43941   43953       2   43938   43941       2
   43923   43938       2   43914   43923       2   43905   43914       2   43896
   43905       2   43884   43896       2   43866   43884       2   43860   43875
       4   43854   43875       4   43851   43866       2   43848   43860       4
   43845   43854       4   43833   43851       5   43827   43845       6   43827
   43848       6   43821   43833       4   43815   43833       4   43812   43824
       4   43806   43824       6   43806   43827       7   43800   43803       8
   43800   43821       4   43797   43815       4   43794   43812       4   43791
   43806       6   43788   43794       9   43788   43803      10   43785   43797
       4   43785   43800       4   43782   43791       4   43782   43794       4
   43779   43785      11   43779   43788      12   43776   43779      13   43776
   43782       8   44133   44145       2   44130   44133       2   44115   44130
       2   44106   44115       2   44097   44106       2   44088   44097       2
   44076   44088       2   44058   44076       2   44052   44067       4   44046
   44067       4   44043   44058       2   44040   44052       4   44037   44046
       4   44025   44043       5   44019   44037       6   44019   44040       6
   44013   44025       4   44007   44025       4   44004   44016       4   43998
   44016       6   43998   44019       7   43992   43995       8   43992   44013
       4   43989   44007       4   43986   44004       4   43983   43998       6
   43980   43986       9   43980   43995      10   43977   43989       4   43977
   43992       4   43974   43983       4   43974   43986       4   43971   43977
      11   43971   43980      12   43968   43971      13   43968   43974       8
   44325   44337       2   44322   44325       2   44307   44322       2   44298
   44307       2   44289   44298       2   44280   44289       2   44268   44280
       2   44250   44268       2   44244   44259       4   44238   44259       4
   44235   44250       2   44232   44244       4   44229   44238       4   44217
   44235       5   44211   44229       6   44211   44232       6   44205   44217
       4   44199   44217       4   44196   44208       4   44190   44208       6
   44190   44211       7   44184   44187       8   44184   44205       4   44181
   44199       4   44178   44196       4   44175   44190       6   44172   44178
       9   44172   44187      10   44169   44181       4   44169   44184       4
   44166   44175       4   44166   44178       4   44163   44169      11   44163
   44172      12   44160   44163      13   44160   44166       8   44517   44529
       2   44514   44517       2   44499   44514       2   44490   44499       2
   44481   44490       2   44472   44481       2   44460   44472       2   44442
   44460       2   44436   44451       4   44430   44451       4   44427   44442
       2   44424   44436       4   44421   44430       4   44409   44427       5
   44403   44421       6   44403   44424       6   44397   44409       4   44391
   44409       4   44388   44400       4   44382   44400       6   44382   44403
       7   44376   44379       8   44376   44397       4   44373   44391       4
   44370   44388       4   44367   44382       6   44364   44370       9   44364
   44379      10   44361   44373       4   44361   44376       4   44358   44367
       4   44358   44370       4   44355   44361      11   44355   44364      12
   44352   44355      13   44352   44358       8   44709   44721       2   44706
   44709       2   44691   44706       2   44682   44691       2   44673   44682
       2   44664   44673       2   44652   44664       2   44634   44652       2
   44628   44643       4   44622   44643       4   44619   44634       2   44616
   44628       4   44613   44622       4   44601   44619       5   44595   44613
       6   44595   44616       6   44589   44601       4   44583   44601       4
   44580   44592       4   44574   44592       6   44574   44595       7   44568
   44571       8   44568   44589       4   44565   44583       4   44562   44580
       4   44559   44574       6   44556   44562       9   44556   44571      10
   44553   44565       4   44553   44568       4   44550   44559       4   44550
   44562       4   44547   44553      11   44547   44556      12   44544   44547
      13   44544   44550       8   44901   44913       2   44898   44901       2
   44883   44898       2   44874   44883       2   44865   44874       2   44856
   44865       2   44844   44856       2   44826   44844       2   44820   44835
       4   44814   44835       4   44811   44826       2   44808   44820       4
   44805   44814       4   44793   44811       5   44787   44805       6   44787
   44808       6   44781   44793       4   44775   44793       4   44772   44784
       4   44766   44784       6   44766   44787       7   44760   44763       8
   44760   44781       4   44757   44775       4   44754   44772       4   44751
   44766       6   44748   44754       9   44748   44763      10   44745   44757
       4   44745   44760       4   44742   44751       4   44742   44754       4
   44739   44745      11   44739   44748      12   44736   44739      13   44736
   44742       8   45093   45105       2   45090   45093       2   45075   45090
       2   45066   45075       2   45057   45066       2   45048   45057       2
   45036   45048       2   45018   45036       2   45012   45027       4   45006
   45027       4   45003   45018       2   45000   45012       4   44997   45006
       4   44985   45003       5   44979   44997       6   44979   45000       6
   44973   44985       4   44967   44985       4   44964   44976       4   44958
   44976       6   44958   44979       7   44952   44955       8   44952   44973
       4   44949   44967       4   44946   44964       4   44943   44958       6
   44940   44946       9   44940   44955      10   44937   44949       4   44937
   44952       4   44934   44943       4   44934   44946       4   44931   44937
      11   44931   44940      12   44928   44931      13   44928   44934       8
   45285   45297       2   45282   45285       2   45267   45282       2   45258
   45267       2   45249   45258       2   45240   45249       2   45228   45240
       2   45210   45228       2   45204   45219       4   45198   45219       4
   45195   45210       2   45192   45204       4   45189   45198       4   45177
   45195       5   45171   45189       6   45171   45192       6   45165   45177
       4   45159   45177       4   45156   45168       4   45150   45168       6
   45150   45171       7   45144   45147       8   45144   45165       4   45141
   45159       4   45138   45156       4   45135   45150       6   45132   45138
       9   45132   45147      10   45129   45141       4   45129   45144       4
   45126   45135       4   45126   45138       4   45123   45129      11   45123
   45132      12   45120   45123      13   45120   45126       8   45477   45489
       2   45474   45477       2   45459   45474       2   45450   45459       2
   45441   45450       2   45432   45441       2   45420   45432       2   45402
   45420       2   45396   45411       4   45390   45411       4   45387   45402
       2   45384   45396       4   45381   45390       4   45369   45387       5
   45363   45381       6   45363   45384       6   45357   45369       4   45351
   45369       4   45348   45360       4   45342   45360       6   45342   45363
       7   45336   45339       8   45336   45357       4   45333   45351       4
   45330   45348       4   45327   45342       6   45324   45330       9   45324
   45339      10   45321   45333       4   45321   45336       4   45318   45327
       4   45318   45330       4   45315   45321      11   45315   45324      12
   45312   45315      13   45312   45318       8   45669   45681       2   45666
   45669       2   45651   45666       2   45642   45651       2   45633   45642
       2   45624   45633       2   45612   45624       2   45594   45612       2
   45588   45603       4   45582   45603       4   45579   45594       2   45576
   45588       4   45573   45582       4   45561   45579       5   45555   45573
       6   45555   45576       6   45549   45561       4   45543   45561       4
   45540   45552       4   45534   45552       6   45534   45555       7   45528
   45531       8   45528   45549       4   45525   45543       4   45522   45540
       4   45519   45534       6   45516   45522       9   45516   45531      10
   45513   45525       4   45513   45528       4   45510   45519       4   45510
   45522       4   45507   45513      11   45507   45516      12   45504   45507
      13   45504   45510       8   45861   45873       2   45858   45861       2
   45843   45858       2   45834   45843       2   45825   45834       2   45816
   45825       2   45804   45816       2   45786   45804       2   45780   45795
       4   45774   45795       4   45771   45786       2   45768   45780       4
   45765   45774       4   45753   45771       5   45747   45765       6   45747
   45768       6   45741   45753       4   45735   45753       4   45732   45744
       4   45726   45744       6   45726   45747       7   45720   45723       8
   45720   45741       4   45717   45735       4   45714   45732       4   45711
   45726       6   45708   45714       9   45708   45723      10   45705   45717
       4   45705   45720       4   45702   45711       4   45702   45714       4
   45699   45705      11   45699   45708      12   45696   45699      13   45696
   45702       8   46053   46065       2   46050   46053       2   46035   46050
       2   46026   46035       2   46017   46026       2   46008   46017       2
   45996   46008       2   45978   45996       2   45972   45987       4   45966
   45987       4   45963   45978       2   45960   45972       4   45957   45966
       4   45945   45963       5   45939   45957       6   45939   45960       6
   45933   45945       4   45927   45945       4   45924   45936       4   45918
   45936       6   45918   45939       7   45912   45915       8   45912   45933
       4   45909   45927       4   45906   45924       4   45903   45918       6
   45900   45906       9   45900   45915      10   45897   45909       4   45897
   45912       4   45894   45903       4   45894   45906       4   45891   45897
      11   45891   45900      12   45888   45891      13   45888   45894       8
   46245   46257       2   46242   46245       2   46227   46242       2   46218
   46227       2   46209   46218       2   46200   46209       2   46188   46200
       2   46170   46188       2   46164   46179       4   46158   46179       4
   46155   46170       2   46152   46164       4   46149   46158       4   46137
   46155       5   46131   46149       6   46131   46152       6   46125   46137
       4   46119   46137       4   46116   46128       4   46110   46128       6
   46110   46131       7   46104   46107       8   46104   46125       4   46101
   46119       4   46098   46116       4   46095   46110       6   46092   46098
       9   46092   46107      10   46089   46101       4   46089   46104       4
   46086   46095       4   46086   46098       4   46083   46089      11   46083
   46092      12   46080   46083      13   46080   46086       8   46437   46449
       2   46434   46437       2   46419   46434       2   46410   46419       2
   46401   46410       2   46392   46401       2   46380   46392       2   46362
   46380       2   46356   46371       4   46350   46371       4   46347   46362
       2   46344   46356       4   46341   46350       4   46329   46347       5
   46323   46341       6   46323   46344       6   46317   46329       4   46311
   46329       4   46308   46320       4   46302   46320       6   46302   46323
       7   46296   46299       8   46296   46317       4   46293   46311       4
   46290   46308       4   46287   46302       6   46284   46290       9   46284
   46299      10   46281   46293       4   46281   46296       4   46278   46287
       4   46278   46290       4   46275   46281      11   46275   46284      12
   46272   46275      13   46272   46278       8   46629   46641       2   46626
   46629       2   46611   46626       2   46602   46611       2   46593   46602
       2   46584   46593       2   46572   46584       2   46554   46572       2
   46548   46563       4   46542   46563       4   46539   46554       2   46536
   46548       4   46533   46542       4   46521   46539       5   46515   46533
       6   46515   46536       6   46509   46521       4   46503   46521       4
   46500   46512       4   46494   46512       6   46494   46515       7   46488
   46491       8   46488   46509       4   46485   46503       4   46482   46500
       4   46479   46494       6   46476   46482       9   46476   46491      10
   46473   46485       4   46473   46488       4   46470   46479       4   46470
   46482       4   46467   46473      11   46467   46476      12   46464   46467
      13   46464   46470       8   46821   46833       2   46818   46821       2
   46803   46818       2   46794   46803       2   46785   46794       2   46776
   46785       2   46764   46776       2   46746   46764       2   46740   46755
       4   46734   46755       4   46731   46746       2   46728   46740       4
   46725   46734       4   46713   46731       5   46707   46725       6   46707
   46728       6   46701   46713       4   46695   46713       4   46692   46704
       4   46686   46704       6   46686   46707       7   46680   46683       8
   46680   46701       4   46677   46695       4   46674   46692       4   46671
   46686       6   46668   46674       9   46668   46683      10   46665   46677
       4   46665   46680       4   46662   46671       4   46662   46674       4
   46659   46665      11   46659   46668      12   46656   46659      13   46656
   46662       8   47013   47025       2   47010   47013       2   46995   47010
       2   46986   46995       2   46977   46986       2   46968   46977       2
   46956   46968       2   46938   46956       2   46932   46947       4   46926
   46947       4   46923   46938       2   46920   46932       4   46917   46926
       4   46905   46923       5   46899   46917       6   46899   46920       6
   46893   46905       4   46887   46905       4   46884   46896       4   46878
   46896       6   46878   46899       7   46872   46875       8   46872   46893
       4   46869   46887       4   46866   46884       4   46863   46878       6
   46860   46866       9   46860   46875      10   46857   46869       4   46857
   46872       4   46854   46863       4   46854   46866       4   46851   46857
      11   46851   46860      12   46848   46851      13   46848   46854       8
   47205   47217       2   47202   47205       2   47187   47202       2   47178
   47187       2   47169   47178       2   47160   47169       2   47148   47160
       2   47130   47148       2   47124   47139       4   47118   47139       4
   47115   47130       2   47112   47124       4   47109   47118       4   47097
   47115       5   47091   47109       6   47091   47112       6   47085   47097
       4   47079   47097       4   47076   47088       4   47070   47088       6
   47070   47091       7   47064   47067       8   47064   47085       4   47061
   47079       4   47058   47076       4   47055   47070       6   47052   47058
       9   47052   47067      10   47049   47061       4   47049   47064       4
   47046   47055       4   47046   47058       4   47043   47049      11   47043
   47052      12   47040   47043      13   47040   47046       8   47397   47409
       2   47394   47397       2   47379   47394       2   47370   47379       2
   47361   47370       2   47352   47361       2   47340   47352       2   47322
   47340       2   47316   47331       4   47310   47331       4   47307   47322
       2   47304   47316       4   47301   47310       4   47289   47307       5
   47283   47301       6   47283   47304       6   47277   47289       4   47271
   47289       4   47268   47280       4   47262   47280       6   47262   47283
       7   47256   47259       8   47256   47277       4   47253   47271       4
   47250   47268       4   47247   47262       6   47244   47250       9   47244
   47259      10   47241   47253       4   47241   47256       4   47238   47247
       4   47238   47250       4   47235   47241      11   47235   47244      12
   47232   47235      13   47232   47238       8   47589   47601       2   47586
   47589       2   47571   47586       2   47562   47571       2   47553   47562
       2   47544   47553       2   47532   47544       2   47514   47532       2
   47508   47523       4   47502   47523       4   47499   47514       2   47496
   47508       4   47493   47502       4   47481   47499       5   47475   47493
       6   47475   47496       6   47469   47481       4   47463   47481       4
   47460   47472       4   47454   47472       6   47454   47475       7   47448
   47451       8   47448   47469       4   47445   47463       4   47442   47460
       4   47439   47454       6   47436   47442       9   47436   47451      10
   47433   47445       4   47433   47448       4   47430   47439       4   47430
   47442       4   47427   47433      11   47427   47436      12   47424   47427
      13   47424   47430       8   47781   47793       2   47778   47781       2
   47763   47778       2   47754   47763       2   47745   47754       2   47736
   47745       2   47724   47736       2   47706   47724       2   47700   47715
       4   47694   47715       4   47691   47706       2   47688   47700       4
   47685   47694       4   47673   47691       5   47667   47685       6   47667
   47688       6   47661   47673       4   47655   47673       4   47652   47664
       4   47646   47664       6   47646   47667       7   47640   47643       8
   47640   47661       4   47637   47655       4   47634   47652       4   47631
   47646       6   47628   47634       9   47628   47643      10   47625   47637
       4   47625   47640       4   47622   47631       4   47622   47634       4
   47619   47625      11   47619   47628      12   47616   47619      13   47616
   47622       8   47973   47985       2   47970   47973       2   47955   47970
       2   47946   47955       2   47937   47946       2   47928   47937       2
   47916   47928       2   47898   47916       2   47892   47907       4   47886
   47907       4   47883   47898       2   47880   47892       4   47877   47886
       4   47865   47883       5   47859   47877       6   47859   47880       6
   47853   47865       4   47847   47865       4   47844   47856       4   47838
   47856       6   47838   47859       7   47832   47835       8   47832   47853
       4   47829   47847       4   47826   47844       4   47823   47838       6
   47820   47826       9   47820   47835      10   47817   47829       4   47817
   47832       4   47814   47823       4   47814   47826       4   47811   47817
      11   47811   47820      12   47808   47811      13   47808   47814       8
   48165   48177       2   48162   48165       2   48147   48162       2   48138
   48147       2   48129   48138       2   48120   48129       2   48108   48120
       2   48090   48108       2   48084   48099       4   48078   48099       4
   48075   48090       2   48072   48084       4   48069   48078       4   48057
   48075       5   48051   48069       6   48051   48072       6   48045   48057
       4   48039   48057       4   48036   48048       4   48030   48048       6
   48030   48051       7   48024   48027       8   48024   48045       4   48021
   48039       4   48018   48036       4   48015   48030       6   48012   48018
       9   48012   48027      10   48009   48021       4   48009   48024       4
   48006   48015       4   48006   48018       4   48003   48009      11   48003
   48012      12   48000   48003      13   48000   48006       8   48357   48369
       2   48354   48357       2   48339   48354       2   48330   48339       2
   48321   48330       2   48312   48321       2   48300   48312       2   48282
   48300       2   48276   48291       4   48270   48291       4   48267   48282
       2   48264   48276       4   48261   48270       4   48249   48267       5
   48243   48261       6   48243   48264       6   48237   48249       4   48231
   48249       4   48228   48240       4   48222   48240       6   48222   48243
       7   48216   48219       8   48216   48237       4   48213   48231       4
   48210   48228       4   48207   48222       6   48204   48210       9   48204
   48219      10   48201   48213       4   48201   48216       4   48198   48207
       4   48198   48210       4   48195   48201      11   48195   48204      12
   48192   48195      13   48192   48198       8   48549   48561       2   48546
   48549       2   48531   48546       2   48522   48531       2   48513   48522
       2   48504   48513       2   48492   48504       2   48474   48492       2
   48468   48483       4   48462   48483       4   48459   48474       2   48456
   48468       4   48453   48462       4   48441   48459       5   48435   48453
       6   48435   48456       6   48429   48441       4   48423   48441       4
   48420   48432       4   48414   48432       6   48414   48435       7   48408
   48411       8   48408   48429       4   48405   48423       4   48402   48420
       4   48399   48414       6   48396   48402       9   48396   48411      10
   48393   48405       4   48393   48408       4   48390   48399       4   48390
   48402       4   48387   48393      11   48387   48396      12   48384   48387
      13   48384   48390       8   48741   48753       2   48738   48741       2
   48723   48738       2   48714   48723       2   48705   48714       2   48696
   48705       2   48684   48696       2   48666   48684       2   48660   48675
       4   48654   48675       4   48651   48666       2   48648   48660       4
   48645   48654       4   48633   48651       5   48627   48645       6   48627
   48648       6   48621   48633       4   48615   48633       4   48612   48624
       4   48606   48624       6   48606   48627       7   48600   48603       8
   48600   48621       4   48597   48615       4   48594   48612       4   48591
   48606       6   48588   48594       9   48588   48603      10   48585   48597
       4   48585   48600       4   48582   48591       4   48582   48594       4
   48579   48585      11   48579   48588      12   48576   48579      13   48576
   48582       8   48933   48945       2   48930   48933       2   48915   48930
       2   48906   48915       2   48897   48906       2   48888   48897       2
   48876   48888       2   48858   48876       2   48852   48867       4   48846
   48867       4   48843   48858       2   48840   48852       4   48837   48846
       4   48825   48843       5   48819   48837       6   48819   48840       6
   48813   48825       4   48807   48825       4   48804   48816       4   48798
   48816       6   48798   48819       7   48792   48795       8   48792   48813
       4   48789   48807       4   48786   48804       4   48783   48798       6
   48780   48786       9   48780   48795      10   48777   48789       4   48777
   48792       4   48774   48783       4   48774   48786       4   48771   48777
      11   48771   48780      12   48768   48771      13   48768   48774       8
   49125   49137       2   49122   49125       2   49107   49122       2   49098
   49107       2   49089   49098       2   49080   49089       2   49068   49080
       2   49050   49068       2   49044   49059       4   49038   49059       4
   49035   49050       2   49032   49044       4   49029   49038       4   49017
   49035       5   49011   49029       6   49011   49032       6   49005   49017
       4   48999   49017       4   48996   49008       4   48990   49008       6
   48990   49011       7   48984   48987       8   48984   49005       4   48981
   48999       4   48978   48996       4   48975   48990       6   48972   48978
       9   48972   48987      10   48969   48981       4   48969   48984       4
   48966   48975       4   48966   48978       4   48963   48969      11   48963
   48972      12   48960   48963      13   48960   48966       8   49317   49329
       2   49314   49317       2   49299   49314       2   49290   49299       2
   49281   49290       2   49272   49281       2   49260   49272       2   49242
   49260       2   49236   49251       4   49230   49251       4   49227   49242
       2   49224   49236       4   49221   49230       4   49209   49227       5
   49203   49221       6   49203   49224       6   49197   49209       4   49191
   49209       4   49188   49200       4   49182   49200       6   49182   49203
       7   49176   49179       8   49176   49197       4   49173   49191       4
   49170   49188       4   49167   49182       6   49164   49170       9   49164
   49179      10   49161   49173       4   49161   49176       4   49158   49167
       4   49158   49170       4   49155   49161      11   49155   49164      12
   49152   49155      13   49152   49158       8   49509   49521       2   49506
   49509       2   49491   49506       2   49482   49491       2   49473   49482
       2   49464   49473       2   49452   49464       2   49434   49452       2
   49428   49443       4   49422   49443       4   49419   49434       2   49416
   49428       4   49413   49422       4   49401   49419       5   49395   49413
       6   49395   49416       6   49389   49401       4   49383   49401       4
   49380   49392       4   49374   49392       6   49374   49395       7   49368
   49371       8   49368   49389       4   49365   49383       4   49362   49380
       4   49359   49374       6   49356   49362       9   49356   49371      10
   49353   49365       4   49353   49368       4   49350   49359       4   49350
   49362       4   49347   49353      11   49347   49356      12   49344   49347
      13   49344   49350       8   49701   49713       2   49698   49701       2
   49683   49698       2   49674   49683       2   49665   49674       2   49656
   49665       2   49644   49656       2   49626   49644       2   49620   49635
       4   49614   49635       4   49611   49626       2   49608   49620       4
   49605   49614       4   49593   49611       5   49587   49605       6   49587
   49608       6   49581   49593       4   49575   49593       4   49572   49584
       4   49566   49584       6   49566   49587       7   49560   49563       8
   49560   49581       4   49557   49575       4   49554   49572       4   49551
   49566       6   49548   49554       9   49548   49563      10   49545   49557
       4   49545   49560       4   49542   49551       4   49542   49554       4
   49539   49545      11   49539   49548      12   49536   49539      13   49536
   49542       8   49893   49905       2   49890   49893       2   49875   49890
       2   49866   49875       2   49857   49866       2   49848   49857       2
   49836   49848       2   49818   49836       2   49812   49827       4   49806
   49827       4   49803   49818       2   49800   49812       4   49797   49806
       4   49785   49803       5   49779   49797       6   49779   49800       6
   49773   49785       4   49767   49785       4   49764   49776       4   49758
   49776       6   49758   49779       7   49752   49755       8   49752   49773
       4   49749   49767       4   49746   49764       4   49743   49758       6
   49740   49746       9   49740   49755      10   49737   49749       4   49737
   49752       4   49734   49743       4   49734   49746       4   49731   49737
      11   49731   49740      12   49728   49731      13   49728   49734       8
   50085   50097       2   50082   50085       2   50067   50082       2   50058
   50067       2   50049   50058       2   50040   50049       2   50028   50040
       2   50010   50028       2   50004   50019       4   49998   50019       4
   49995   50010       2   49992   50004       4   49989   49998       4   49977
   49995       5   49971   49989       6   49971   49992       6   49965   49977
       4   49959   49977       4   49956   49968       4   49950   49968       6
   49950   49971       7   49944   49947       8   49944   49965       4   49941
   49959       4   49938   49956       4   49935   49950       6   49932   49938
       9   49932   49947      10   49929   49941       4   49929   49944       4
   49926   49935       4   49926   49938       4   49923   49929      11   49923
   49932      12   49920   49923      13   49920   49926       8   50277   50289
       2   50274   50277       2   50259   50274       2   50250   50259       2
   50241   50250       2   50232   50241       2   50220   50232       2   50202
   50220       2   50196   50211       4   50190   50211       4   50187   50202
       2   50184   50196       4   50181   50190       4   50169   50187       5
   50163   50181       6   50163   50184       6   50157   50169       4   50151
   50169       4   50148   50160       4   50142   50160       6   50142   50163
       7   50136   50139       8   50136   50157       4   50133   50151       4
   50130   50148       4   50127   50142       6   50124   50130       9   50124
   50139      10   50121   50133       4   50121   50136       4   50118   50127
       4   50118   50130       4   50115   50121      11   50115   50124      12
   50112   50115      13   50112   50118       8   50469   50481       2   50466
   50469       2   50451   50466       2   50442   50451       2   50433   50442
       2   50424   50433       2   50412   50424       2   50394   50412       2
   50388   50403       4   50382   50403       4   50379   50394       2   50376
   50388       4   50373   50382       4   50361   50379       5   50355   50373
       6   50355   50376       6   50349   50361       4   50343   50361       4
   50340   50352       4   50334   50352       6   50334   50355       7   50328
   50331       8   50328   50349       4   50325   50343       4   50322   50340
       4   50319   50334       6   50316   50322       9   50316   50331      10
   50313   50325       4   50313   50328       4   50310   50319       4   50310
   50322       4   50307   50313      11   50307   50316      12   50304   50307
      13   50304   50310       8   50661   50673       2   50658   50661       2
   50643   50658       2   50634   50643       2   50625   50634       2   50616
   50625       2   50604   50616       2   50586   50604       2   50580   50595
       4   50574   50595       4   50571   50586       2   50568   50580       4
   50565   50574       4   50553   50571       5   50547   50565       6   50547
   50568       6   50541   50553       4   50535   50553       4   50532   50544
       4   50526   50544       6   50526   50547       7   50520   50523       8
   50520   50541       4   50517   50535       4   50514   50532       4   50511
   50526       6   50508   50514       9   50508   50523      10   50505   50517
       4   50505   50520       4   50502   50511       4   50502   50514       4
   50499   50505      11   50499   50508      12   50496   50499      13   50496
   50502       8   50853   50865       2   50850   50853       2   50835   50850
       2   50826   50835       2   50817   50826       2   50808   50817       2
   50796   50808       2   50778   50796       2   50772   50787       4   50766
   50787       4   50763   50778       2   50760   50772       4   50757   50766
       4   50745   50763       5   50739   50757       6   50739   50760       6
   50733   50745       4   50727   50745       4   50724   50736       4   50718
   50736       6   50718   50739       7   50712   50715       8   50712   50733
       4   50709   50727       4   50706   50724       4   50703   50718       6
   50700   50706       9   50700   50715      10   50697   50709       4   50697
   50712       4   50694   50703       4   50694   50706       4   50691   50697
      11   50691   50700      12   50688   50691      13   50688   50694       8
   51045   51057       2   51042   51045       2   51027   51042       2   51018
   51027       2   51009   51018       2   51000   51009       2   50988   51000
       2   50970   50988       2   50964   50979       4   50958   50979       4
   50955   50970       2   50952   50964       4   50949   50958       4   50937
   50955       5   50931   50949       6   50931   50952       6   50925   50937
       4   50919   50937       4   50916   50928       4   50910   50928       6
   50910   50931       7   50904   50907       8   50904   50925       4   50901
   50919       4   50898   50916       4   50895   50910       6   50892   50898
       9   50892   50907      10   50889   50901       4   50889   50904       4
   50886   50895       4   50886   50898       4   50883   50889      11   50883
   50892      12   50880   50883      13   50880   50886       8   51237   51249
       2   51234   51237       2   51219   51234       2   51210   51219       2
   51201   51210       2   51192   51201       2   51180   51192       2   51162
   51180       2   51156   51171       4   51150   51171       4   51147   51162
       2   51144   51156       4   51141   51150       4   51129   51147       5
   51123   51141       6   51123   51144       6   51117   51129       4   51111
   51129       4   51108   51120       4   51102   51120       6   51102   51123
       7   51096   51099       8   51096   51117       4   51093   51111       4
   51090   51108       4   51087   51102       6   51084   51090       9   51084
   51099      10   51081   51093       4   51081   51096       4   51078   51087
       4   51078   51090       4   51075   51081      11   51075   51084      12
   51072   51075      13   51072   51078       8   51429   51441       2   51426
   51429       2   51411   51426       2   51402   51411       2   51393   51402
       2   51384   51393       2   51372   51384       2   51354   51372       2
   51348   51363       4   51342   51363       4   51339   51354       2   51336
   51348       4   51333   51342       4   51321   51339       5   51315   51333
       6   51315   51336       6   51309   51321       4   51303   51321       4
   51300   51312       4   51294   51312       6   51294   51315       7   51288
   51291       8   51288   51309       4   51285   51303       4   51282   51300
       4   51279   51294       6   51276   51282       9   51276   51291      10
   51273   51285       4   51273   51288       4   51270   51279       4   51270
   51282       4   51267   51273      11   51267   51276      12   51264   51267
      13   51264   51270       8   51621   51633       2   51618   51621       2
   51603   51618       2   51594   51603       2   51585   51594       2   51576
   51585       2   51564   51576       2   51546   51564       2   51540   51555
       4   51534   51555       4   51531   51546       2   51528   51540       4
   51525   51534       4   51513   51531       5   51507   51525       6   51507
   51528       6   51501   51513       4   51495   51513       4   51492   51504
       4   51486   51504       6   51486   51507       7   51480   51483       8
   51480   51501       4   51477   51495       4   51474   51492       4   51471
   51486       6   51468   51474       9   51468   51483      10   51465   51477
       4   51465   51480       4   51462   51471       4   51462   51474       4
   51459   51465      11   51459   51468      12   51456   51459      13   51456
   51462       8   51813   51825       2   51810   51813       2   51795   51810
       2   51786   51795       2   51777   51786       2   51768   51777       2
   51756   51768       2   51738   51756       2   51732   51747       4   51726
   51747       4   51723   51738       2   51720   51732       4   51717   51726
       4   51705   51723       5   51699   51717       6   51699   51720       6
   51693   51705       4   51687   51705       4   51684   51696       4   51678
   51696       6   51678   51699       7   51672   51675       8   51672   51693
       4   51669   51687       4   51666   51684       4   51663   51678       6
   51660   51666       9   51660   51675      10   51657   51669       4   51657
   51672       4   51654   51663       4   51654   51666       4   51651   51657
      11   51651   51660      12   51648   51651      13   51648   51654       8
   52005   52017       2   52002   52005       2   51987   52002       2   51978
   51987       2   51969   51978       2   51960   51969       2   51948   51960
       2   51930   51948       2   51924   51939       4   51918   51939       4
   51915   51930       2   51912   51924       4   51909   51918       4   51897
   51915       5   51891   51909       6   51891   51912       6   51885   51897
       4   51879   51897       4   51876   51888       4   51870   51888       6
   51870   51891       7   51864   51867       8   51864   51885       4   51861
   51879       4   51858   51876       4   51855   51870       6   51852   51858
       9   51852   51867      10   51849   51861       4   51849   51864       4
   51846   51855       4   51846   51858       4   51843   51849      11   51843
   51852      12   51840   51843      13   51840   51846       8   52197   52209
       2   52194   52197       2   52179   52194       2   52170   52179       2
   52161   52170       2   52152   52161       2   52140   52152       2   52122
   52140       2   52116   52131       4   52110   52131       4   52107   52122
       2   52104   52116       4   52101   52110       4   52089   52107       5
   52083   52101       6   52083   52104       6   52077   52089       4   52071
   52089       4   52068   52080       4   52062   52080       6   52062   52083
       7   52056   52059       8   52056   52077       4   52053   52071       4
   52050   52068       4   52047   52062       6   52044   52050       9   52044
   52059      10   52041   52053       4   52041   52056       4   52038   52047
       4   52038   52050       4   52035   52041      11   52035   52044      12
   52032   52035      13   52032   52038       8   52389   52401       2   52386
   52389       2   52371   52386       2   52362   52371       2   52353   52362
       2   52344   52353       2   52332   52344       2   52314   52332       2
   52308   52323       4   52302   52323       4   52299   52314       2   52296
   52308       4   52293   52302       4   52281   52299       5   52275   52293
       6   52275   52296       6   52269   52281       4   52263   52281       4
   52260   52272       4   52254   52272       6   52254   52275       7   52248
   52251       8   52248   52269       4   52245   52263       4   52242   52260
       4   52239   52254       6   52236   52242       9   52236   52251      10
   52233   52245       4   52233   52248       4   52230   52239       4   52230
   52242       4   52227   52233      11   52227   52236      12   52224   52227
      13   52224   52230       8   52581   52593       2   52578   52581       2
   52563   52578       2   52554   52563       2   52545   52554       2   52536
   52545       2   52524   52536       2   52506   52524       2   52500   52515
       4   52494   52515       4   52491   52506       2   52488   52500       4
   52485   52494       4   52473   52491       5   52467   52485       6   52467
   52488       6   52461   52473       4   52455   52473       4   52452   52464
       4   52446   52464       6   52446   52467       7   52440   52443       8
   52440   52461       4   52437   52455       4   52434   52452       4   52431
   52446       6   52428   52434       9   52428   52443      10   52425   52437
       4   52425   52440       4   52422   52431       4   52422   52434       4
   52419   52425      11   52419   52428      12   52416   52419      13   52416
   52422       8   52773   52785       2   52770   52773       2   52755   52770
       2   52746   52755       2   52737   52746       2   52728   52737       2
   52716   52728       2   52698   52716       2   52692   52707       4   52686
   52707       4   52683   52698       2   52680   52692       4   52677   52686
       4   52665   52683       5   52659   52677       6   52659   52680       6
   52653   52665       4   52647   52665       4   52644   52656       4   52638
   52656       6   52638   52659       7   52632   52635       8   52632   52653
       4   52629   52647       4   52626   52644       4   52623   52638       6
   52620   52626       9   52620   52635      10   52617   52629       4   52617
   52632       4   52614   52623       4   52614   52626       4   52611   52617
      11   52611   52620      12   52608   52611      13   52608   52614       8
   52965   52977       2   52962   52965       2   52947   52962       2   52938
   52947       2   52929   52938       2   52920   52929       2   52908   52920
       2   52890   52908       2   52884   52899       4   52878   52899       4
   52875   52890       2   52872   52884       4   52869   52878       4   52857
   52875       5   52851   52869       6   52851   52872       6   52845   52857
       4   52839   52857       4   52836   52848       4   52830   52848       6
   52830   52851       7   52824   52827       8   52824   52845       4   52821
   52839       4   52818   52836       4   52815   52830       6   52812   52818
       9   52812   52827      10   52809   52821       4   52809   52824       4
   52806   52815       4   52806   52818       4   52803   52809      11   52803
   52812      12   52800   52803      13   52800   52806       8   53157   53169
       2   53154   53157       2   53139   53154       2   53130   53139       2
   53121   53130       2   53112   53121       2   53100   53112       2   53082
   53100       2   53076   53091       4   53070   53091       4   53067   53082
       2   53064   53076       4   53061   53070       4   53049   53067       5
   53043   53061       6   53043   53064       6   53037   53049       4   53031
   53049       4   53028   53040       4   53022   53040       6   53022   53043
       7   53016   53019       8   53016   53037       4   53013   53031       4
   53010   53028       4   53007   53022       6   53004   53010       9   53004
   53019      10   53001   53013       4   53001   53016       4   52998   53007
       4   52998   53010       4   52995   53001      11   52995   53004      12
   52992   52995      13   52992   52998       8   53349   53361       2   53346
   53349       2   53331   53346       2   53322   53331       2   53313   53322
       2   53304   53313       2   53292   53304       2   53274   53292       2
   53268   53283       4   53262   53283       4   53259   53274       2   53256
   53268       4   53253   53262       4   53241   53259       5   53235   53253
       6   53235   53256       6   53229   53241       4   53223   53241       4
   53220   53232       4   53214   53232       6   53214   53235       7   53208
   53211       8   53208   53229       4   53205   53223       4   53202   53220
       4   53199   53214       6   53196   53202       9   53196   53211      10
   53193   53205       4   53193   53208       4   53190   53199       4   53190
   53202       4   53187   53193      11   53187   53196      12   53184   53187
      13   53184   53190       8   53541   53553       2   53538   53541       2
   53523   53538       2   53514   53523       2   53505   53514       2   53496
   53505       2   53484   53496       2   53466   53484       2   53460   53475
       4   53454   53475       4   53451   53466       2   53448   53460       4
   53445   53454       4   53433   53451       5   53427   53445       6   53427
   53448       6   53421   53433       4   53415   53433       4   53412   53424
       4   53406   53424       6   53406   53427       7   53400   53403       8
   53400   53421       4   53397   53415       4   53394   53412       4   53391
   53406       6   53388   53394       9   53388   53403      10   53385   53397
       4   53385   53400       4   53382   53391       4   53382   53394       4
   53379   53385      11   53379   53388      12   53376   53379      13   53376
   53382       8   53733   53745       2   53730   53733       2   53715   53730
       2   53706   53715       2   53697   53706       2   53688   53697       2
   53676   53688       2   53658   53676       2   53652   53667       4   53646
   53667       4   53643   53658       2   53640   53652       4   53637   53646
       4   53625   53643       5   53619   53637       6   53619   53640       6
   53613   53625       4   53607   53625       4   53604   53616       4   53598
   53616       6   53598   53619       7   53592   53595       8   53592   53613
       4   53589   53607       4   53586   53604       4   53583   53598       6
   53580   53586       9   53580   53595      10   53577   53589       4   53577
   53592       4   53574   53583       4   53574   53586       4   53571   53577
      11   53571   53580      12   53568   53571      13   53568   53574       8
   53925   53937       2   53922   53925       2   53907   53922       2   53898
   53907       2   53889   53898       2   53880   53889       2   53868   53880
       2   53850   53868       2   53844   53859       4   53838   53859       4
   53835   53850       2   53832   53844       4   53829   53838       4   53817
   53835       5   53811   53829       6   53811   53832       6   53805   53817
       4   53799   53817       4   53796   53808       4   53790   53808       6
   53790   53811       7   53784   53787       8   53784   53805       4   53781
   53799       4   53778   53796       4   53775   53790       6   53772   53778
       9   53772   53787      10   53769   53781       4   53769   53784       4
   53766   53775       4   53766   53778       4   53763   53769      11   53763
   53772      12   53760   53763      13   53760   53766       8   54117   54129
       2   54114   54117       2   54099   54114       2   54090   54099       2
   54081   54090       2   54072   54081       2   54060   54072       2   54042
   54060       2   54036   54051       4   54030   54051       4   54027   54042
       2   54024   54036       4   54021   54030       4   54009   54027       5
   54003   54021       6   54003   54024       6   53997   54009       4   53991
   54009       4   53988   54000       4   53982   54000       6   53982   54003
       7   53976   53979       8   53976   53997       4   53973   53991       4
   53970   53988       4   53967   53982       6   53964   53970       9   53964
   53979      10   53961   53973       4   53961   53976       4   53958   53967
       4   53958   53970       4   53955   53961      11   53955   53964      12
   53952   53955      13   53952   53958       8   54309   54321       2   54306
   54309       2   54291   54306       2   54282   54291       2   54273   54282
       2   54264   54273       2   54252   54264       2   54234   54252       2
   54228   54243       4   54222   54243       4   54219   54234       2   54216
   54228       4   54213   54222       4   54201   54219       5   54195   54213
       6   54195   54216       6   54189   54201       4   54183   54201       4
   54180   54192       4   54174   54192       6   54174   54195       7   54168
   54171       8   54168   54189       4   54165   54183       4   54162   54180
       4   54159   54174       6   54156   54162       9   54156   54171      10
   54153   54165       4   54153   54168       4   54150   54159       4   54150
   54162       4   54147   54153      11   54147   54156      12   54144   54147
      13   54144   54150       8   54501   54513       2   54498   54501       2
   54483   54498       2   54474   54483       2   54465   54474       2   54456
   54465       2   54444   54456       2   54426   54444       2   54420   54435
       4   54414   54435       4   54411   54426       2   54408   54420       4
   54405   54414       4   54393   54411       5   54387   54405       6   54387
   54408       6   54381   54393       4   54375   54393       4   54372   54384
       4   54366   54384       6   54366   54387       7   54360   54363       8
   54360   54381       4   54357   54375       4   54354   54372       4   54351
   54366       6   54348   54354       9   54348   54363      10   54345   54357
       4   54345   54360       4   54342   54351       4   54342   54354       4
   54339   54345      11   54339   54348      12   54336   54339      13   54336
   54342       8   54693   54705       2   54690   54693       2   54675   54690
       2   54666   54675       2   54657   54666       2   54648   54657       2
   54636   54648       2   54618   54636       2   54612   54627       4   54606
   54627       4   54603   54618       2   54600   54612       4   54597   54606
       4   54585   54603       5   54579   54597       6   54579   54600       6
   54573   54585       4   54567   54585       4   54564   54576       4   54558
   54576       6   54558   54579       7   54552   54555       8   54552   54573
       4   54549   54567       4   54546   54564       4   54543   54558       6
   54540   54546       9   54540   54555      10   54537   54549       4   54537
   54552       4   54534   54543       4   54534   54546       4   54531   54537
      11   54531   54540      12   54528   54531      13   54528   54534       8
   54885   54897       2   54882   54885       2   54867   54882       2   54858
   54867       2   54849   54858       2   54840   54849       2   54828   54840
       2   54810   54828       2   54804   54819       4   54798   54819       4
   54795   54810       2   54792   54804       4   54789   54798       4   54777
   54795       5   54771   54789       6   54771   54792       6   54765   54777
       4   54759   54777       4   54756   54768       4   54750   54768       6
   54750   54771       7   54744   54747       8   54744   54765       4   54741
   54759       4   54738   54756       4   54735   54750       6   54732   54738
       9   54732   54747      10   54729   54741       4   54729   54744       4
   54726   54735       4   54726   54738       4   54723   54729      11   54723
   54732      12   54720   54723      13   54720   54726       8   55077   55089
       2   55074   55077       2   55059   55074       2   55050   55059       2
   55041   55050       2   55032   55041       2   55020   55032       2   55002
   55020       2   54996   55011       4   54990   55011       4   54987   55002
       2   54984   54996       4   54981   54990       4   54969   54987       5
   54963   54981       6   54963   54984       6   54957   54969       4   54951
   54969       4   54948   54960       4   54942   54960       6   54942   54963
       7   54936   54939       8   54936   54957       4   54933   54951       4
   54930   54948       4   54927   54942       6   54924   54930       9   54924
   54939      10   54921   54933       4   54921   54936       4   54918   54927
       4   54918   54930       4   54915   54921      11   54915   54924      12
   54912   54915      13   54912   54918       8   55269   55281       2   55266
   55269       2   55251   55266       2   55242   55251       2   55233   55242
       2   55224   55233       2   55212   55224       2   55194   55212       2
   55188   55203       4   55182   55203       4   55179   55194       2   55176
   55188       4   55173   55182       4   55161   55179       5   55155   55173
       6   55155   55176       6   55149   55161       4   55143   55161       4
   55140   55152       4   55134   55152       6   55134   55155       7   55128
   55131       8   55128   55149       4   55125   55143       4   55122   55140
       4   55119   55134       6   55116   55122       9   55116   55131      10
   55113   55125       4   55113   55128       4   55110   55119       4   55110
   55122       4   55107   55113      11   55107   55116      12   55104   55107
      13   55104   55110       8
%FLAG ANGLES_INC_HYDROGEN                                                       
%FORMAT(10I8)                                                                   
     186     177     189       1     183     177     186       1     183     177
     189       1     177     165     180       2     174     165     177       2
     174     165     180       1     168     162     171       1     165     162
     168       2     165     162     171       2     165     177     183       2
     165     177     186       2     165     177     189       2     162     165
     174       2     162     165     180       2     159     147     162       2
     156     147     159       1     156     147     162       2     150     138
     153       1     147     138     150       2     147     138     153       2
     147     162     168       2     147     162     171       2     141     129
     144       1     138     129     141       2     138     129     144       2
     138     147     156       2     138     147     159       2     132     120
     135       1     129     120     132       2     129     120     135       2
     129     138     150       2     129     138     153       2     123     108
     126       1     120     108     123       2     120     108     126       2
     120     129     141       2     120     129     144       2     111      90
     114       1     108      90     111       2     108      90     114       2
     108     120     132       2     108     120     135       2      99      78
     102       4      99      84     105       4      93      75      96       1
      90      75      93       2      90      75      96       2      90     108
     123       2      90     108     126       2      84      72      87       4
      84      99     117       4      78      69      81       4      78      99
     117       4      75      90     111       2      75      90     114       2
      72      84     105       4      69      78     102       4      57      39
      60       4      57      45      63       4      57      75      93       8
      57      75      96       8      51      69      81      10      51      72
      87      10      48      36      54       4      39      21      42       4
      36      48      66       4      30      15      33      10      30      48
      66      10      24      45      63       4      21      39      60       4
      18      36      54       4       9      21      42       4       6      15
      33       4     378     369     381       1     375     369     378       1
     375     369     381       1     369     357     372       2     366     357
     369       2     366     357     372       1     360     354     363       1
     357     354     360       2     357     354     363       2     357     369
     375       2     357     369     378       2     357     369     381       2
     354     357     366       2     354     357     372       2     351     339
     354       2     348     339     351       1     348     339     354       2
     342     330     345       1     339     330     342       2     339     330
     345       2     339     354     360       2     339     354     363       2
     333     321     336       1     330     321     333       2     330     321
     336       2     330     339     348       2     330     339     351       2
     324     312     327       1     321     312     324       2     321     312
     327       2     321     330     342       2     321     330     345       2
     315     300     318       1     312     300     315       2     312     300
     318       2     312     321     333       2     312     321     336       2
     303     282     306       1     300     282     303       2     300     282
     306       2     300     312     324       2     300     312     327       2
     291     270     294       4     291     276     297       4     285     267
     288       1     282     267     285       2     282     267     288       2
     282     300     315       2     282     300     318       2     276     264
     279       4     276     291     309       4     270     261     273       4
     270     291     309       4     267     282     303       2     267     282
     306       2     264     276     297       4     261     270     294       4
     249     231     252       4     249     237     255       4     249     267
     285       8     249     267     288       8     243     261     273      10
     243     264     279      10     240     228     246       4     231     213
     234       4     228     240     258       4     222     207     225      10
     222     240     258      10     216     237     255       4     213     231
     252       4     210     228     246       4     201     213     234       4
     198     207     225       4     570     561     573       1     567     561
     570       1     567     561     573       1     561     549     564       2
     558     549     561       2     558     549     564       1     552     546
     555       1     549     546     552       2     549     546     555       2
     549     561     567       2     549     561     570       2     549     561
     573       2     546     549     558       2     546     549     564       2
     543     531     546       2     540     531     543       1     540     531
     546       2     534     522     537       1     531     522     534       2
     531     522     537       2     531     546     552       2     531     546
     555       2     525     513     528       1     522     513     525       2
     522     513     528       2     522     531     540       2     522     531
     543       2     516     504     519       1     513     504     516       2
     513     504     519       2     513     522     534       2     513     522
     537       2     507     492     510       1     504     492     507       2
     504     492     510       2     504     513     525       2     504     513
     528       2     495     474     498       1     492     474     495       2
     492     474     498       2     492     504     516       2     492     504
     519       2     483     462     486       4     483     468     489       4
     477     459     480       1     474     459     477       2     474     459
     480       2     474     492     507       2     474     492     510       2
     468     456     471       4     468     483     501       4     462     453
     465       4     462     483     501       4     459     474     495       2
     459     474     498       2     456     468     489       4     453     462
     486       4     441     423     444       4     441     429     447       4
     441     459     477       8     441     459     480       8     435     453
     465      10     435     456     471      10     432     420     438       4
     423     405     426       4     420     432     450       4     414     399
     417      10     414     432     450      10     408     429     447       4
     405     423     444       4     402     420     438       4     393     405
     426       4     390     399     417       4     762     753     765       1
     759     753     762       1     759     753     765       1     753     741
     756       2     750     741     753       2     750     741     756       1
     744     738     747       1     741     738     744       2     741     738
     747       2     741     753     759       2     741     753     762       2
     741     753     765       2     738     741     750       2     738     741
     756       2     735     723     738       2     732     723     735       1
     732     723     738       2     726     714     729       1     723     714
     726       2     723     714     729       2     723     738     744       2
     723     738     747       2     717     705     720       1     714     705
     717       2     714     705     720       2     714     723     732       2
     714     723     735       2     708     696     711       1     705     696
     708       2     705     696     711       2     705     714     726       2
     705     714     729       2     699     684     702       1     696     684
     699       2     696     684     702       2     696     705     717       2
     696     705     720       2     687     666     690       1     684     666
     687       2     684     666     690       2     684     696     708       2
     684     696     711       2     675     654     678       4     675     660
     681       4     669     651     672       1     666     651     669       2
     666     651     672       2     666     684     699       2     666     684
     702       2     660     648     663       4     660     675     693       4
     654     645     657       4     654     675     693       4     651     666
     687       2     651     666     690       2     648     660     681       4
     645     654     678       4     633     615     636       4     633     621
     639       4     633     651     669       8     633     651     672       8
     627     645     657      10     627     648     663      10     624     612
     630       4     615     597     618       4     612     624     642       4
     606     591     609      10     606     624     642      10     600     621
     639       4     597     615     636       4     594     612     630       4
     585     597     618       4     582     591     609       4     954     945
     957       1     951     945     954       1     951     945     957       1
     945     933     948       2     942     933     945       2     942     933
     948       1     936     930     939       1     933     930     936       2
     933     930     939       2     933     945     951       2     933     945
     954       2     933     945     957       2     930     933     942       2
     930     933     948       2     927     915     930       2     924     915
     927       1     924     915     930       2     918     906     921       1
     915     906     918       2     915     906     921       2     915     930
     936       2     915     930     939       2     909     897     912       1
     906     897     909       2     906     897     912       2     906     915
     924       2     906     915     927       2     900     888     903       1
     897     888     900       2     897     888     903       2     897     906
     918       2     897     906     921       2     891     876     894       1
     888     876     891       2     888     876     894       2     888     897
     909       2     888     897     912       2     879     858     882       1
     876     858     879       2     876     858     882       2     876     888
     900       2     876     888     903       2     867     846     870       4
     867     852     873       4     861     843     864       1     858     843
     861       2     858     843     864       2     858     876     891       2
     858     876     894       2     852     840     855       4     852     867
     885       4     846     837     849       4     846     867     885       4
     843     858     879       2     843     858     882       2     840     852
     873       4     837     846     870       4     825     807     828       4
     825     813     831       4     825     843     861       8     825     843
     864       8     819     837     849      10     819     840     855      10
     816     804     822       4     807     789     810       4     804     816
     834       4     798     783     801      10     798     816     834      10
     792     813     831       4     789     807     828       4     786     804
     822       4     777     789     810       4     774     783     801       4
    1146    1137    1149       1    1143    1137    1146       1    1143    1137
    1149       1    1137    1125    1140       2    1134    1125    1137       2
    1134    1125    1140       1    1128    1122    1131       1    1125    1122
    1128       2    1125    1122    1131       2    1125    1137    1143       2
    1125    1137    1146       2    1125    1137    1149       2    1122    1125
    1134       2    1122    1125    1140       2    1119    1107    1122       2
    1116    1107    1119       1    1116    1107    1122       2    1110    1098
    1113       1    1107    1098    1110       2    1107    1098    1113       2
    1107    1122    1128       2    1107    1122    1131       2    1101    1089
    1104       1    1098    1089    1101       2    1098    1089    1104       2
    1098    1107    1116       2    1098    1107    1119       2    1092    1080
    1095       1    1089    1080    1092       2    1089    1080    1095       2
    1089    1098    1110       2    1089    1098    1113       2    1083    1068
    1086       1    1080    1068    1083       2    1080    1068    1086       2
    1080    1089    1101       2    1080    1089    1104       2    1071    1050
    1074       1    1068    1050    1071       2    1068    1050    1074       2
    1068    1080    1092       2    1068    1080    1095       2    1059    1038
    1062       4    1059    1044    1065       4    1053    1035    1056       1
    1050    1035    1053       2    1050    1035    1056       2    1050    1068
    1083       2    1050    1068    1086       2    1044    1032    1047       4
    1044    1059    1077       4    1038    1029    1041       4    1038    1059
    1077       4    1035    1050    1071       2    1035    1050    1074       2
    1032    1044    1065       4    1029    1038    1062       4    1017     999
    1020       4    1017    1005    1023       4    1017    1035    1053       8
    1017    1035    1056       8    1011    1029    1041      10    1011    1032
    1047      10    1008     996    1014       4     999     981    1002       4
     996    1008    1026       4     990     975     993      10     990    1008
    1026      10     984    1005    1023       4     981     999    1020       4
     978     996    1014       4     969     981    1002       4     966     975
     993       4    1338    1329    1341       1    1335    1329    1338       1
    1335    1329    1341       1    1329    1317    1332       2    1326    1317
    1329       2    1326    1317    1332       1    1320    1314    1323       1
    1317    1314    1320       2    1317    1314    1323       2    1317    1329
    1335       2    1317    1329    1338       2    1317    1329    1341       2
    1314    1317    1326       2    1314    1317    1332       2    1311    1299
    1314       2    1308    1299    1311       1    1308    1299    1314       2
    1302    1290    1305       1    1299    1290    1302       2    1299    1290
    1305       2    1299    1314    1320       2    1299    1314    1323       2
    1293    1281    1296       1    1290    1281    1293       2    1290    1281
    1296       2    1290    1299    1308       2    1290    1299    1311       2
    1284    1272    1287       1    1281    1272    1284       2    1281    1272
    1287       2    1281    1290    1302       2    1281    1290    1305       2
    1275    1260    1278       1    1272    1260    1275       2    1272    1260
    1278       2    1272    1281    1293       2    1272    1281    1296       2
    1263    1242    1266       1    1260    1242    1263       2    1260    1242
    1266       2    1260    1272    1284       2    1260    1272    1287       2
    1251    1230    1254       4    1251    1236    1257       4    1245    1227
    1248       1    1242    1227    1245       2    1242    1227    1248       2
    1242    1260    1275       2    1242    1260    1278       2    1236    1224
    1239       4    1236    1251    1269       4    1230    1221    1233       4
    1230    1251    1269       4    1227    1242    1263       2    1227    1242
    1266       2    1224    1236    1257       4    1221    1230    1254       4
    1209    1191    1212       4    1209    1197    1215       4    1209    1227
    1245       8    1209    1227    1248       8    1203    1221    1233      10
    1203    1224    1239      10    1200    1188    1206       4    1191    1173
    1194       4    1188    1200    1218       4    1182    1167    1185      10
    1182    1200    1218      10    1176    1197    1215       4    1173    1191
    1212       4    1170    1188    1206       4    1161    1173    1194       4
    1158    1167    1185       4    1530    1521    1533       1    1527    1521
    1530       1    1527    1521    1533       1    1521    1509    1524       2
    1518    1509    1521       2    1518    1509    1524       1    1512    1506
    1515       1    1509    1506    1512       2    1509    1506    1515       2
    1509    1521    1527       2    1509    1521    1530       2    1509    1521
    1533       2    1506    1509    1518       2    1506    1509    1524       2
    1503    1491    1506       2    1500    1491    1503       1    1500    1491
    1506       2    1494    1482    1497       1    1491    1482    1494       2
    1491    1482    1497       2    1491    1506    1512       2    1491    1506
    1515       2    1485    1473    1488       1    1482    1473    1485       2
    1482    1473    1488       2    1482    1491    1500       2    1482    1491
    1503       2    1476    1464    1479       1    1473    1464    1476       2
    1473    1464    1479       2    1473    1482    1494       2    1473    1482
    1497       2    1467    1452    1470       1    1464    1452    1467       2
    1464    1452    1470       2    1464    1473    1485       2    1464    1473
    1488       2    1455    1434    1458       1    1452    1434    1455       2
    1452    1434    1458       2    1452    1464    1476       2    1452    1464
    1479       2    1443    1422    1446       4    1443    1428    1449       4
    1437    1419    1440       1    1434    1419    1437       2    1434    1419
    1440       2    1434    1452    1467       2    1434    1452    1470       2
    1428    1416    1431       4    1428    1443    1461       4    1422    1413
    1425       4    1422    1443    1461       4    1419    1434    1455       2
    1419    1434    1458       2    1416    1428    1449       4    1413    1422
    1446       4    1401    1383    1404       4    1401    1389    1407       4
    1401    1419    1437       8    1401    1419    1440       8    1395    1413
    1425      10    1395    1416    1431      10    1392    1380    1398       4
    1383    1365    1386       4    1380    1392    1410       4    1374    1359
    1377      10    1374    1392    1410      10    1368    1389    1407       4
    1365    1383    1404       4    1362    1380    1398       4    1353    1365
    1386       4    1350    1359    1377       4    1722    1713    1725       1
    1719    1713    1722       1    1719    1713    1725       1    1713    1701
    1716       2    1710    1701    1713       2    1710    1701    1716       1
    1704    1698    1707       1    1701    1698    1704       2    1701    1698
    1707       2    1701    1713    1719       2    1701    1713    1722       2
    1701    1713    1725       2    1698    1701    1710       2    1698    1701
    1716       2    1695    1683    1698       2    1692    1683    1695       1
    1692    1683    1698       2    1686    1674    1689       1    1683    1674
    1686       2    1683    1674    1689       2    1683    1698    1704       2
    1683    1698    1707       2    1677    1665    1680       1    1674    1665
    1677       2    1674    1665    1680       2    1674    1683    1692       2
    1674    1683    1695       2    1668    1656    1671       1    1665    1656
    1668       2    1665    1656    1671       2    1665    1674    1686       2
    1665    1674    1689       2    1659    1644    1662       1    1656    1644
    1659       2    1656    1644    1662       2    1656    1665    1677       2
    1656    1665    1680       2    1647    1626    1650       1    1644    1626
    1647       2    1644    1626    1650       2    1644    1656    1668       2
    1644    1656    1671       2    1635    1614    1638       4    1635    1620
    1641       4    1629    1611    1632       1    1626    1611    1629       2
    1626    1611    1632       2    1626    1644    1659       2    1626    1644
    1662       2    1620    1608    1623       4    1620    1635    1653       4
    1614    1605    1617       4    1614    1635    1653       4    1611    1626
    1647       2    1611    1626    1650       2    1608    1620    1641       4
    1605    1614    1638       4    1593    1575    1596       4    1593    1581
    1599       4    1593    1611    1629       8    1593    1611    1632       8
    1587    1605    1617      10    1587    1608    1623      10    1584    1572
    1590       4    1575    1557    1578       4    1572    1584    1602       4
    1566    1551    1569      10    1566    1584    1602      10    1560    1581
    1599       4    1557    1575    1596       4    1554    1572    1590       4
    1545    1557    1578       4    1542    1551    1569       4    1914    1905
    1917       1    1911    1905    1914       1    1911    1905    1917       1
    1905    1893    1908       2    1902    1893    1905       2    1902    1893
    1908       1    1896    1890    1899       1    1893    1890    1896       2
    1893    1890    1899       2    1893    1905    1911       2    1893    1905
    1914       2    1893    1905    1917       2    1890    1893    1902       2
    1890    1893    1908       2    1887    1875    1890       2    1884    1875
    1887       1    1884    1875    1890       2    1878    1866    1881       1
    1875    1866    1878       2    1875    1866    1881       2    1875    1890
    1896       2    1875    1890    1899       2    1869    1857    1872       1
    1866    1857    1869       2    1866    1857    1872       2    1866    1875
    1884       2    1866    1875    1887       2    1860    1848    1863       1
    1857    1848    1860       2    1857    1848    1863       2    1857    1866
    1878       2    1857    1866    1881       2    1851    1836    1854       1
    1848    1836    1851       2    1848    1836    1854       2    1848    1857
    1869       2    1848    1857    1872       2    1839    1818    1842       1
    1836    1818    1839       2    1836    1818    1842       2    1836    1848
    1860       2    1836    1848    1863       2    1827    1806    1830       4
    1827    1812    1833       4    1821    1803    1824       1    1818    1803
    1821       2    1818    1803    1824       2    1818    1836    1851       2
    1818    1836    1854       2    1812    1800    1815       4    1812    1827
    1845       4    1806    1797    1809       4    1806    1827    1845       4
    1803    1818    1839       2    1803    1818    1842       2    1800    1812
    1833       4    1797    1806    1830       4    1785    1767    1788       4
    1785    1773    1791       4    1785    1803    1821       8    1785    1803
    1824       8    1779    1797    1809      10    1779    1800    1815      10
    1776    1764    1782       4    1767    1749    1770       4    1764    1776
    1794       4    1758    1743    1761      10    1758    1776    1794      10
    1752    1773    1791       4    1749    1767    1788       4    1746    1764
    1782       4    1737    1749    1770       4    1734    1743    1761       4
    2106    2097    2109       1    2103    2097    2106       1    2103    2097
    2109       1    2097    2085    2100       2    2094    2085    2097       2
    2094    2085    2100       1    2088    2082    2091       1    2085    2082
    2088       2    2085    2082    2091       2    2085    2097    2103       2
    2085    2097    2106       2    2085    2097    2109       2    2082    2085
    2094       2    2082    2085    2100       2    2079    2067    2082       2
    2076    2067    2079       1    2076    2067    2082       2    2070    2058
    2073       1    2067    2058    2070       2    2067    2058    2073       2
    2067    2082    2088       2    2067    2082    2091       2    2061    2049
    2064       1    2058    2049    2061       2    2058    2049    2064       2
    2058    2067    2076       2    2058    2067    2079       2    2052    2040
    2055       1    2049    2040    2052       2    2049    2040    2055       2
    2049    2058    2070       2    2049    2058    2073       2    2043    2028
    2046       1    2040    2028    2043       2    2040    2028    2046       2
    2040    2049    2061       2    2040    2049    2064       2    2031    2010
    2034       1    2028    2010    2031       2    2028    2010    2034       2
    2028    2040    2052       2    2028    2040    2055       2    2019    1998
    2022       4    2019    2004    2025       4    2013    1995    2016       1
    2010    1995    2013       2    2010    1995    2016       2    2010    2028
    2043       2    2010    2028    2046       2    2004    1992    2007       4
    2004    2019    2037       4    1998    1989    2001       4    1998    2019
    2037       4    1995    2010    2031       2    1995    2010    2034       2
    1992    2004    2025       4    1989    1998    2022       4    1977    1959
    1980       4    1977    1965    1983       4    1977    1995    2013       8
    1977    1995    2016       8    1971    1989    2001      10    1971    1992
    2007      10    1968    1956    1974       4    1959    1941    1962       4
    1956    1968    1986       4    1950    1935    1953      10    1950    1968
    1986      10    1944    1965    1983       4    1941    1959    1980       4
    1938    1956    1974       4    1929    1941    1962       4    1926    1935
    1953       4    2298    2289    2301       1    2295    2289    2298       1
    2295    2289    2301       1    2289    2277    2292       2    2286    2277
    2289       2    2286    2277    2292       1    2280    2274    2283       1
    2277    2274    2280       2    2277    2274    2283       2    2277    2289
    2295       2    2277    2289    2298       2    2277    2289    2301       2
    2274    2277    2286       2    2274    2277    2292       2    2271    2259
    2274       2    2268    2259    2271       1    2268    2259    2274       2
    2262    2250    2265       1    2259    2250    2262       2    2259    2250
    2265       2    2259    2274    2280       2    2259    2274    2283       2
    2253    2241    2256       1    2250    2241    2253       2    2250    2241
    2256       2    2250    2259    2268       2    2250    2259    2271       2
    2244    2232    2247       1    2241    2232    2244       2    2241    2232
    2247       2    2241    2250    2262       2    2241    2250    2265       2
    2235    2220    2238       1    2232    2220    2235       2    2232    2220
    2238       2    2232    2241    2253       2    2232    2241    2256       2
    2223    2202    2226       1    2220    2202    2223       2    2220    2202
    2226       2    2220    2232    2244       2    2220    2232    2247       2
    2211    2190    2214       4    2211    2196    2217       4    2205    2187
    2208       1    2202    2187    2205       2    2202    2187    2208       2
    2202    2220    2235       2    2202    2220    2238       2    2196    2184
    2199       4    2196    2211    2229       4    2190    2181    2193       4
    2190    2211    2229       4    2187    2202    2223       2    2187    2202
    2226       2    2184    2196    2217       4    2181    2190    2214       4
    2169    2151    2172       4    2169    2157    2175       4    2169    2187
    2205       8    2169    2187    2208       8    2163    2181    2193      10
    2163    2184    2199      10    2160    2148    2166       4    2151    2133
    2154       4    2148    2160    2178       4    2142    2127    2145      10
    2142    2160    2178      10    2136    2157    2175       4    2133    2151
    2172       4    2130    2148    2166       4    2121    2133    2154       4
    2118    2127    2145       4    2490    2481    2493       1    2487    2481
    2490       1    2487    2481    2493       1    2481    2469    2484       2
    2478    2469    2481       2    2478    2469    2484       1    2472    2466
    2475       1    2469    2466    2472       2    2469    2466    2475       2
    2469    2481    2487       2    2469    2481    2490       2    2469    2481
    2493       2    2466    2469    2478       2    2466    2469    2484       2
    2463    2451    2466       2    2460    2451    2463       1    2460    2451
    2466       2    2454    2442    2457       1    2451    2442    2454       2
    2451    2442    2457       2    2451    2466    2472       2    2451    2466
    2475       2    2445    2433    2448       1    2442    2433    2445       2
    2442    2433    2448       2    2442    2451    2460       2    2442    2451
    2463       2    2436    2424    2439       1    2433    2424    2436       2
    2433    2424    2439       2    2433    2442    2454       2    2433    2442
    2457       2    2427    2412    2430       1    2424    2412    2427       2
    2424    2412    2430       2    2424    2433    2445       2    2424    2433
    2448       2    2415    2394    2418       1    2412    2394    2415       2
    2412    2394    2418       2    2412    2424    2436       2    2412    2424
    2439       2    2403    2382    2406       4    2403    2388    2409       4
    2397    2379    2400       1    2394    2379    2397       2    2394    2379
    2400       2    2394    2412    2427       2    2394    2412    2430       2
    2388    2376    2391       4    2388    2403    2421       4    2382    2373
    2385       4    2382    2403    2421       4    2379    2394    2415       2
    2379    2394    2418       2    2376    2388    2409       4    2373    2382
    2406       4    2361    2343    2364       4    2361    2349    2367       4
    2361    2379    2397       8    2361    2379    2400       8    2355    2373
    2385      10    2355    2376    2391      10    2352    2340    2358       4
    2343    2325    2346       4    2340    2352    2370       4    2334    2319
    2337      10    2334    2352    2370      10    2328    2349    2367       4
    2325    2343    2364       4    2322    2340    2358       4    2313    2325
    2346       4    2310    2319    2337       4    2682    2673    2685       1
    2679    2673    2682       1    2679    2673    2685       1    2673    2661
    2676       2    2670    2661    2673       2    2670    2661    2676       1
    2664    2658    2667       1    2661    2658    2664       2    2661    2658
    2667       2    2661    2673    2679       2    2661    2673    2682       2
    2661    2673    2685       2    2658    2661    2670       2    2658    2661
    2676       2    2655    2643    2658       2    2652    2643    2655       1
    2652    2643    2658       2    2646    2634    2649       1    2643    2634
    2646       2    2643    2634    2649       2    2643    2658    2664       2
    2643    2658    2667       2    2637    2625    2640       1    2634    2625
    2637       2    2634    2625    2640       2    2634    2643    2652       2
    2634    2643    2655       2    2628    2616    2631       1    2625    2616
    2628       2    2625    2616    2631       2    2625    2634    2646       2
    2625    2634    2649       2    2619    2604    2622       1    2616    2604
    2619       2    2616    2604    2622       2    2616    2625    2637       2
    2616    2625    2640       2    2607    2586    2610       1    2604    2586
    2607       2    2604    2586    2610       2    2604    2616    2628       2
    2604    2616    2631       2    2595    2574    2598       4    2595    2580
    2601       4    2589    2571    2592       1    2586    2571    2589       2
    2586    2571    2592       2    2586    2604    2619       2    2586    2604
    2622       2    2580    2568    2583       4    2580    2595    2613       4
    2574    2565    2577       4    2574    2595    2613       4    2571    2586
    2607       2    2571    2586    2610       2    2568    2580    2601       4
    2565    2574    2598       4    2553    2535    2556       4    2553    2541
    2559       4    2553    2571    2589       8    2553    2571    2592       8
    2547    2565    2577      10    2547    2568    2583      10    2544    2532
    2550       4    2535    2517    2538       4    2532    2544    2562       4
    2526    2511    2529      10    2526    2544    2562      10    2520    2541
    2559       4    2517    2535    2556       4    2514    2532    2550       4
    2505    2517    2538       4    2502    2511    2529       4    2874    2865
    2877       1    2871    2865    2874       1    2871    2865    2877       1
    2865    2853    2868       2    2862    2853    2865       2    2862    2853
    2868       1    2856    2850    2859       1    2853    2850    2856       2
    2853    2850    2859       2    2853    2865    2871       2    2853    2865
    2874       2    2853    2865    2877       2    2850    2853    2862       2
    2850    2853    2868       2    2847    2835    2850       2    2844    2835
    2847       1    2844    2835    2850       2    2838    2826    2841       1
    2835    2826    2838       2    2835    2826    2841       2    2835    2850
    2856       2    2835    2850    2859       2    2829    2817    2832       1
    2826    2817    2829       2    2826    2817    2832       2    2826    2835
    2844       2    2826    2835    2847       2    2820    2808    2823       1
    2817    2808    2820       2    2817    2808    2823       2    2817    2826
    2838       2    2817    2826    2841       2    2811    2796    2814       1
    2808    2796    2811       2    2808    2796    2814       2    2808    2817
    2829       2    2808    2817    2832       2    2799    2778    2802       1
    2796    2778    2799       2    2796    2778    2802       2    2796    2808
    2820       2    2796    2808    2823       2    2787    2766    2790       4
    2787    2772    2793       4    2781    2763    2784       1    2778    2763
    2781       2    2778    2763    2784       2    2778    2796    2811       2
    2778    2796    2814       2    2772    2760    2775       4    2772    2787
    2805       4    2766    2757    2769       4    2766    2787    2805       4
    2763    2778    2799       2    2763    2778    2802       2    2760    2772
    2793       4    2757    2766    2790       4    2745    2727    2748       4
    2745    2733    2751       4    2745    2763    2781       8    2745    2763
    2784       8    2739    2757    2769      10    2739    2760    2775      10
    2736    2724    2742       4    2727    2709    2730       4    2724    2736
    2754       4    2718    2703    2721      10    2718    2736    2754      10
    2712    2733    2751       4    2709    2727    2748       4    2706    2724
    2742       4    2697    2709    2730       4    2694    2703    2721       4
    3066    3057    3069       1    3063    3057    3066       1    3063    3057
    3069       1    3057    3045    3060       2    3054    3045    3057       2
    3054    3045    3060       1    3048    3042    3051       1    3045    3042
    3048       2    3045    3042    3051       2    3045    3057    3063       2
    3045    3057    3066       2    3045    3057    3069       2    3042    3045
    3054       2    3042    3045    3060       2    3039    3027    3042       2
    3036    3027    3039       1    3036    3027    3042       2    3030    3018
    3033       1    3027    3018    3030       2    3027    3018    3033       2
    3027    3042    3048       2    3027    3042    3051       2    3021    3009
    3024       1    3018    3009    3021       2    3018    3009    3024       2
    3018    3027    3036       2    3018    3027    3039       2    3012    3000
    3015       1    3009    3000    3012       2    3009    3000    3015       2
    3009    3018    3030       2    3009    3018    3033       2    3003    2988
    3006       1    3000    2988    3003       2    3000    2988    3006       2
    3000    3009    3021       2    3000    3009    3024       2    2991    2970
    2994       1    2988    2970    2991       2    2988    2970    2994       2
    2988    3000    3012       2    2988    3000    3015       2    2979    2958
    2982       4    2979    2964    2985       4    2973    2955    2976       1
    2970    2955    2973       2    2970    2955    2976       2    2970    2988
    3003       2    2970    2988    3006       2    2964    2952    2967       4
    2964    2979    2997       4    2958    2949    2961       4    2958    2979
    2997       4    2955    2970    2991       2    2955    2970    2994       2
    2952    2964    2985       4    2949    2958    2982       4    2937    2919
    2940       4    2937    2925    2943       4    2937    2955    2973       8
    2937    2955    2976       8    2931    2949    2961      10    2931    2952
    2967      10    2928    2916    2934       4    2919    2901    2922       4
    2916    2928    2946       4    2910    2895    2913      10    2910    2928
    2946      10    2904    2925    2943       4    2901    2919    2940       4
    2898    2916    2934       4    2889    2901    2922       4    2886    2895
    2913       4    3258    3249    3261       1    3255    3249    3258       1
    3255    3249    3261       1    3249    3237    3252       2    3246    3237
    3249       2    3246    3237    3252       1    3240    3234    3243       1
    3237    3234    3240       2    3237    3234    3243       2    3237    3249
    3255       2    3237    3249    3258       2    3237    3249    3261       2
    3234    3237    3246       2    3234    3237    3252       2    3231    3219
    3234       2    3228    3219    3231       1    3228    3219    3234       2
    3222    3210    3225       1    3219    3210    3222       2    3219    3210
    3225       2    3219    3234    3240       2    3219    3234    3243       2
    3213    3201    3216       1    3210    3201    3213       2    3210    3201
    3216       2    3210    3219    3228       2    3210    3219    3231       2
    3204    3192    3207       1    3201    3192    3204       2    3201    3192
    3207       2    3201    3210    3222       2    3201    3210    3225       2
    3195    3180    3198       1    3192    3180    3195       2    3192    3180
    3198       2    3192    3201    3213       2    3192    3201    3216       2
    3183    3162    3186       1    3180    3162    3183       2    3180    3162
    3186       2    3180    3192    3204       2    3180    3192    3207       2
    3171    3150    3174       4    3171    3156    3177       4    3165    3147
    3168       1    3162    3147    3165       2    3162    3147    3168       2
    3162    3180    3195       2    3162    3180    3198       2    3156    3144
    3159       4    3156    3171    3189       4    3150    3141    3153       4
    3150    3171    3189       4    3147    3162    3183       2    3147    3162
    3186       2    3144    3156    3177       4    3141    3150    3174       4
    3129    3111    3132       4    3129    3117    3135       4    3129    3147
    3165       8    3129    3147    3168       8    3123    3141    3153      10
    3123    3144    3159      10    3120    3108    3126       4    3111    3093
    3114       4    3108    3120    3138       4    3102    3087    3105      10
    3102    3120    3138      10    3096    3117    3135       4    3093    3111
    3132       4    3090    3108    3126       4    3081    3093    3114       4
    3078    3087    3105       4    3450    3441    3453       1    3447    3441
    3450       1    3447    3441    3453       1    3441    3429    3444       2
    3438    3429    3441       2    3438    3429    3444       1    3432    3426
    3435       1    3429    3426    3432       2    3429    3426    3435       2
    3429    3441    3447       2    3429    3441    3450       2    3429    3441
    3453       2    3426    3429    3438       2    3426    3429    3444       2
    3423    3411    3426       2    3420    3411    3423       1    3420    3411
    3426       2    3414    3402    3417       1    3411    3402    3414       2
    3411    3402    3417       2    3411    3426    3432       2    3411    3426
    3435       2    3405    3393    3408       1    3402    3393    3405       2
    3402    3393    3408       2    3402    3411    3420       2    3402    3411
    3423       2    3396    3384    3399       1    3393    3384    3396       2
    3393    3384    3399       2    3393    3402    3414       2    3393    3402
    3417       2    3387    3372    3390       1    3384    3372    3387       2
    3384    3372    3390       2    3384    3393    3405       2    3384    3393
    3408       2    3375    3354    3378       1    3372    3354    3375       2
    3372    3354    3378       2    3372    3384    3396       2    3372    3384
    3399       2    3363    3342    3366       4    3363    3348    3369       4
    3357    3339    3360       1    3354    3339    3357       2    3354    3339
    3360       2    3354    3372    3387       2    3354    3372    3390       2
    3348    3336    3351       4    3348    3363    3381       4    3342    3333
    3345       4    3342    3363    3381       4    3339    3354    3375       2
    3339    3354    3378       2    3336    3348    3369       4    3333    3342
    3366       4    3321    3303    3324       4    3321    3309    3327       4
    3321    3339    3357       8    3321    3339    3360       8    3315    3333
    3345      10    3315    3336    3351      10    3312    3300    3318       4
    3303    3285    3306       4    3300    3312    3330       4    3294    3279
    3297      10    3294    3312    3330      10    3288    3309    3327       4
    3285    3303    3324       4    3282    3300    3318       4    3273    3285
    3306       4    3270    3279    3297       4    3642    3633    3645       1
    3639    3633    3642       1    3639    3633    3645       1    3633    3621
    3636       2    3630    3621    3633       2    3630    3621    3636       1
    3624    3618    3627       1    3621    3618    3624       2    3621    3618
    3627       2    3621    3633    3639       2    3621    3633    3642       2
    3621    3633    3645       2    3618    3621    3630       2    3618    3621
    3636       2    3615    3603    3618       2    3612    3603    3615       1
    3612    3603    3618       2    3606    3594    3609       1    3603    3594
    3606       2    3603    3594    3609       2    3603    3618    3624       2
    3603    3618    3627       2    3597    3585    3600       1    3594    3585
    3597       2    3594    3585    3600       2    3594    3603    3612       2
    3594    3603    3615       2    3588    3576    3591       1    3585    3576
    3588       2    3585    3576    3591       2    3585    3594    3606       2
    3585    3594    3609       2    3579    3564    3582       1    3576    3564
    3579       2    3576    3564    3582       2    3576    3585    3597       2
    3576    3585    3600       2    3567    3546    3570       1    3564    3546
    3567       2    3564    3546    3570       2    3564    3576    3588       2
    3564    3576    3591       2    3555    3534    3558       4    3555    3540
    3561       4    3549    3531    3552       1    3546    3531    3549       2
    3546    3531    3552       2    3546    3564    3579       2    3546    3564
    3582       2    3540    3528    3543       4    3540    3555    3573       4
    3534    3525    3537       4    3534    3555    3573       4    3531    3546
    3567       2    3531    3546    3570       2    3528    3540    3561       4
    3525    3534    3558       4    3513    3495    3516       4    3513    3501
    3519       4    3513    3531    3549       8    3513    3531    3552       8
    3507    3525    3537      10    3507    3528    3543      10    3504    3492
    3510       4    3495    3477    3498       4    3492    3504    3522       4
    3486    3471    3489      10    3486    3504    3522      10    3480    3501
    3519       4    3477    3495    3516       4    3474    3492    3510       4
    3465    3477    3498       4    3462    3471    3489       4    3834    3825
    3837       1    3831    3825    3834       1    3831    3825    3837       1
    3825    3813    3828       2    3822    3813    3825       2    3822    3813
    3828       1    3816    3810    3819       1    3813    3810    3816       2
    3813    3810    3819       2    3813    3825    3831       2    3813    3825
    3834       2    3813    3825    3837       2    3810    3813    3822       2
    3810    3813    3828       2    3807    3795    3810       2    3804    3795
    3807       1    3804    3795    3810       2    3798    3786    3801       1
    3795    3786    3798       2    3795    3786    3801       2    3795    3810
    3816       2    3795    3810    3819       2    3789    3777    3792       1
    3786    3777    3789       2    3786    3777    3792       2    3786    3795
    3804       2    3786    3795    3807       2    3780    3768    3783       1
    3777    3768    3780       2    3777    3768    3783       2    3777    3786
    3798       2    3777    3786    3801       2    3771    3756    3774       1
    3768    3756    3771       2    3768    3756    3774       2    3768    3777
    3789       2    3768    3777    3792       2    3759    3738    3762       1
    3756    3738    3759       2    3756    3738    3762       2    3756    3768
    3780       2    3756    3768    3783       2    3747    3726    3750       4
    3747    3732    3753       4    3741    3723    3744       1    3738    3723
    3741       2    3738    3723    3744       2    3738    3756    3771       2
    3738    3756    3774       2    3732    3720    3735       4    3732    3747
    3765       4    3726    3717    3729       4    3726    3747    3765       4
    3723    3738    3759       2    3723    3738    3762       2    3720    3732
    3753       4    3717    3726    3750       4    3705    3687    3708       4
    3705    3693    3711       4    3705    3723    3741       8    3705    3723
    3744       8    3699    3717    3729      10    3699    3720    3735      10
    3696    3684    3702       4    3687    3669    3690       4    3684    3696
    3714       4    3678    3663    3681      10    3678    3696    3714      10
    3672    3693    3711       4    3669    3687    3708       4    3666    3684
    3702       4    3657    3669    3690       4    3654    3663    3681       4
    4026    4017    4029       1    4023    4017    4026       1    4023    4017
    4029       1    4017    4005    4020       2    4014    4005    4017       2
    4014    4005    4020       1    4008    4002    4011       1    4005    4002
    4008       2    4005    4002    4011       2    4005    4017    4023       2
    4005    4017    4026       2    4005    4017    4029       2    4002    4005
    4014       2    4002    4005    4020       2    3999    3987    4002       2
    3996    3987    3999       1    3996    3987    4002       2    3990    3978
    3993       1    3987    3978    3990       2    3987    3978    3993       2
    3987    4002    4008       2    3987    4002    4011       2    3981    3969
    3984       1    3978    3969    3981       2    3978    3969    3984       2
    3978    3987    3996       2    3978    3987    3999       2    3972    3960
    3975       1    3969    3960    3972       2    3969    3960    3975       2
    3969    3978    3990       2    3969    3978    3993       2    3963    3948
    3966       1    3960    3948    3963       2    3960    3948    3966       2
    3960    3969    3981       2    3960    3969    3984       2    3951    3930
    3954       1    3948    3930    3951       2    3948    3930    3954       2
    3948    3960    3972       2    3948    3960    3975       2    3939    3918
    3942       4    3939    3924    3945       4    3933    3915    3936       1
    3930    3915    3933       2    3930    3915    3936       2    3930    3948
    3963       2    3930    3948    3966       2    3924    3912    3927       4
    3924    3939    3957       4    3918    3909    3921       4    3918    3939
    3957       4    3915    3930    3951       2    3915    3930    3954       2
    3912    3924    3945       4    3909    3918    3942       4    3897    3879
    3900       4    3897    3885    3903       4    3897    3915    3933       8
    3897    3915    3936       8    3891    3909    3921      10    3891    3912
    3927      10    3888    3876    3894       4    3879    3861    3882       4
    3876    3888    3906       4    3870    3855    3873      10    3870    3888
    3906      10    3864    3885    3903       4    3861    3879    3900       4
    3858    3876    3894       4    3849    3861    3882       4    3846    3855
    3873       4    4218    4209    4221       1    4215    4209    4218       1
    4215    4209    4221       1    4209    4197    4212       2    4206    4197
    4209       2    4206    4197    4212       1    4200    4194    4203       1
    4197    4194    4200       2    4197    4194    4203       2    4197    4209
    4215       2    4197    4209    4218       2    4197    4209    4221       2
    4194    4197    4206       2    4194    4197    4212       2    4191    4179
    4194       2    4188    4179    4191       1    4188    4179    4194       2
    4182    4170    4185       1    4179    4170    4182       2    4179    4170
    4185       2    4179    4194    4200       2    4179    4194    4203       2
    4173    4161    4176       1    4170    4161    4173       2    4170    4161
    4176       2    4170    4179    4188       2    4170    4179    4191       2
    4164    4152    4167       1    4161    4152    4164       2    4161    4152
    4167       2    4161    4170    4182       2    4161    4170    4185       2
    4155    4140    4158       1    4152    4140    4155       2    4152    4140
    4158       2    4152    4161    4173       2    4152    4161    4176       2
    4143    4122    4146       1    4140    4122    4143       2    4140    4122
    4146       2    4140    4152    4164       2    4140    4152    4167       2
    4131    4110    4134       4    4131    4116    4137       4    4125    4107
    4128       1    4122    4107    4125       2    4122    4107    4128       2
    4122    4140    4155       2    4122    4140    4158       2    4116    4104
    4119       4    4116    4131    4149       4    4110    4101    4113       4
    4110    4131    4149       4    4107    4122    4143       2    4107    4122
    4146       2    4104    4116    4137       4    4101    4110    4134       4
    4089    4071    4092       4    4089    4077    4095       4    4089    4107
    4125       8    4089    4107    4128       8    4083    4101    4113      10
    4083    4104    4119      10    4080    4068    4086       4    4071    4053
    4074       4    4068    4080    4098       4    4062    4047    4065      10
    4062    4080    4098      10    4056    4077    4095       4    4053    4071
    4092       4    4050    4068    4086       4    4041    4053    4074       4
    4038    4047    4065       4    4410    4401    4413       1    4407    4401
    4410       1    4407    4401    4413       1    4401    4389    4404       2
    4398    4389    4401       2    4398    4389    4404       1    4392    4386
    4395       1    4389    4386    4392       2    4389    4386    4395       2
    4389    4401    4407       2    4389    4401    4410       2    4389    4401
    4413       2    4386    4389    4398       2    4386    4389    4404       2
    4383    4371    4386       2    4380    4371    4383       1    4380    4371
    4386       2    4374    4362    4377       1    4371    4362    4374       2
    4371    4362    4377       2    4371    4386    4392       2    4371    4386
    4395       2    4365    4353    4368       1    4362    4353    4365       2
    4362    4353    4368       2    4362    4371    4380       2    4362    4371
    4383       2    4356    4344    4359       1    4353    4344    4356       2
    4353    4344    4359       2    4353    4362    4374       2    4353    4362
    4377       2    4347    4332    4350       1    4344    4332    4347       2
    4344    4332    4350       2    4344    4353    4365       2    4344    4353
    4368       2    4335    4314    4338       1    4332    4314    4335       2
    4332    4314    4338       2    4332    4344    4356       2    4332    4344
    4359       2    4323    4302    4326       4    4323    4308    4329       4
    4317    4299    4320       1    4314    4299    4317       2    4314    4299
    4320       2    4314    4332    4347       2    4314    4332    4350       2
    4308    4296    4311       4    4308    4323    4341       4    4302    4293
    4305       4    4302    4323    4341       4    4299    4314    4335       2
    4299    4314    4338       2    4296    4308    4329       4    4293    4302
    4326       4    4281    4263    4284       4    4281    4269    4287       4
    4281    4299    4317       8    4281    4299    4320       8    4275    4293
    4305      10    4275    4296    4311      10    4272    4260    4278       4
    4263    4245    4266       4    4260    4272    4290       4    4254    4239
    4257      10    4254    4272    4290      10    4248    4269    4287       4
    4245    4263    4284       4    4242    4260    4278       4    4233    4245
    4266       4    4230    4239    4257       4    4602    4593    4605       1
    4599    4593    4602       1    4599    4593    4605       1    4593    4581
    4596       2    4590    4581    4593       2    4590    4581    4596       1
    4584    4578    4587       1    4581    4578    4584       2    4581    4578
    4587       2    4581    4593    4599       2    4581    4593    4602       2
    4581    4593    4605       2    4578    4581    4590       2    4578    4581
    4596       2    4575    4563    4578       2    4572    4563    4575       1
    4572    4563    4578       2    4566    4554    4569       1    4563    4554
    4566       2    4563    4554    4569       2    4563    4578    4584       2
    4563    4578    4587       2    4557    4545    4560       1    4554    4545
    4557       2    4554    4545    4560       2    4554    4563    4572       2
    4554    4563    4575       2    4548    4536    4551       1    4545    4536
    4548       2    4545    4536    4551       2    4545    4554    4566       2
    4545    4554    4569       2    4539    4524    4542       1    4536    4524
    4539       2    4536    4524    4542       2    4536    4545    4557       2
    4536    4545    4560       2    4527    4506    4530       1    4524    4506
    4527       2    4524    4506    4530       2    4524    4536    4548       2
    4524    4536    4551       2    4515    4494    4518       4    4515    4500
    4521       4    4509    4491    4512       1    4506    4491    4509       2
    4506    4491    4512       2    4506    4524    4539       2    4506    4524
    4542       2    4500    4488    4503       4    4500    4515    4533       4
    4494    4485    4497       4    4494    4515    4533       4    4491    4506
    4527       2    4491    4506    4530       2    4488    4500    4521       4
    4485    4494    4518       4    4473    4455    4476       4    4473    4461
    4479       4    4473    4491    4509       8    4473    4491    4512       8
    4467    4485    4497      10    4467    4488    4503      10    4464    4452
    4470       4    4455    4437    4458       4    4452    4464    4482       4
    4446    4431    4449      10    4446    4464    4482      10    4440    4461
    4479       4    4437    4455    4476       4    4434    4452    4470       4
    4425    4437    4458       4    4422    4431    4449       4    4794    4785
    4797       1    4791    4785    4794       1    4791    4785    4797       1
    4785    4773    4788       2    4782    4773    4785       2    4782    4773
    4788       1    4776    4770    4779       1    4773    4770    4776       2
    4773    4770    4779       2    4773    4785    4791       2    4773    4785
    4794       2    4773    4785    4797       2    4770    4773    4782       2
    4770    4773    4788       2    4767    4755    4770       2    4764    4755
    4767       1    4764    4755    4770       2    4758    4746    4761       1
    4755    4746    4758       2    4755    4746    4761       2    4755    4770
    4776       2    4755    4770    4779       2    4749    4737    4752       1
    4746    4737    4749       2    4746    4737    4752       2    4746    4755
    4764       2    4746    4755    4767       2    4740    4728    4743       1
    4737    4728    4740       2    4737    4728    4743       2    4737    4746
    4758       2    4737    4746    4761       2    4731    4716    4734       1
    4728    4716    4731       2    4728    4716    4734       2    4728    4737
    4749       2    4728    4737    4752       2    4719    4698    4722       1
    4716    4698    4719       2    4716    4698    4722       2    4716    4728
    4740       2    4716    4728    4743       2    4707    4686    4710       4
    4707    4692    4713       4    4701    4683    4704       1    4698    4683
    4701       2    4698    4683    4704       2    4698    4716    4731       2
    4698    4716    4734       2    4692    4680    4695       4    4692    4707
    4725       4    4686    4677    4689       4    4686    4707    4725       4
    4683    4698    4719       2    4683    4698    4722       2    4680    4692
    4713       4    4677    4686    4710       4    4665    4647    4668       4
    4665    4653    4671       4    4665    4683    4701       8    4665    4683
    4704       8    4659    4677    4689      10    4659    4680    4695      10
    4656    4644    4662       4    4647    4629    4650       4    4644    4656
    4674       4    4638    4623    4641      10    4638    4656    4674      10
    4632    4653    4671       4    4629    4647    4668       4    4626    4644
    4662       4    4617    4629    4650       4    4614    4623    4641       4
    4986    4977    4989       1    4983    4977    4986       1    4983    4977
    4989       1    4977    4965    4980       2    4974    4965    4977       2
    4974    4965    4980       1    4968    4962    4971       1    4965    4962
    4968       2    4965    4962    4971       2    4965    4977    4983       2
    4965    4977    4986       2    4965    4977    4989       2    4962    4965
    4974       2    4962    4965    4980       2    4959    4947    4962       2
    4956    4947    4959       1    4956    4947    4962       2    4950    4938
    4953       1    4947    4938    4950       2    4947    4938    4953       2
    4947    4962    4968       2    4947    4962    4971       2    4941    4929
    4944       1    4938    4929    4941       2    4938    4929    4944       2
    4938    4947    4956       2    4938    4947    4959       2    4932    4920
    4935       1    4929    4920    4932       2    4929    4920    4935       2
    4929    4938    4950       2    4929    4938    4953       2    4923    4908
    4926       1    4920    4908    4923       2    4920    4908    4926       2
    4920    4929    4941       2    4920    4929    4944       2    4911    4890
    4914       1    4908    4890    4911       2    4908    4890    4914       2
    4908    4920    4932       2    4908    4920    4935       2    4899    4878
    4902       4    4899    4884    4905       4    4893    4875    4896       1
    4890    4875    4893       2    4890    4875    4896       2    4890    4908
    4923       2    4890    4908    4926       2    4884    4872    4887       4
    4884    4899    4917       4    4878    4869    4881       4    4878    4899
    4917       4    4875    4890    4911       2    4875    4890    4914       2
    4872    4884    4905       4    4869    4878    4902       4    4857    4839
    4860       4    4857    4845    4863       4    4857    4875    4893       8
    4857    4875    4896       8    4851    4869    4881      10    4851    4872
    4887      10    4848    4836    4854       4    4839    4821    4842       4
    4836    4848    4866       4    4830    4815    4833      10    4830    4848
    4866      10    4824    4845    4863       4    4821    4839    4860       4
    4818    4836    4854       4    4809    4821    4842       4    4806    4815
    4833       4    5178    5169    5181       1    5175    5169    5178       1
    5175    5169    5181       1    5169    5157    5172       2    5166    5157
    5169       2    5166    5157    5172       1    5160    5154    5163       1
    5157    5154    5160       2    5157    5154    5163       2    5157    5169
    5175       2    5157    5169    5178       2    5157    5169    5181       2
    5154    5157    5166       2    5154    5157    5172       2    5151    5139
    5154       2    5148    5139    5151       1    5148    5139    5154       2
    5142    5130    5145       1    5139    5130    5142       2    5139    5130
    5145       2    5139    5154    5160       2    5139    5154    5163       2
    5133    5121    5136       1    5130    5121    5133       2    5130    5121
    5136       2    5130    5139    5148       2    5130    5139    5151       2
    5124    5112    5127       1    5121    5112    5124       2    5121    5112
    5127       2    5121    5130    5142       2    5121    5130    5145       2
    5115    5100    5118       1    5112    5100    5115       2    5112    5100
    5118       2    5112    5121    5133       2    5112    5121    5136       2
    5103    5082    5106       1    5100    5082    5103       2    5100    5082
    5106       2    5100    5112    5124       2    5100    5112    5127       2
    5091    5070    5094       4    5091    5076    5097       4    5085    5067
    5088       1    5082    5067    5085       2    5082    5067    5088       2
    5082    5100    5115       2    5082    5100    5118       2    5076    5064
    5079       4    5076    5091    5109       4    5070    5061    5073       4
    5070    5091    5109       4    5067    5082    5103       2    5067    5082
    5106       2    5064    5076    5097       4    5061    5070    5094       4
    5049    5031    5052       4    5049    5037    5055       4    5049    5067
    5085       8    5049    5067    5088       8    5043    5061    5073      10
    5043    5064    5079      10    5040    5028    5046       4    5031    5013
    5034       4    5028    5040    5058       4    5022    5007    5025      10
    5022    5040    5058      10    5016    5037    5055       4    5013    5031
    5052       4    5010    5028    5046       4    5001    5013    5034       4
    4998    5007    5025       4    5370    5361    5373       1    5367    5361
    5370       1    5367    5361    5373       1    5361    5349    5364       2
    5358    5349    5361       2    5358    5349    5364       1    5352    5346
    5355       1    5349    5346    5352       2    5349    5346    5355       2
    5349    5361    5367       2    5349    5361    5370       2    5349    5361
    5373       2    5346    5349    5358       2    5346    5349    5364       2
    5343    5331    5346       2    5340    5331    5343       1    5340    5331
    5346       2    5334    5322    5337       1    5331    5322    5334       2
    5331    5322    5337       2    5331    5346    5352       2    5331    5346
    5355       2    5325    5313    5328       1    5322    5313    5325       2
    5322    5313    5328       2    5322    5331    5340       2    5322    5331
    5343       2    5316    5304    5319       1    5313    5304    5316       2
    5313    5304    5319       2    5313    5322    5334       2    5313    5322
    5337       2    5307    5292    5310       1    5304    5292    5307       2
    5304    5292    5310       2    5304    5313    5325       2    5304    5313
    5328       2    5295    5274    5298       1    5292    5274    5295       2
    5292    5274    5298       2    5292    5304    5316       2    5292    5304
    5319       2    5283    5262    5286       4    5283    5268    5289       4
    5277    5259    5280       1    5274    5259    5277       2    5274    5259
    5280       2    5274    5292    5307       2    5274    5292    5310       2
    5268    5256    5271       4    5268    5283    5301       4    5262    5253
    5265       4    5262    5283    5301       4    5259    5274    5295       2
    5259    5274    5298       2    5256    5268    5289       4    5253    5262
    5286       4    5241    5223    5244       4    5241    5229    5247       4
    5241    5259    5277       8    5241    5259    5280       8    5235    5253
    5265      10    5235    5256    5271      10    5232    5220    5238       4
    5223    5205    5226       4    5220    5232    5250       4    5214    5199
    5217      10    5214    5232    5250      10    5208    5229    5247       4
    5205    5223    5244       4    5202    5220    5238       4    5193    5205
    5226       4    5190    5199    5217       4    5562    5553    5565       1
    5559    5553    5562       1    5559    5553    5565       1    5553    5541
    5556       2    5550    5541    5553       2    5550    5541    5556       1
    5544    5538    5547       1    5541    5538    5544       2    5541    5538
    5547       2    5541    5553    5559       2    5541    5553    5562       2
    5541    5553    5565       2    5538    5541    5550       2    5538    5541
    5556       2    5535    5523    5538       2    5532    5523    5535       1
    5532    5523    5538       2    5526    5514    5529       1    5523    5514
    5526       2    5523    5514    5529       2    5523    5538    5544       2
    5523    5538    5547       2    5517    5505    5520       1    5514    5505
    5517       2    5514    5505    5520       2    5514    5523    5532       2
    5514    5523    5535       2    5508    5496    5511       1    5505    5496
    5508       2    5505    5496    5511       2    5505    5514    5526       2
    5505    5514    5529       2    5499    5484    5502       1    5496    5484
    5499       2    5496    5484    5502       2    5496    5505    5517       2
    5496    5505    5520       2    5487    5466    5490       1    5484    5466
    5487       2    5484    5466    5490       2    5484    5496    5508       2
    5484    5496    5511       2    5475    5454    5478       4    5475    5460
    5481       4    5469    5451    5472       1    5466    5451    5469       2
    5466    5451    5472       2    5466    5484    5499       2    5466    5484
    5502       2    5460    5448    5463       4    5460    5475    5493       4
    5454    5445    5457       4    5454    5475    5493       4    5451    5466
    5487       2    5451    5466    5490       2    5448    5460    5481       4
    5445    5454    5478       4    5433    5415    5436       4    5433    5421
    5439       4    5433    5451    5469       8    5433    5451    5472       8
    5427    5445    5457      10    5427    5448    5463      10    5424    5412
    5430       4    5415    5397    5418       4    5412    5424    5442       4
    5406    5391    5409      10    5406    5424    5442      10    5400    5421
    5439       4    5397    5415    5436       4    5394    5412    5430       4
    5385    5397    5418       4    5382    5391    5409       4    5754    5745
    5757       1    5751    5745    5754       1    5751    5745    5757       1
    5745    5733    5748       2    5742    5733    5745       2    5742    5733
    5748       1    5736    5730    5739       1    5733    5730    5736       2
    5733    5730    5739       2    5733    5745    5751       2    5733    5745
    5754       2    5733    5745    5757       2    5730    5733    5742       2
    5730    5733    5748       2    5727    5715    5730       2    5724    5715
    5727       1    5724    5715    5730       2    5718    5706    5721       1
    5715    5706    5718       2    5715    5706    5721       2    5715    5730
    5736       2    5715    5730    5739       2    5709    5697    5712       1
    5706    5697    5709       2    5706    5697    5712       2    5706    5715
    5724       2    5706    5715    5727       2    5700    5688    5703       1
    5697    5688    5700       2    5697    5688    5703       2    5697    5706
    5718       2    5697    5706    5721       2    5691    5676    5694       1
    5688    5676    5691       2    5688    5676    5694       2    5688    5697
    5709       2    5688    5697    5712       2    5679    5658    5682       1
    5676    5658    5679       2    5676    5658    5682       2    5676    5688
    5700       2    5676    5688    5703       2    5667    5646    5670       4
    5667    5652    5673       4    5661    5643    5664       1    5658    5643
    5661       2    5658    5643    5664       2    5658    5676    5691       2
    5658    5676    5694       2    5652    5640    5655       4    5652    5667
    5685       4    5646    5637    5649       4    5646    5667    5685       4
    5643    5658    5679       2    5643    5658    5682       2    5640    5652
    5673       4    5637    5646    5670       4    5625    5607    5628       4
    5625    5613    5631       4    5625    5643    5661       8    5625    5643
    5664       8    5619    5637    5649      10    5619    5640    5655      10
    5616    5604    5622       4    5607    5589    5610       4    5604    5616
    5634       4    5598    5583    5601      10    5598    5616    5634      10
    5592    5613    5631       4    5589    5607    5628       4    5586    5604
    5622       4    5577    5589    5610       4    5574    5583    5601       4
    5946    5937    5949       1    5943    5937    5946       1    5943    5937
    5949       1    5937    5925    5940       2    5934    5925    5937       2
    5934    5925    5940       1    5928    5922    5931       1    5925    5922
    5928       2    5925    5922    5931       2    5925    5937    5943       2
    5925    5937    5946       2    5925    5937    5949       2    5922    5925
    5934       2    5922    5925    5940       2    5919    5907    5922       2
    5916    5907    5919       1    5916    5907    5922       2    5910    5898
    5913       1    5907    5898    5910       2    5907    5898    5913       2
    5907    5922    5928       2    5907    5922    5931       2    5901    5889
    5904       1    5898    5889    5901       2    5898    5889    5904       2
    5898    5907    5916       2    5898    5907    5919       2    5892    5880
    5895       1    5889    5880    5892       2    5889    5880    5895       2
    5889    5898    5910       2    5889    5898    5913       2    5883    5868
    5886       1    5880    5868    5883       2    5880    5868    5886       2
    5880    5889    5901       2    5880    5889    5904       2    5871    5850
    5874       1    5868    5850    5871       2    5868    5850    5874       2
    5868    5880    5892       2    5868    5880    5895       2    5859    5838
    5862       4    5859    5844    5865       4    5853    5835    5856       1
    5850    5835    5853       2    5850    5835    5856       2    5850    5868
    5883       2    5850    5868    5886       2    5844    5832    5847       4
    5844    5859    5877       4    5838    5829    5841       4    5838    5859
    5877       4    5835    5850    5871       2    5835    5850    5874       2
    5832    5844    5865       4    5829    5838    5862       4    5817    5799
    5820       4    5817    5805    5823       4    5817    5835    5853       8
    5817    5835    5856       8    5811    5829    5841      10    5811    5832
    5847      10    5808    5796    5814       4    5799    5781    5802       4
    5796    5808    5826       4    5790    5775    5793      10    5790    5808
    5826      10    5784    5805    5823       4    5781    5799    5820       4
    5778    5796    5814       4    5769    5781    5802       4    5766    5775
    5793       4    6138    6129    6141       1    6135    6129    6138       1
    6135    6129    6141       1    6129    6117    6132       2    6126    6117
    6129       2    6126    6117    6132       1    6120    6114    6123       1
    6117    6114    6120       2    6117    6114    6123       2    6117    6129
    6135       2    6117    6129    6138       2    6117    6129    6141       2
    6114    6117    6126       2    6114    6117    6132       2    6111    6099
    6114       2    6108    6099    6111       1    6108    6099    6114       2
    6102    6090    6105       1    6099    6090    6102       2    6099    6090
    6105       2    6099    6114    6120       2    6099    6114    6123       2
    6093    6081    6096       1    6090    6081    6093       2    6090    6081
    6096       2    6090    6099    6108       2    6090    6099    6111       2
    6084    6072    6087       1    6081    6072    6084       2    6081    6072
    6087       2    6081    6090    6102       2    6081    6090    6105       2
    6075    6060    6078       1    6072    6060    6075       2    6072    6060
    6078       2    6072    6081    6093       2    6072    6081    6096       2
    6063    6042    6066       1    6060    6042    6063       2    6060    6042
    6066       2    6060    6072    6084       2    6060    6072    6087       2
    6051    6030    6054       4    6051    6036    6057       4    6045    6027
    6048       1    6042    6027    6045       2    6042    6027    6048       2
    6042    6060    6075       2    6042    6060    6078       2    6036    6024
    6039       4    6036    6051    6069       4    6030    6021    6033       4
    6030    6051    6069       4    6027    6042    6063       2    6027    6042
    6066       2    6024    6036    6057       4    6021    6030    6054       4
    6009    5991    6012       4    6009    5997    6015       4    6009    6027
    6045       8    6009    6027    6048       8    6003    6021    6033      10
    6003    6024    6039      10    6000    5988    6006       4    5991    5973
    5994       4    5988    6000    6018       4    5982    5967    5985      10
    5982    6000    6018      10    5976    5997    6015       4    5973    5991
    6012       4    5970    5988    6006       4    5961    5973    5994       4
    5958    5967    5985       4    6330    6321    6333       1    6327    6321
    6330       1    6327    6321    6333       1    6321    6309    6324       2
    6318    6309    6321       2    6318    6309    6324       1    6312    6306
    6315       1    6309    6306    6312       2    6309    6306    6315       2
    6309    6321    6327       2    6309    6321    6330       2    6309    6321
    6333       2    6306    6309    6318       2    6306    6309    6324       2
    6303    6291    6306       2    6300    6291    6303       1    6300    6291
    6306       2    6294    6282    6297       1    6291    6282    6294       2
    6291    6282    6297       2    6291    6306    6312       2    6291    6306
    6315       2    6285    6273    6288       1    6282    6273    6285       2
    6282    6273    6288       2    6282    6291    6300       2    6282    6291
    6303       2    6276    6264    6279       1    6273    6264    6276       2
    6273    6264    6279       2    6273    6282    6294       2    6273    6282
    6297       2    6267    6252    6270       1    6264    6252    6267       2
    6264    6252    6270       2    6264    6273    6285       2    6264    6273
    6288       2    6255    6234    6258       1    6252    6234    6255       2
    6252    6234    6258       2    6252    6264    6276       2    6252    6264
    6279       2    6243    6222    6246       4    6243    6228    6249       4
    6237    6219    6240       1    6234    6219    6237       2    6234    6219
    6240       2    6234    6252    6267       2    6234    6252    6270       2
    6228    6216    6231       4    6228    6243    6261       4    6222    6213
    6225       4    6222    6243    6261       4    6219    6234    6255       2
    6219    6234    6258       2    6216    6228    6249       4    6213    6222
    6246       4    6201    6183    6204       4    6201    6189    6207       4
    6201    6219    6237       8    6201    6219    6240       8    6195    6213
    6225      10    6195    6216    6231      10    6192    6180    6198       4
    6183    6165    6186       4    6180    6192    6210       4    6174    6159
    6177      10    6174    6192    6210      10    6168    6189    6207       4
    6165    6183    6204       4    6162    6180    6198       4    6153    6165
    6186       4    6150    6159    6177       4    6522    6513    6525       1
    6519    6513    6522       1    6519    6513    6525       1    6513    6501
    6516       2    6510    6501    6513       2    6510    6501    6516       1
    6504    6498    6507       1    6501    6498    6504       2    6501    6498
    6507       2    6501    6513    6519       2    6501    6513    6522       2
    6501    6513    6525       2    6498    6501    6510       2    6498    6501
    6516       2    6495    6483    6498       2    6492    6483    6495       1
    6492    6483    6498       2    6486    6474    6489       1    6483    6474
    6486       2    6483    6474    6489       2    6483    6498    6504       2
    6483    6498    6507       2    6477    6465    6480       1    6474    6465
    6477       2    6474    6465    6480       2    6474    6483    6492       2
    6474    6483    6495       2    6468    6456    6471       1    6465    6456
    6468       2    6465    6456    6471       2    6465    6474    6486       2
    6465    6474    6489       2    6459    6444    6462       1    6456    6444
    6459       2    6456    6444    6462       2    6456    6465    6477       2
    6456    6465    6480       2    6447    6426    6450       1    6444    6426
    6447       2    6444    6426    6450       2    6444    6456    6468       2
    6444    6456    6471       2    6435    6414    6438       4    6435    6420
    6441       4    6429    6411    6432       1    6426    6411    6429       2
    6426    6411    6432       2    6426    6444    6459       2    6426    6444
    6462       2    6420    6408    6423       4    6420    6435    6453       4
    6414    6405    6417       4    6414    6435    6453       4    6411    6426
    6447       2    6411    6426    6450       2    6408    6420    6441       4
    6405    6414    6438       4    6393    6375    6396       4    6393    6381
    6399       4    6393    6411    6429       8    6393    6411    6432       8
    6387    6405    6417      10    6387    6408    6423      10    6384    6372
    6390       4    6375    6357    6378       4    6372    6384    6402       4
    6366    6351    6369      10    6366    6384    6402      10    6360    6381
    6399       4    6357    6375    6396       4    6354    6372    6390       4
    6345    6357    6378       4    6342    6351    6369       4    6714    6705
    6717       1    6711    6705    6714       1    6711    6705    6717       1
    6705    6693    6708       2    6702    6693    6705       2    6702    6693
    6708       1    6696    6690    6699       1    6693    6690    6696       2
    6693    6690    6699       2    6693    6705    6711       2    6693    6705
    6714       2    6693    6705    6717       2    6690    6693    6702       2
    6690    6693    6708       2    6687    6675    6690       2    6684    6675
    6687       1    6684    6675    6690       2    6678    6666    6681       1
    6675    6666    6678       2    6675    6666    6681       2    6675    6690
    6696       2    6675    6690    6699       2    6669    6657    6672       1
    6666    6657    6669       2    6666    6657    6672       2    6666    6675
    6684       2    6666    6675    6687       2    6660    6648    6663       1
    6657    6648    6660       2    6657    6648    6663       2    6657    6666
    6678       2    6657    6666    6681       2    6651    6636    6654       1
    6648    6636    6651       2    6648    6636    6654       2    6648    6657
    6669       2    6648    6657    6672       2    6639    6618    6642       1
    6636    6618    6639       2    6636    6618    6642       2    6636    6648
    6660       2    6636    6648    6663       2    6627    6606    6630       4
    6627    6612    6633       4    6621    6603    6624       1    6618    6603
    6621       2    6618    6603    6624       2    6618    6636    6651       2
    6618    6636    6654       2    6612    6600    6615       4    6612    6627
    6645       4    6606    6597    6609       4    6606    6627    6645       4
    6603    6618    6639       2    6603    6618    6642       2    6600    6612
    6633       4    6597    6606    6630       4    6585    6567    6588       4
    6585    6573    6591       4    6585    6603    6621       8    6585    6603
    6624       8    6579    6597    6609      10    6579    6600    6615      10
    6576    6564    6582       4    6567    6549    6570       4    6564    6576
    6594       4    6558    6543    6561      10    6558    6576    6594      10
    6552    6573    6591       4    6549    6567    6588       4    6546    6564
    6582       4    6537    6549    6570       4    6534    6543    6561       4
    6906    6897    6909       1    6903    6897    6906       1    6903    6897
    6909       1    6897    6885    6900       2    6894    6885    6897       2
    6894    6885    6900       1    6888    6882    6891       1    6885    6882
    6888       2    6885    6882    6891       2    6885    6897    6903       2
    6885    6897    6906       2    6885    6897    6909       2    6882    6885
    6894       2    6882    6885    6900       2    6879    6867    6882       2
    6876    6867    6879       1    6876    6867    6882       2    6870    6858
    6873       1    6867    6858    6870       2    6867    6858    6873       2
    6867    6882    6888       2    6867    6882    6891       2    6861    6849
    6864       1    6858    6849    6861       2    6858    6849    6864       2
    6858    6867    6876       2    6858    6867    6879       2    6852    6840
    6855       1    6849    6840    6852       2    6849    6840    6855       2
    6849    6858    6870       2    6849    6858    6873       2    6843    6828
    6846       1    6840    6828    6843       2    6840    6828    6846       2
    6840    6849    6861       2    6840    6849    6864       2    6831    6810
    6834       1    6828    6810    6831       2    6828    6810    6834       2
    6828    6840    6852       2    6828    6840    6855       2    6819    6798
    6822       4    6819    6804    6825       4    6813    6795    6816       1
    6810    6795    6813       2    6810    6795    6816       2    6810    6828
    6843       2    6810    6828    6846       2    6804    6792    6807       4
    6804    6819    6837       4    6798    6789    6801       4    6798    6819
    6837       4    6795    6810    6831       2    6795    6810    6834       2
    6792    6804    6825       4    6789    6798    6822       4    6777    6759
    6780       4    6777    6765    6783       4    6777    6795    6813       8
    6777    6795    6816       8    6771    6789    6801      10    6771    6792
    6807      10    6768    6756    6774       4    6759    6741    6762       4
    6756    6768    6786       4    6750    6735    6753      10    6750    6768
    6786      10    6744    6765    6783       4    6741    6759    6780       4
    6738    6756    6774       4    6729    6741    6762       4    6726    6735
    6753       4    7098    7089    7101       1    7095    7089    7098       1
    7095    7089    7101       1    7089    7077    7092       2    7086    7077
    7089       2    7086    7077    7092       1    7080    7074    7083       1
    7077    7074    7080       2    7077    7074    7083       2    7077    7089
    7095       2    7077    7089    7098       2    7077    7089    7101       2
    7074    7077    7086       2    7074    7077    7092       2    7071    7059
    7074       2    7068    7059    7071       1    7068    7059    7074       2
    7062    7050    7065       1    7059    7050    7062       2    7059    7050
    7065       2    7059    7074    7080       2    7059    7074    7083       2
    7053    7041    7056       1    7050    7041    7053       2    7050    7041
    7056       2    7050    7059    7068       2    7050    7059    7071       2
    7044    7032    7047       1    7041    7032    7044       2    7041    7032
    7047       2    7041    7050    7062       2    7041    7050    7065       2
    7035    7020    7038       1    7032    7020    7035       2    7032    7020
    7038       2    7032    7041    7053       2    7032    7041    7056       2
    7023    7002    7026       1    7020    7002    7023       2    7020    7002
    7026       2    7020    7032    7044       2    7020    7032    7047       2
    7011    6990    7014       4    7011    6996    7017       4    7005    6987
    7008       1    7002    6987    7005       2    7002    6987    7008       2
    7002    7020    7035       2    7002    7020    7038       2    6996    6984
    6999       4    6996    7011    7029       4    6990    6981    6993       4
    6990    7011    7029       4    6987    7002    7023       2    6987    7002
    7026       2    6984    6996    7017       4    6981    6990    7014       4
    6969    6951    6972       4    6969    6957    6975       4    6969    6987
    7005       8    6969    6987    7008       8    6963    6981    6993      10
    6963    6984    6999      10    6960    6948    6966       4    6951    6933
    6954       4    6948    6960    6978       4    6942    6927    6945      10
    6942    6960    6978      10    6936    6957    6975       4    6933    6951
    6972       4    6930    6948    6966       4    6921    6933    6954       4
    6918    6927    6945       4    7290    7281    7293       1    7287    7281
    7290       1    7287    7281    7293       1    7281    7269    7284       2
    7278    7269    7281       2    7278    7269    7284       1    7272    7266
    7275       1    7269    7266    7272       2    7269    7266    7275       2
    7269    7281    7287       2    7269    7281    7290       2    7269    7281
    7293       2    7266    7269    7278       2    7266    7269    7284       2
    7263    7251    7266       2    7260    7251    7263       1    7260    7251
    7266       2    7254    7242    7257       1    7251    7242    7254       2
    7251    7242    7257       2    7251    7266    7272       2    7251    7266
    7275       2    7245    7233    7248       1    7242    7233    7245       2
    7242    7233    7248       2    7242    7251    7260       2    7242    7251
    7263       2    7236    7224    7239       1    7233    7224    7236       2
    7233    7224    7239       2    7233    7242    7254       2    7233    7242
    7257       2    7227    7212    7230       1    7224    7212    7227       2
    7224    7212    7230       2    7224    7233    7245       2    7224    7233
    7248       2    7215    7194    7218       1    7212    7194    7215       2
    7212    7194    7218       2    7212    7224    7236       2    7212    7224
    7239       2    7203    7182    7206       4    7203    7188    7209       4
    7197    7179    7200       1    7194    7179    7197       2    7194    7179
    7200       2    7194    7212    7227       2    7194    7212    7230       2
    7188    7176    7191       4    7188    7203    7221       4    7182    7173
    7185       4    7182    7203    7221       4    7179    7194    7215       2
    7179    7194    7218       2    7176    7188    7209       4    7173    7182
    7206       4    7161    7143    7164       4    7161    7149    7167       4
    7161    7179    7197       8    7161    7179    7200       8    7155    7173
    7185      10    7155    7176    7191      10    7152    7140    7158       4
    7143    7125    7146       4    7140    7152    7170       4    7134    7119
    7137      10    7134    7152    7170      10    7128    7149    7167       4
    7125    7143    7164       4    7122    7140    7158       4    7113    7125
    7146       4    7110    7119    7137       4    7482    7473    7485       1
    7479    7473    7482       1    7479    7473    7485       1    7473    7461
    7476       2    7470    7461    7473       2    7470    7461    7476       1
    7464    7458    7467       1    7461    7458    7464       2    7461    7458
    7467       2    7461    7473    7479       2    7461    7473    7482       2
    7461    7473    7485       2    7458    7461    7470       2    7458    7461
    7476       2    7455    7443    7458       2    7452    7443    7455       1
    7452    7443    7458       2    7446    7434    7449       1    7443    7434
    7446       2    7443    7434    7449       2    7443    7458    7464       2
    7443    7458    7467       2    7437    7425    7440       1    7434    7425
    7437       2    7434    7425    7440       2    7434    7443    7452       2
    7434    7443    7455       2    7428    7416    7431       1    7425    7416
    7428       2    7425    7416    7431       2    7425    7434    7446       2
    7425    7434    7449       2    7419    7404    7422       1    7416    7404
    7419       2    7416    7404    7422       2    7416    7425    7437       2
    7416    7425    7440       2    7407    7386    7410       1    7404    7386
    7407       2    7404    7386    7410       2    7404    7416    7428       2
    7404    7416    7431       2    7395    7374    7398       4    7395    7380
    7401       4    7389    7371    7392       1    7386    7371    7389       2
    7386    7371    7392       2    7386    7404    7419       2    7386    7404
    7422       2    7380    7368    7383       4    7380    7395    7413       4
    7374    7365    7377       4    7374    7395    7413       4    7371    7386
    7407       2    7371    7386    7410       2    7368    7380    7401       4
    7365    7374    7398       4    7353    7335    7356       4    7353    7341
    7359       4    7353    7371    7389       8    7353    7371    7392       8
    7347    7365    7377      10    7347    7368    7383      10    7344    7332
    7350       4    7335    7317    7338       4    7332    7344    7362       4
    7326    7311    7329      10    7326    7344    7362      10    7320    7341
    7359       4    7317    7335    7356       4    7314    7332    7350       4
    7305    7317    7338       4    7302    7311    7329       4    7674    7665
    7677       1    7671    7665    7674       1    7671    7665    7677       1
    7665    7653    7668       2    7662    7653    7665       2    7662    7653
    7668       1    7656    7650    7659       1    7653    7650    7656       2
    7653    7650    7659       2    7653    7665    7671       2    7653    7665
    7674       2    7653    7665    7677       2    7650    7653    7662       2
    7650    7653    7668       2    7647    7635    7650       2    7644    7635
    7647       1    7644    7635    7650       2    7638    7626    7641       1
    7635    7626    7638       2    7635    7626    7641       2    7635    7650
    7656       2    7635    7650    7659       2    7629    7617    7632       1
    7626    7617    7629       2    7626    7617    7632       2    7626    7635
    7644       2    7626    7635    7647       2    7620    7608    7623       1
    7617    7608    7620       2    7617    7608    7623       2    7617    7626
    7638       2    7617    7626    7641       2    7611    7596    7614       1
    7608    7596    7611       2    7608    7596    7614       2    7608    7617
    7629       2    7608    7617    7632       2    7599    7578    7602       1
    7596    7578    7599       2    7596    7578    7602       2    7596    7608
    7620       2    7596    7608    7623       2    7587    7566    7590       4
    7587    7572    7593       4    7581    7563    7584       1    7578    7563
    7581       2    7578    7563    7584       2    7578    7596    7611       2
    7578    7596    7614       2    7572    7560    7575       4    7572    7587
    7605       4    7566    7557    7569       4    7566    7587    7605       4
    7563    7578    7599       2    7563    7578    7602       2    7560    7572
    7593       4    7557    7566    7590       4    7545    7527    7548       4
    7545    7533    7551       4    7545    7563    7581       8    7545    7563
    7584       8    7539    7557    7569      10    7539    7560    7575      10
    7536    7524    7542       4    7527    7509    7530       4    7524    7536
    7554       4    7518    7503    7521      10    7518    7536    7554      10
    7512    7533    7551       4    7509    7527    7548       4    7506    7524
    7542       4    7497    7509    7530       4    7494    7503    7521       4
    7866    7857    7869       1    7863    7857    7866       1    7863    7857
    7869       1    7857    7845    7860       2    7854    7845    7857       2
    7854    7845    7860       1    7848    7842    7851       1    7845    7842
    7848       2    7845    7842    7851       2    7845    7857    7863       2
    7845    7857    7866       2    7845    7857    7869       2    7842    7845
    7854       2    7842    7845    7860       2    7839    7827    7842       2
    7836    7827    7839       1    7836    7827    7842       2    7830    7818
    7833       1    7827    7818    7830       2    7827    7818    7833       2
    7827    7842    7848       2    7827    7842    7851       2    7821    7809
    7824       1    7818    7809    7821       2    7818    7809    7824       2
    7818    7827    7836       2    7818    7827    7839       2    7812    7800
    7815       1    7809    7800    7812       2    7809    7800    7815       2
    7809    7818    7830       2    7809    7818    7833       2    7803    7788
    7806       1    7800    7788    7803       2    7800    7788    7806       2
    7800    7809    7821       2    7800    7809    7824       2    7791    7770
    7794       1    7788    7770    7791       2    7788    7770    7794       2
    7788    7800    7812       2    7788    7800    7815       2    7779    7758
    7782       4    7779    7764    7785       4    7773    7755    7776       1
    7770    7755    7773       2    7770    7755    7776       2    7770    7788
    7803       2    7770    7788    7806       2    7764    7752    7767       4
    7764    7779    7797       4    7758    7749    7761       4    7758    7779
    7797       4    7755    7770    7791       2    7755    7770    7794       2
    7752    7764    7785       4    7749    7758    7782       4    7737    7719
    7740       4    7737    7725    7743       4    7737    7755    7773       8
    7737    7755    7776       8    7731    7749    7761      10    7731    7752
    7767      10    7728    7716    7734       4    7719    7701    7722       4
    7716    7728    7746       4    7710    7695    7713      10    7710    7728
    7746      10    7704    7725    7743       4    7701    7719    7740       4
    7698    7716    7734       4    7689    7701    7722       4    7686    7695
    7713       4    8058    8049    8061       1    8055    8049    8058       1
    8055    8049    8061       1    8049    8037    8052       2    8046    8037
    8049       2    8046    8037    8052       1    8040    8034    8043       1
    8037    8034    8040       2    8037    8034    8043       2    8037    8049
    8055       2    8037    8049    8058       2    8037    8049    8061       2
    8034    8037    8046       2    8034    8037    8052       2    8031    8019
    8034       2    8028    8019    8031       1    8028    8019    8034       2
    8022    8010    8025       1    8019    8010    8022       2    8019    8010
    8025       2    8019    8034    8040       2    8019    8034    8043       2
    8013    8001    8016       1    8010    8001    8013       2    8010    8001
    8016       2    8010    8019    8028       2    8010    8019    8031       2
    8004    7992    8007       1    8001    7992    8004       2    8001    7992
    8007       2    8001    8010    8022       2    8001    8010    8025       2
    7995    7980    7998       1    7992    7980    7995       2    7992    7980
    7998       2    7992    8001    8013       2    7992    8001    8016       2
    7983    7962    7986       1    7980    7962    7983       2    7980    7962
    7986       2    7980    7992    8004       2    7980    7992    8007       2
    7971    7950    7974       4    7971    7956    7977       4    7965    7947
    7968       1    7962    7947    7965       2    7962    7947    7968       2
    7962    7980    7995       2    7962    7980    7998       2    7956    7944
    7959       4    7956    7971    7989       4    7950    7941    7953       4
    7950    7971    7989       4    7947    7962    7983       2    7947    7962
    7986       2    7944    7956    7977       4    7941    7950    7974       4
    7929    7911    7932       4    7929    7917    7935       4    7929    7947
    7965       8    7929    7947    7968       8    7923    7941    7953      10
    7923    7944    7959      10    7920    7908    7926       4    7911    7893
    7914       4    7908    7920    7938       4    7902    7887    7905      10
    7902    7920    7938      10    7896    7917    7935       4    7893    7911
    7932       4    7890    7908    7926       4    7881    7893    7914       4
    7878    7887    7905       4    8250    8241    8253       1    8247    8241
    8250       1    8247    8241    8253       1    8241    8229    8244       2
    8238    8229    8241       2    8238    8229    8244       1    8232    8226
    8235       1    8229    8226    8232       2    8229    8226    8235       2
    8229    8241    8247       2    8229    8241    8250       2    8229    8241
    8253       2    8226    8229    8238       2    8226    8229    8244       2
    8223    8211    8226       2    8220    8211    8223       1    8220    8211
    8226       2    8214    8202    8217       1    8211    8202    8214       2
    8211    8202    8217       2    8211    8226    8232       2    8211    8226
    8235       2    8205    8193    8208       1    8202    8193    8205       2
    8202    8193    8208       2    8202    8211    8220       2    8202    8211
    8223       2    8196    8184    8199       1    8193    8184    8196       2
    8193    8184    8199       2    8193    8202    8214       2    8193    8202
    8217       2    8187    8172    8190       1    8184    8172    8187       2
    8184    8172    8190       2    8184    8193    8205       2    8184    8193
    8208       2    8175    8154    8178       1    8172    8154    8175       2
    8172    8154    8178       2    8172    8184    8196       2    8172    8184
    8199       2    8163    8142    8166       4    8163    8148    8169       4
    8157    8139    8160       1    8154    8139    8157       2    8154    8139
    8160       2    8154    8172    8187       2    8154    8172    8190       2
    8148    8136    8151       4    8148    8163    8181       4    8142    8133
    8145       4    8142    8163    8181       4    8139    8154    8175       2
    8139    8154    8178       2    8136    8148    8169       4    8133    8142
    8166       4    8121    8103    8124       4    8121    8109    8127       4
    8121    8139    8157       8    8121    8139    8160       8    8115    8133
    8145      10    8115    8136    8151      10    8112    8100    8118       4
    8103    8085    8106       4    8100    8112    8130       4    8094    8079
    8097      10    8094    8112    8130      10    8088    8109    8127       4
    8085    8103    8124       4    8082    8100    8118       4    8073    8085
    8106       4    8070    8079    8097       4    8442    8433    8445       1
    8439    8433    8442       1    8439    8433    8445       1    8433    8421
    8436       2    8430    8421    8433       2    8430    8421    8436       1
    8424    8418    8427       1    8421    8418    8424       2    8421    8418
    8427       2    8421    8433    8439       2    8421    8433    8442       2
    8421    8433    8445       2    8418    8421    8430       2    8418    8421
    8436       2    8415    8403    8418       2    8412    8403    8415       1
    8412    8403    8418       2    8406    8394    8409       1    8403    8394
    8406       2    8403    8394    8409       2    8403    8418    8424       2
    8403    8418    8427       2    8397    8385    8400       1    8394    8385
    8397       2    8394    8385    8400       2    8394    8403    8412       2
    8394    8403    8415       2    8388    8376    8391       1    8385    8376
    8388       2    8385    8376    8391       2    8385    8394    8406       2
    8385    8394    8409       2    8379    8364    8382       1    8376    8364
    8379       2    8376    8364    8382       2    8376    8385    8397       2
    8376    8385    8400       2    8367    8346    8370       1    8364    8346
    8367       2    8364    8346    8370       2    8364    8376    8388       2
    8364    8376    8391       2    8355    8334    8358       4    8355    8340
    8361       4    8349    8331    8352       1    8346    8331    8349       2
    8346    8331    8352       2    8346    8364    8379       2    8346    8364
    8382       2    8340    8328    8343       4    8340    8355    8373       4
    8334    8325    8337       4    8334    8355    8373       4    8331    8346
    8367       2    8331    8346    8370       2    8328    8340    8361       4
    8325    8334    8358       4    8313    8295    8316       4    8313    8301
    8319       4    8313    8331    8349       8    8313    8331    8352       8
    8307    8325    8337      10    8307    8328    8343      10    8304    8292
    8310       4    8295    8277    8298       4    8292    8304    8322       4
    8286    8271    8289      10    8286    8304    8322      10    8280    8301
    8319       4    8277    8295    8316       4    8274    8292    8310       4
    8265    8277    8298       4    8262    8271    8289       4    8634    8625
    8637       1    8631    8625    8634       1    8631    8625    8637       1
    8625    8613    8628       2    8622    8613    8625       2    8622    8613
    8628       1    8616    8610    8619       1    8613    8610    8616       2
    8613    8610    8619       2    8613    8625    8631       2    8613    8625
    8634       2    8613    8625    8637       2    8610    8613    8622       2
    8610    8613    8628       2    8607    8595    8610       2    8604    8595
    8607       1    8604    8595    8610       2    8598    8586    8601       1
    8595    8586    8598       2    8595    8586    8601       2    8595    8610
    8616       2    8595    8610    8619       2    8589    8577    8592       1
    8586    8577    8589       2    8586    8577    8592       2    8586    8595
    8604       2    8586    8595    8607       2    8580    8568    8583       1
    8577    8568    8580       2    8577    8568    8583       2    8577    8586
    8598       2    8577    8586    8601       2    8571    8556    8574       1
    8568    8556    8571       2    8568    8556    8574       2    8568    8577
    8589       2    8568    8577    8592       2    8559    8538    8562       1
    8556    8538    8559       2    8556    8538    8562       2    8556    8568
    8580       2    8556    8568    8583       2    8547    8526    8550       4
    8547    8532    8553       4    8541    8523    8544       1    8538    8523
    8541       2    8538    8523    8544       2    8538    8556    8571       2
    8538    8556    8574       2    8532    8520    8535       4    8532    8547
    8565       4    8526    8517    8529       4    8526    8547    8565       4
    8523    8538    8559       2    8523    8538    8562       2    8520    8532
    8553       4    8517    8526    8550       4    8505    8487    8508       4
    8505    8493    8511       4    8505    8523    8541       8    8505    8523
    8544       8    8499    8517    8529      10    8499    8520    8535      10
    8496    8484    8502       4    8487    8469    8490       4    8484    8496
    8514       4    8478    8463    8481      10    8478    8496    8514      10
    8472    8493    8511       4    8469    8487    8508       4    8466    8484
    8502       4    8457    8469    8490       4    8454    8463    8481       4
    8826    8817    8829       1    8823    8817    8826       1    8823    8817
    8829       1    8817    8805    8820       2    8814    8805    8817       2
    8814    8805    8820       1    8808    8802    8811       1    8805    8802
    8808       2    8805    8802    8811       2    8805    8817    8823       2
    8805    8817    8826       2    8805    8817    8829       2    8802    8805
    8814       2    8802    8805    8820       2    8799    8787    8802       2
    8796    8787    8799       1    8796    8787    8802       2    8790    8778
    8793       1    8787    8778    8790       2    8787    8778    8793       2
    8787    8802    8808       2    8787    8802    8811       2    8781    8769
    8784       1    8778    8769    8781       2    8778    8769    8784       2
    8778    8787    8796       2    8778    8787    8799       2    8772    8760
    8775       1    8769    8760    8772       2    8769    8760    8775       2
    8769    8778    8790       2    8769    8778    8793       2    8763    8748
    8766       1    8760    8748    8763       2    8760    8748    8766       2
    8760    8769    8781       2    8760    8769    8784       2    8751    8730
    8754       1    8748    8730    8751       2    8748    8730    8754       2
    8748    8760    8772       2    8748    8760    8775       2    8739    8718
    8742       4    8739    8724    8745       4    8733    8715    8736       1
    8730    8715    8733       2    8730    8715    8736       2    8730    8748
    8763       2    8730    8748    8766       2    8724    8712    8727       4
    8724    8739    8757       4    8718    8709    8721       4    8718    8739
    8757       4    8715    8730    8751       2    8715    8730    8754       2
    8712    8724    8745       4    8709    8718    8742       4    8697    8679
    8700       4    8697    8685    8703       4    8697    8715    8733       8
    8697    8715    8736       8    8691    8709    8721      10    8691    8712
    8727      10    8688    8676    8694       4    8679    8661    8682       4
    8676    8688    8706       4    8670    8655    8673      10    8670    8688
    8706      10    8664    8685    8703       4    8661    8679    8700       4
    8658    8676    8694       4    8649    8661    8682       4    8646    8655
    8673       4    9018    9009    9021       1    9015    9009    9018       1
    9015    9009    9021       1    9009    8997    9012       2    9006    8997
    9009       2    9006    8997    9012       1    9000    8994    9003       1
    8997    8994    9000       2    8997    8994    9003       2    8997    9009
    9015       2    8997    9009    9018       2    8997    9009    9021       2
    8994    8997    9006       2    8994    8997    9012       2    8991    8979
    8994       2    8988    8979    8991       1    8988    8979    8994       2
    8982    8970    8985       1    8979    8970    8982       2    8979    8970
    8985       2    8979    8994    9000       2    8979    8994    9003       2
    8973    8961    8976       1    8970    8961    8973       2    8970    8961
    8976       2    8970    8979    8988       2    8970    8979    8991       2
    8964    8952    8967       1    8961    8952    8964       2    8961    8952
    8967       2    8961    8970    8982       2    8961    8970    8985       2
    8955    8940    8958       1    8952    8940    8955       2    8952    8940
    8958       2    8952    8961    8973       2    8952    8961    8976       2
    8943    8922    8946       1    8940    8922    8943       2    8940    8922
    8946       2    8940    8952    8964       2    8940    8952    8967       2
    8931    8910    8934       4    8931    8916    8937       4    8925    8907
    8928       1    8922    8907    8925       2    8922    8907    8928       2
    8922    8940    8955       2    8922    8940    8958       2    8916    8904
    8919       4    8916    8931    8949       4    8910    8901    8913       4
    8910    8931    8949       4    8907    8922    8943       2    8907    8922
    8946       2    8904    8916    8937       4    8901    8910    8934       4
    8889    8871    8892       4    8889    8877    8895       4    8889    8907
    8925       8    8889    8907    8928       8    8883    8901    8913      10
    8883    8904    8919      10    8880    8868    8886       4    8871    8853
    8874       4    8868    8880    8898       4    8862    8847    8865      10
    8862    8880    8898      10    8856    8877    8895       4    8853    8871
    8892       4    8850    8868    8886       4    8841    8853    8874       4
    8838    8847    8865       4    9210    9201    9213       1    9207    9201
    9210       1    9207    9201    9213       1    9201    9189    9204       2
    9198    9189    9201       2    9198    9189    9204       1    9192    9186
    9195       1    9189    9186    9192       2    9189    9186    9195       2
    9189    9201    9207       2    9189    9201    9210       2    9189    9201
    9213       2    9186    9189    9198       2    9186    9189    9204       2
    9183    9171    9186       2    9180    9171    9183       1    9180    9171
    9186       2    9174    9162    9177       1    9171    9162    9174       2
    9171    9162    9177       2    9171    9186    9192       2    9171    9186
    9195       2    9165    9153    9168       1    9162    9153    9165       2
    9162    9153    9168       2    9162    9171    9180       2    9162    9171
    9183       2    9156    9144    9159       1    9153    9144    9156       2
    9153    9144    9159       2    9153    9162    9174       2    9153    9162
    9177       2    9147    9132    9150       1    9144    9132    9147       2
    9144    9132    9150       2    9144    9153    9165       2    9144    9153
    9168       2    9135    9114    9138       1    9132    9114    9135       2
    9132    9114    9138       2    9132    9144    9156       2    9132    9144
    9159       2    9123    9102    9126       4    9123    9108    9129       4
    9117    9099    9120       1    9114    9099    9117       2    9114    9099
    9120       2    9114    9132    9147       2    9114    9132    9150       2
    9108    9096    9111       4    9108    9123    9141       4    9102    9093
    9105       4    9102    9123    9141       4    9099    9114    9135       2
    9099    9114    9138       2    9096    9108    9129       4    9093    9102
    9126       4    9081    9063    9084       4    9081    9069    9087       4
    9081    9099    9117       8    9081    9099    9120       8    9075    9093
    9105      10    9075    9096    9111      10    9072    9060    9078       4
    9063    9045    9066       4    9060    9072    9090       4    9054    9039
    9057      10    9054    9072    9090      10    9048    9069    9087       4
    9045    9063    9084       4    9042    9060    9078       4    9033    9045
    9066       4    9030    9039    9057       4    9402    9393    9405       1
    9399    9393    9402       1    9399    9393    9405       1    9393    9381
    9396       2    9390    9381    9393       2    9390    9381    9396       1
    9384    9378    9387       1    9381    9378    9384       2    9381    9378
    9387       2    9381    9393    9399       2    9381    9393    9402       2
    9381    9393    9405       2    9378    9381    9390       2    9378    9381
    9396       2    9375    9363    9378       2    9372    9363    9375       1
    9372    9363    9378       2    9366    9354    9369       1    9363    9354
    9366       2    9363    9354    9369       2    9363    9378    9384       2
    9363    9378    9387       2    9357    9345    9360       1    9354    9345
    9357       2    9354    9345    9360       2    9354    9363    9372       2
    9354    9363    9375       2    9348    9336    9351       1    9345    9336
    9348       2    9345    9336    9351       2    9345    9354    9366       2
    9345    9354    9369       2    9339    9324    9342       1    9336    9324
    9339       2    9336    9324    9342       2    9336    9345    9357       2
    9336    9345    9360       2    9327    9306    9330       1    9324    9306
    9327       2    9324    9306    9330       2    9324    9336    9348       2
    9324    9336    9351       2    9315    9294    9318       4    9315    9300
    9321       4    9309    9291    9312       1    9306    9291    9309       2
    9306    9291    9312       2    9306    9324    9339       2    9306    9324
    9342       2    9300    9288    9303       4    9300    9315    9333       4
    9294    9285    9297       4    9294    9315    9333       4    9291    9306
    9327       2    9291    9306    9330       2    9288    9300    9321       4
    9285    9294    9318       4    9273    9255    9276       4    9273    9261
    9279       4    9273    9291    9309       8    9273    9291    9312       8
    9267    9285    9297      10    9267    9288    9303      10    9264    9252
    9270       4    9255    9237    9258       4    9252    9264    9282       4
    9246    9231    9249      10    9246    9264    9282      10    9240    9261
    9279       4    9237    9255    9276       4    9234    9252    9270       4
    9225    9237    9258       4    9222    9231    9249       4    9594    9585
    9597       1    9591    9585    9594       1    9591    9585    9597       1
    9585    9573    9588       2    9582    9573    9585       2    9582    9573
    9588       1    9576    9570    9579       1    9573    9570    9576       2
    9573    9570    9579       2    9573    9585    9591       2    9573    9585
    9594       2    9573    9585    9597       2    9570    9573    9582       2
    9570    9573    9588       2    9567    9555    9570       2    9564    9555
    9567       1    9564    9555    9570       2    9558    9546    9561       1
    9555    9546    9558       2    9555    9546    9561       2    9555    9570
    9576       2    9555    9570    9579       2    9549    9537    9552       1
    9546    9537    9549       2    9546    9537    9552       2    9546    9555
    9564       2    9546    9555    9567       2    9540    9528    9543       1
    9537    9528    9540       2    9537    9528    9543       2    9537    9546
    9558       2    9537    9546    9561       2    9531    9516    9534       1
    9528    9516    9531       2    9528    9516    9534       2    9528    9537
    9549       2    9528    9537    9552       2    9519    9498    9522       1
    9516    9498    9519       2    9516    9498    9522       2    9516    9528
    9540       2    9516    9528    9543       2    9507    9486    9510       4
    9507    9492    9513       4    9501    9483    9504       1    9498    9483
    9501       2    9498    9483    9504       2    9498    9516    9531       2
    9498    9516    9534       2    9492    9480    9495       4    9492    9507
    9525       4    9486    9477    9489       4    9486    9507    9525       4
    9483    9498    9519       2    9483    9498    9522       2    9480    9492
    9513       4    9477    9486    9510       4    9465    9447    9468       4
    9465    9453    9471       4    9465    9483    9501       8    9465    9483
    9504       8    9459    9477    9489      10    9459    9480    9495      10
    9456    9444    9462       4    9447    9429    9450       4    9444    9456
    9474       4    9438    9423    9441      10    9438    9456    9474      10
    9432    9453    9471       4    9429    9447    9468       4    9426    9444
    9462       4    9417    9429    9450       4    9414    9423    9441       4
    9786    9777    9789       1    9783    9777    9786       1    9783    9777
    9789       1    9777    9765    9780       2    9774    9765    9777       2
    9774    9765    9780       1    9768    9762    9771       1    9765    9762
    9768       2    9765    9762    9771       2    9765    9777    9783       2
    9765    9777    9786       2    9765    9777    9789       2    9762    9765
    9774       2    9762    9765    9780       2    9759    9747    9762       2
    9756    9747    9759       1    9756    9747    9762       2    9750    9738
    9753       1    9747    9738    9750       2    9747    9738    9753       2
    9747    9762    9768       2    9747    9762    9771       2    9741    9729
    9744       1    9738    9729    9741       2    9738    9729    9744       2
    9738    9747    9756       2    9738    9747    9759       2    9732    9720
    9735       1    9729    9720    9732       2    9729    9720    9735       2
    9729    9738    9750       2    9729    9738    9753       2    9723    9708
    9726       1    9720    9708    9723       2    9720    9708    9726       2
    9720    9729    9741       2    9720    9729    9744       2    9711    9690
    9714       1    9708    9690    9711       2    9708    9690    9714       2
    9708    9720    9732       2    9708    9720    9735       2    9699    9678
    9702       4    9699    9684    9705       4    9693    9675    9696       1
    9690    9675    9693       2    9690    9675    9696       2    9690    9708
    9723       2    9690    9708    9726       2    9684    9672    9687       4
    9684    9699    9717       4    9678    9669    9681       4    9678    9699
    9717       4    9675    9690    9711       2    9675    9690    9714       2
    9672    9684    9705       4    9669    9678    9702       4    9657    9639
    9660       4    9657    9645    9663       4    9657    9675    9693       8
    9657    9675    9696       8    9651    9669    9681      10    9651    9672
    9687      10    9648    9636    9654       4    9639    9621    9642       4
    9636    9648    9666       4    9630    9615    9633      10    9630    9648
    9666      10    9624    9645    9663       4    9621    9639    9660       4
    9618    9636    9654       4    9609    9621    9642       4    9606    9615
    9633       4    9978    9969    9981       1    9975    9969    9978       1
    9975    9969    9981       1    9969    9957    9972       2    9966    9957
    9969       2    9966    9957    9972       1    9960    9954    9963       1
    9957    9954    9960       2    9957    9954    9963       2    9957    9969
    9975       2    9957    9969    9978       2    9957    9969    9981       2
    9954    9957    9966       2    9954    9957    9972       2    9951    9939
    9954       2    9948    9939    9951       1    9948    9939    9954       2
    9942    9930    9945       1    9939    9930    9942       2    9939    9930
    9945       2    9939    9954    9960       2    9939    9954    9963       2
    9933    9921    9936       1    9930    9921    9933       2    9930    9921
    9936       2    9930    9939    9948       2    9930    9939    9951       2
    9924    9912    9927       1    9921    9912    9924       2    9921    9912
    9927       2    9921    9930    9942       2    9921    9930    9945       2
    9915    9900    9918       1    9912    9900    9915       2    9912    9900
    9918       2    9912    9921    9933       2    9912    9921    9936       2
    9903    9882    9906       1    9900    9882    9903       2    9900    9882
    9906       2    9900    9912    9924       2    9900    9912    9927       2
    9891    9870    9894       4    9891    9876    9897       4    9885    9867
    9888       1    9882    9867    9885       2    9882    9867    9888       2
    9882    9900    9915       2    9882    9900    9918       2    9876    9864
    9879       4    9876    9891    9909       4    9870    9861    9873       4
    9870    9891    9909       4    9867    9882    9903       2    9867    9882
    9906       2    9864    9876    9897       4    9861    9870    9894       4
    9849    9831    9852       4    9849    9837    9855       4    9849    9867
    9885       8    9849    9867    9888       8    9843    9861    9873      10
    9843    9864    9879      10    9840    9828    9846       4    9831    9813
    9834       4    9828    9840    9858       4    9822    9807    9825      10
    9822    9840    9858      10    9816    9837    9855       4    9813    9831
    9852       4    9810    9828    9846       4    9801    9813    9834       4
    9798    9807    9825       4   10170   10161   10173       1   10167   10161
   10170       1   10167   10161   10173       1   10161   10149   10164       2
   10158   10149   10161       2   10158   10149   10164       1   10152   10146
   10155       1   10149   10146   10152       2   10149   10146   10155       2
   10149   10161   10167       2   10149   10161   10170       2   10149   10161
   10173       2   10146   10149   10158       2   10146   10149   10164       2
   10143   10131   10146       2   10140   10131   10143       1   10140   10131
   10146       2   10134   10122   10137       1   10131   10122   10134       2
   10131   10122   10137       2   10131   10146   10152       2   10131   10146
   10155       2   10125   10113   10128       1   10122   10113   10125       2
   10122   10113   10128       2   10122   10131   10140       2   10122   10131
   10143       2   10116   10104   10119       1   10113   10104   10116       2
   10113   10104   10119       2   10113   10122   10134       2   10113   10122
   10137       2   10107   10092   10110       1   10104   10092   10107       2
   10104   10092   10110       2   10104   10113   10125       2   10104   10113
   10128       2   10095   10074   10098       1   10092   10074   10095       2
   10092   10074   10098       2   10092   10104   10116       2   10092   10104
   10119       2   10083   10062   10086       4   10083   10068   10089       4
   10077   10059   10080       1   10074   10059   10077       2   10074   10059
   10080       2   10074   10092   10107       2   10074   10092   10110       2
   10068   10056   10071       4   10068   10083   10101       4   10062   10053
   10065       4   10062   10083   10101       4   10059   10074   10095       2
   10059   10074   10098       2   10056   10068   10089       4   10053   10062
   10086       4   10041   10023   10044       4   10041   10029   10047       4
   10041   10059   10077       8   10041   10059   10080       8   10035   10053
   10065      10   10035   10056   10071      10   10032   10020   10038       4
   10023   10005   10026       4   10020   10032   10050       4   10014    9999
   10017      10   10014   10032   10050      10   10008   10029   10047       4
   10005   10023   10044       4   10002   10020   10038       4    9993   10005
   10026       4    9990    9999   10017       4   10362   10353   10365       1
   10359   10353   10362       1   10359   10353   10365       1   10353   10341
   10356       2   10350   10341   10353       2   10350   10341   10356       1
   10344   10338   10347       1   10341   10338   10344       2   10341   10338
   10347       2   10341   10353   10359       2   10341   10353   10362       2
   10341   10353   10365       2   10338   10341   10350       2   10338   10341
   10356       2   10335   10323   10338       2   10332   10323   10335       1
   10332   10323   10338       2   10326   10314   10329       1   10323   10314
   10326       2   10323   10314   10329       2   10323   10338   10344       2
   10323   10338   10347       2   10317   10305   10320       1   10314   10305
   10317       2   10314   10305   10320       2   10314   10323   10332       2
   10314   10323   10335       2   10308   10296   10311       1   10305   10296
   10308       2   10305   10296   10311       2   10305   10314   10326       2
   10305   10314   10329       2   10299   10284   10302       1   10296   10284
   10299       2   10296   10284   10302       2   10296   10305   10317       2
   10296   10305   10320       2   10287   10266   10290       1   10284   10266
   10287       2   10284   10266   10290       2   10284   10296   10308       2
   10284   10296   10311       2   10275   10254   10278       4   10275   10260
   10281       4   10269   10251   10272       1   10266   10251   10269       2
   10266   10251   10272       2   10266   10284   10299       2   10266   10284
   10302       2   10260   10248   10263       4   10260   10275   10293       4
   10254   10245   10257       4   10254   10275   10293       4   10251   10266
   10287       2   10251   10266   10290       2   10248   10260   10281       4
   10245   10254   10278       4   10233   10215   10236       4   10233   10221
   10239       4   10233   10251   10269       8   10233   10251   10272       8
   10227   10245   10257      10   10227   10248   10263      10   10224   10212
   10230       4   10215   10197   10218       4   10212   10224   10242       4
   10206   10191   10209      10   10206   10224   10242      10   10200   10221
   10239       4   10197   10215   10236       4   10194   10212   10230       4
   10185   10197   10218       4   10182   10191   10209       4   10554   10545
   10557       1   10551   10545   10554       1   10551   10545   10557       1
   10545   10533   10548       2   10542   10533   10545       2   10542   10533
   10548       1   10536   10530   10539       1   10533   10530   10536       2
   10533   10530   10539       2   10533   10545   10551       2   10533   10545
   10554       2   10533   10545   10557       2   10530   10533   10542       2
   10530   10533   10548       2   10527   10515   10530       2   10524   10515
   10527       1   10524   10515   10530       2   10518   10506   10521       1
   10515   10506   10518       2   10515   10506   10521       2   10515   10530
   10536       2   10515   10530   10539       2   10509   10497   10512       1
   10506   10497   10509       2   10506   10497   10512       2   10506   10515
   10524       2   10506   10515   10527       2   10500   10488   10503       1
   10497   10488   10500       2   10497   10488   10503       2   10497   10506
   10518       2   10497   10506   10521       2   10491   10476   10494       1
   10488   10476   10491       2   10488   10476   10494       2   10488   10497
   10509       2   10488   10497   10512       2   10479   10458   10482       1
   10476   10458   10479       2   10476   10458   10482       2   10476   10488
   10500       2   10476   10488   10503       2   10467   10446   10470       4
   10467   10452   10473       4   10461   10443   10464       1   10458   10443
   10461       2   10458   10443   10464       2   10458   10476   10491       2
   10458   10476   10494       2   10452   10440   10455       4   10452   10467
   10485       4   10446   10437   10449       4   10446   10467   10485       4
   10443   10458   10479       2   10443   10458   10482       2   10440   10452
   10473       4   10437   10446   10470       4   10425   10407   10428       4
   10425   10413   10431       4   10425   10443   10461       8   10425   10443
   10464       8   10419   10437   10449      10   10419   10440   10455      10
   10416   10404   10422       4   10407   10389   10410       4   10404   10416
   10434       4   10398   10383   10401      10   10398   10416   10434      10
   10392   10413   10431       4   10389   10407   10428       4   10386   10404
   10422       4   10377   10389   10410       4   10374   10383   10401       4
   10746   10737   10749       1   10743   10737   10746       1   10743   10737
   10749       1   10737   10725   10740       2   10734   10725   10737       2
   10734   10725   10740       1   10728   10722   10731       1   10725   10722
   10728       2   10725   10722   10731       2   10725   10737   10743       2
   10725   10737   10746       2   10725   10737   10749       2   10722   10725
   10734       2   10722   10725   10740       2   10719   10707   10722       2
   10716   10707   10719       1   10716   10707   10722       2   10710   10698
   10713       1   10707   10698   10710       2   10707   10698   10713       2
   10707   10722   10728       2   10707   10722   10731       2   10701   10689
   10704       1   10698   10689   10701       2   10698   10689   10704       2
   10698   10707   10716       2   10698   10707   10719       2   10692   10680
   10695       1   10689   10680   10692       2   10689   10680   10695       2
   10689   10698   10710       2   10689   10698   10713       2   10683   10668
   10686       1   10680   10668   10683       2   10680   10668   10686       2
   10680   10689   10701       2   10680   10689   10704       2   10671   10650
   10674       1   10668   10650   10671       2   10668   10650   10674       2
   10668   10680   10692       2   10668   10680   10695       2   10659   10638
   10662       4   10659   10644   10665       4   10653   10635   10656       1
   10650   10635   10653       2   10650   10635   10656       2   10650   10668
   10683       2   10650   10668   10686       2   10644   10632   10647       4
   10644   10659   10677       4   10638   10629   10641       4   10638   10659
   10677       4   10635   10650   10671       2   10635   10650   10674       2
   10632   10644   10665       4   10629   10638   10662       4   10617   10599
   10620       4   10617   10605   10623       4   10617   10635   10653       8
   10617   10635   10656       8   10611   10629   10641      10   10611   10632
   10647      10   10608   10596   10614       4   10599   10581   10602       4
   10596   10608   10626       4   10590   10575   10593      10   10590   10608
   10626      10   10584   10605   10623       4   10581   10599   10620       4
   10578   10596   10614       4   10569   10581   10602       4   10566   10575
   10593       4   10938   10929   10941       1   10935   10929   10938       1
   10935   10929   10941       1   10929   10917   10932       2   10926   10917
   10929       2   10926   10917   10932       1   10920   10914   10923       1
   10917   10914   10920       2   10917   10914   10923       2   10917   10929
   10935       2   10917   10929   10938       2   10917   10929   10941       2
   10914   10917   10926       2   10914   10917   10932       2   10911   10899
   10914       2   10908   10899   10911       1   10908   10899   10914       2
   10902   10890   10905       1   10899   10890   10902       2   10899   10890
   10905       2   10899   10914   10920       2   10899   10914   10923       2
   10893   10881   10896       1   10890   10881   10893       2   10890   10881
   10896       2   10890   10899   10908       2   10890   10899   10911       2
   10884   10872   10887       1   10881   10872   10884       2   10881   10872
   10887       2   10881   10890   10902       2   10881   10890   10905       2
   10875   10860   10878       1   10872   10860   10875       2   10872   10860
   10878       2   10872   10881   10893       2   10872   10881   10896       2
   10863   10842   10866       1   10860   10842   10863       2   10860   10842
   10866       2   10860   10872   10884       2   10860   10872   10887       2
   10851   10830   10854       4   10851   10836   10857       4   10845   10827
   10848       1   10842   10827   10845       2   10842   10827   10848       2
   10842   10860   10875       2   10842   10860   10878       2   10836   10824
   10839       4   10836   10851   10869       4   10830   10821   10833       4
   10830   10851   10869       4   10827   10842   10863       2   10827   10842
   10866       2   10824   10836   10857       4   10821   10830   10854       4
   10809   10791   10812       4   10809   10797   10815       4   10809   10827
   10845       8   10809   10827   10848       8   10803   10821   10833      10
   10803   10824   10839      10   10800   10788   10806       4   10791   10773
   10794       4   10788   10800   10818       4   10782   10767   10785      10
   10782   10800   10818      10   10776   10797   10815       4   10773   10791
   10812       4   10770   10788   10806       4   10761   10773   10794       4
   10758   10767   10785       4   11130   11121   11133       1   11127   11121
   11130       1   11127   11121   11133       1   11121   11109   11124       2
   11118   11109   11121       2   11118   11109   11124       1   11112   11106
   11115       1   11109   11106   11112       2   11109   11106   11115       2
   11109   11121   11127       2   11109   11121   11130       2   11109   11121
   11133       2   11106   11109   11118       2   11106   11109   11124       2
   11103   11091   11106       2   11100   11091   11103       1   11100   11091
   11106       2   11094   11082   11097       1   11091   11082   11094       2
   11091   11082   11097       2   11091   11106   11112       2   11091   11106
   11115       2   11085   11073   11088       1   11082   11073   11085       2
   11082   11073   11088       2   11082   11091   11100       2   11082   11091
   11103       2   11076   11064   11079       1   11073   11064   11076       2
   11073   11064   11079       2   11073   11082   11094       2   11073   11082
   11097       2   11067   11052   11070       1   11064   11052   11067       2
   11064   11052   11070       2   11064   11073   11085       2   11064   11073
   11088       2   11055   11034   11058       1   11052   11034   11055       2
   11052   11034   11058       2   11052   11064   11076       2   11052   11064
   11079       2   11043   11022   11046       4   11043   11028   11049       4
   11037   11019   11040       1   11034   11019   11037       2   11034   11019
   11040       2   11034   11052   11067       2   11034   11052   11070       2
   11028   11016   11031       4   11028   11043   11061       4   11022   11013
   11025       4   11022   11043   11061       4   11019   11034   11055       2
   11019   11034   11058       2   11016   11028   11049       4   11013   11022
   11046       4   11001   10983   11004       4   11001   10989   11007       4
   11001   11019   11037       8   11001   11019   11040       8   10995   11013
   11025      10   10995   11016   11031      10   10992   10980   10998       4
   10983   10965   10986       4   10980   10992   11010       4   10974   10959
   10977      10   10974   10992   11010      10   10968   10989   11007       4
   10965   10983   11004       4   10962   10980   10998       4   10953   10965
   10986       4   10950   10959   10977       4   11322   11313   11325       1
   11319   11313   11322       1   11319   11313   11325       1   11313   11301
   11316       2   11310   11301   11313       2   11310   11301   11316       1
   11304   11298   11307       1   11301   11298   11304       2   11301   11298
   11307       2   11301   11313   11319       2   11301   11313   11322       2
   11301   11313   11325       2   11298   11301   11310       2   11298   11301
   11316       2   11295   11283   11298       2   11292   11283   11295       1
   11292   11283   11298       2   11286   11274   11289       1   11283   11274
   11286       2   11283   11274   11289       2   11283   11298   11304       2
   11283   11298   11307       2   11277   11265   11280       1   11274   11265
   11277       2   11274   11265   11280       2   11274   11283   11292       2
   11274   11283   11295       2   11268   11256   11271       1   11265   11256
   11268       2   11265   11256   11271       2   11265   11274   11286       2
   11265   11274   11289       2   11259   11244   11262       1   11256   11244
   11259       2   11256   11244   11262       2   11256   11265   11277       2
   11256   11265   11280       2   11247   11226   11250       1   11244   11226
   11247       2   11244   11226   11250       2   11244   11256   11268       2
   11244   11256   11271       2   11235   11214   11238       4   11235   11220
   11241       4   11229   11211   11232       1   11226   11211   11229       2
   11226   11211   11232       2   11226   11244   11259       2   11226   11244
   11262       2   11220   11208   11223       4   11220   11235   11253       4
   11214   11205   11217       4   11214   11235   11253       4   11211   11226
   11247       2   11211   11226   11250       2   11208   11220   11241       4
   11205   11214   11238       4   11193   11175   11196       4   11193   11181
   11199       4   11193   11211   11229       8   11193   11211   11232       8
   11187   11205   11217      10   11187   11208   11223      10   11184   11172
   11190       4   11175   11157   11178       4   11172   11184   11202       4
   11166   11151   11169      10   11166   11184   11202      10   11160   11181
   11199       4   11157   11175   11196       4   11154   11172   11190       4
   11145   11157   11178       4   11142   11151   11169       4   11514   11505
   11517       1   11511   11505   11514       1   11511   11505   11517       1
   11505   11493   11508       2   11502   11493   11505       2   11502   11493
   11508       1   11496   11490   11499       1   11493   11490   11496       2
   11493   11490   11499       2   11493   11505   11511       2   11493   11505
   11514       2   11493   11505   11517       2   11490   11493   11502       2
   11490   11493   11508       2   11487   11475   11490       2   11484   11475
   11487       1   11484   11475   11490       2   11478   11466   11481       1
   11475   11466   11478       2   11475   11466   11481       2   11475   11490
   11496       2   11475   11490   11499       2   11469   11457   11472       1
   11466   11457   11469       2   11466   11457   11472       2   11466   11475
   11484       2   11466   11475   11487       2   11460   11448   11463       1
   11457   11448   11460       2   11457   11448   11463       2   11457   11466
   11478       2   11457   11466   11481       2   11451   11436   11454       1
   11448   11436   11451       2   11448   11436   11454       2   11448   11457
   11469       2   11448   11457   11472       2   11439   11418   11442       1
   11436   11418   11439       2   11436   11418   11442       2   11436   11448
   11460       2   11436   11448   11463       2   11427   11406   11430       4
   11427   11412   11433       4   11421   11403   11424       1   11418   11403
   11421       2   11418   11403   11424       2   11418   11436   11451       2
   11418   11436   11454       2   11412   11400   11415       4   11412   11427
   11445       4   11406   11397   11409       4   11406   11427   11445       4
   11403   11418   11439       2   11403   11418   11442       2   11400   11412
   11433       4   11397   11406   11430       4   11385   11367   11388       4
   11385   11373   11391       4   11385   11403   11421       8   11385   11403
   11424       8   11379   11397   11409      10   11379   11400   11415      10
   11376   11364   11382       4   11367   11349   11370       4   11364   11376
   11394       4   11358   11343   11361      10   11358   11376   11394      10
   11352   11373   11391       4   11349   11367   11388       4   11346   11364
   11382       4   11337   11349   11370       4   11334   11343   11361       4
   11706   11697   11709       1   11703   11697   11706       1   11703   11697
   11709       1   11697   11685   11700       2   11694   11685   11697       2
   11694   11685   11700       1   11688   11682   11691       1   11685   11682
   11688       2   11685   11682   11691       2   11685   11697   11703       2
   11685   11697   11706       2   11685   11697   11709       2   11682   11685
   11694       2   11682   11685   11700       2   11679   11667   11682       2
   11676   11667   11679       1   11676   11667   11682       2   11670   11658
   11673       1   11667   11658   11670       2   11667   11658   11673       2
   11667   11682   11688       2   11667   11682   11691       2   11661   11649
   11664       1   11658   11649   11661       2   11658   11649   11664       2
   11658   11667   11676       2   11658   11667   11679       2   11652   11640
   11655       1   11649   11640   11652       2   11649   11640   11655       2
   11649   11658   11670       2   11649   11658   11673       2   11643   11628
   11646       1   11640   11628   11643       2   11640   11628   11646       2
   11640   11649   11661       2   11640   11649   11664       2   11631   11610
   11634       1   11628   11610   11631       2   11628   11610   11634       2
   11628   11640   11652       2   11628   11640   11655       2   11619   11598
   11622       4   11619   11604   11625       4   11613   11595   11616       1
   11610   11595   11613       2   11610   11595   11616       2   11610   11628
   11643       2   11610   11628   11646       2   11604   11592   11607       4
   11604   11619   11637       4   11598   11589   11601       4   11598   11619
   11637       4   11595   11610   11631       2   11595   11610   11634       2
   11592   11604   11625       4   11589   11598   11622       4   11577   11559
   11580       4   11577   11565   11583       4   11577   11595   11613       8
   11577   11595   11616       8   11571   11589   11601      10   11571   11592
   11607      10   11568   11556   11574       4   11559   11541   11562       4
   11556   11568   11586       4   11550   11535   11553      10   11550   11568
   11586      10   11544   11565   11583       4   11541   11559   11580       4
   11538   11556   11574       4   11529   11541   11562       4   11526   11535
   11553       4   11898   11889   11901       1   11895   11889   11898       1
   11895   11889   11901       1   11889   11877   11892       2   11886   11877
   11889       2   11886   11877   11892       1   11880   11874   11883       1
   11877   11874   11880       2   11877   11874   11883       2   11877   11889
   11895       2   11877   11889   11898       2   11877   11889   11901       2
   11874   11877   11886       2   11874   11877   11892       2   11871   11859
   11874       2   11868   11859   11871       1   11868   11859   11874       2
   11862   11850   11865       1   11859   11850   11862       2   11859   11850
   11865       2   11859   11874   11880       2   11859   11874   11883       2
   11853   11841   11856       1   11850   11841   11853       2   11850   11841
   11856       2   11850   11859   11868       2   11850   11859   11871       2
   11844   11832   11847       1   11841   11832   11844       2   11841   11832
   11847       2   11841   11850   11862       2   11841   11850   11865       2
   11835   11820   11838       1   11832   11820   11835       2   11832   11820
   11838       2   11832   11841   11853       2   11832   11841   11856       2
   11823   11802   11826       1   11820   11802   11823       2   11820   11802
   11826       2   11820   11832   11844       2   11820   11832   11847       2
   11811   11790   11814       4   11811   11796   11817       4   11805   11787
   11808       1   11802   11787   11805       2   11802   11787   11808       2
   11802   11820   11835       2   11802   11820   11838       2   11796   11784
   11799       4   11796   11811   11829       4   11790   11781   11793       4
   11790   11811   11829       4   11787   11802   11823       2   11787   11802
   11826       2   11784   11796   11817       4   11781   11790   11814       4
   11769   11751   11772       4   11769   11757   11775       4   11769   11787
   11805       8   11769   11787   11808       8   11763   11781   11793      10
   11763   11784   11799      10   11760   11748   11766       4   11751   11733
   11754       4   11748   11760   11778       4   11742   11727   11745      10
   11742   11760   11778      10   11736   11757   11775       4   11733   11751
   11772       4   11730   11748   11766       4   11721   11733   11754       4
   11718   11727   11745       4   12090   12081   12093       1   12087   12081
   12090       1   12087   12081   12093       1   12081   12069   12084       2
   12078   12069   12081       2   12078   12069   12084       1   12072   12066
   12075       1   12069   12066   12072       2   12069   12066   12075       2
   12069   12081   12087       2   12069   12081   12090       2   12069   12081
   12093       2   12066   12069   12078       2   12066   12069   12084       2
   12063   12051   12066       2   12060   12051   12063       1   12060   12051
   12066       2   12054   12042   12057       1   12051   12042   12054       2
   12051   12042   12057       2   12051   12066   12072       2   12051   12066
   12075       2   12045   12033   12048       1   12042   12033   12045       2
   12042   12033   12048       2   12042   12051   12060       2   12042   12051
   12063       2   12036   12024   12039       1   12033   12024   12036       2
   12033   12024   12039       2   12033   12042   12054       2   12033   12042
   12057       2   12027   12012   12030       1   12024   12012   12027       2
   12024   12012   12030       2   12024   12033   12045       2   12024   12033
   12048       2   12015   11994   12018       1   12012   11994   12015       2
   12012   11994   12018       2   12012   12024   12036       2   12012   12024
   12039       2   12003   11982   12006       4   12003   11988   12009       4
   11997   11979   12000       1   11994   11979   11997       2   11994   11979
   12000       2   11994   12012   12027       2   11994   12012   12030       2
   11988   11976   11991       4   11988   12003   12021       4   11982   11973
   11985       4   11982   12003   12021       4   11979   11994   12015       2
   11979   11994   12018       2   11976   11988   12009       4   11973   11982
   12006       4   11961   11943   11964       4   11961   11949   11967       4
   11961   11979   11997       8   11961   11979   12000       8   11955   11973
   11985      10   11955   11976   11991      10   11952   11940   11958       4
   11943   11925   11946       4   11940   11952   11970       4   11934   11919
   11937      10   11934   11952   11970      10   11928   11949   11967       4
   11925   11943   11964       4   11922   11940   11958       4   11913   11925
   11946       4   11910   11919   11937       4   12282   12273   12285       1
   12279   12273   12282       1   12279   12273   12285       1   12273   12261
   12276       2   12270   12261   12273       2   12270   12261   12276       1
   12264   12258   12267       1   12261   12258   12264       2   12261   12258
   12267       2   12261   12273   12279       2   12261   12273   12282       2
   12261   12273   12285       2   12258   12261   12270       2   12258   12261
   12276       2   12255   12243   12258       2   12252   12243   12255       1
   12252   12243   12258       2   12246   12234   12249       1   12243   12234
   12246       2   12243   12234   12249       2   12243   12258   12264       2
   12243   12258   12267       2   12237   12225   12240       1   12234   12225
   12237       2   12234   12225   12240       2   12234   12243   12252       2
   12234   12243   12255       2   12228   12216   12231       1   12225   12216
   12228       2   12225   12216   12231       2   12225   12234   12246       2
   12225   12234   12249       2   12219   12204   12222       1   12216   12204
   12219       2   12216   12204   12222       2   12216   12225   12237       2
   12216   12225   12240       2   12207   12186   12210       1   12204   12186
   12207       2   12204   12186   12210       2   12204   12216   12228       2
   12204   12216   12231       2   12195   12174   12198       4   12195   12180
   12201       4   12189   12171   12192       1   12186   12171   12189       2
   12186   12171   12192       2   12186   12204   12219       2   12186   12204
   12222       2   12180   12168   12183       4   12180   12195   12213       4
   12174   12165   12177       4   12174   12195   12213       4   12171   12186
   12207       2   12171   12186   12210       2   12168   12180   12201       4
   12165   12174   12198       4   12153   12135   12156       4   12153   12141
   12159       4   12153   12171   12189       8   12153   12171   12192       8
   12147   12165   12177      10   12147   12168   12183      10   12144   12132
   12150       4   12135   12117   12138       4   12132   12144   12162       4
   12126   12111   12129      10   12126   12144   12162      10   12120   12141
   12159       4   12117   12135   12156       4   12114   12132   12150       4
   12105   12117   12138       4   12102   12111   12129       4   12474   12465
   12477       1   12471   12465   12474       1   12471   12465   12477       1
   12465   12453   12468       2   12462   12453   12465       2   12462   12453
   12468       1   12456   12450   12459       1   12453   12450   12456       2
   12453   12450   12459       2   12453   12465   12471       2   12453   12465
   12474       2   12453   12465   12477       2   12450   12453   12462       2
   12450   12453   12468       2   12447   12435   12450       2   12444   12435
   12447       1   12444   12435   12450       2   12438   12426   12441       1
   12435   12426   12438       2   12435   12426   12441       2   12435   12450
   12456       2   12435   12450   12459       2   12429   12417   12432       1
   12426   12417   12429       2   12426   12417   12432       2   12426   12435
   12444       2   12426   12435   12447       2   12420   12408   12423       1
   12417   12408   12420       2   12417   12408   12423       2   12417   12426
   12438       2   12417   12426   12441       2   12411   12396   12414       1
   12408   12396   12411       2   12408   12396   12414       2   12408   12417
   12429       2   12408   12417   12432       2   12399   12378   12402       1
   12396   12378   12399       2   12396   12378   12402       2   12396   12408
   12420       2   12396   12408   12423       2   12387   12366   12390       4
   12387   12372   12393       4   12381   12363   12384       1   12378   12363
   12381       2   12378   12363   12384       2   12378   12396   12411       2
   12378   12396   12414       2   12372   12360   12375       4   12372   12387
   12405       4   12366   12357   12369       4   12366   12387   12405       4
   12363   12378   12399       2   12363   12378   12402       2   12360   12372
   12393       4   12357   12366   12390       4   12345   12327   12348       4
   12345   12333   12351       4   12345   12363   12381       8   12345   12363
   12384       8   12339   12357   12369      10   12339   12360   12375      10
   12336   12324   12342       4   12327   12309   12330       4   12324   12336
   12354       4   12318   12303   12321      10   12318   12336   12354      10
   12312   12333   12351       4   12309   12327   12348       4   12306   12324
   12342       4   12297   12309   12330       4   12294   12303   12321       4
   12666   12657   12669       1   12663   12657   12666       1   12663   12657
   12669       1   12657   12645   12660       2   12654   12645   12657       2
   12654   12645   12660       1   12648   12642   12651       1   12645   12642
   12648       2   12645   12642   12651       2   12645   12657   12663       2
   12645   12657   12666       2   12645   12657   12669       2   12642   12645
   12654       2   12642   12645   12660       2   12639   12627   12642       2
   12636   12627   12639       1   12636   12627   12642       2   12630   12618
   12633       1   12627   12618   12630       2   12627   12618   12633       2
   12627   12642   12648       2   12627   12642   12651       2   12621   12609
   12624       1   12618   12609   12621       2   12618   12609   12624       2
   12618   12627   12636       2   12618   12627   12639       2   12612   12600
   12615       1   12609   12600   12612       2   12609   12600   12615       2
   12609   12618   12630       2   12609   12618   12633       2   12603   12588
   12606       1   12600   12588   12603       2   12600   12588   12606       2
   12600   12609   12621       2   12600   12609   12624       2   12591   12570
   12594       1   12588   12570   12591       2   12588   12570   12594       2
   12588   12600   12612       2   12588   12600   12615       2   12579   12558
   12582       4   12579   12564   12585       4   12573   12555   12576       1
   12570   12555   12573       2   12570   12555   12576       2   12570   12588
   12603       2   12570   12588   12606       2   12564   12552   12567       4
   12564   12579   12597       4   12558   12549   12561       4   12558   12579
   12597       4   12555   12570   12591       2   12555   12570   12594       2
   12552   12564   12585       4   12549   12558   12582       4   12537   12519
   12540       4   12537   12525   12543       4   12537   12555   12573       8
   12537   12555   12576       8   12531   12549   12561      10   12531   12552
   12567      10   12528   12516   12534       4   12519   12501   12522       4
   12516   12528   12546       4   12510   12495   12513      10   12510   12528
   12546      10   12504   12525   12543       4   12501   12519   12540       4
   12498   12516   12534       4   12489   12501   12522       4   12486   12495
   12513       4   12858   12849   12861       1   12855   12849   12858       1
   12855   12849   12861       1   12849   12837   12852       2   12846   12837
   12849       2   12846   12837   12852       1   12840   12834   12843       1
   12837   12834   12840       2   12837   12834   12843       2   12837   12849
   12855       2   12837   12849   12858       2   12837   12849   12861       2
   12834   12837   12846       2   12834   12837   12852       2   12831   12819
   12834       2   12828   12819   12831       1   12828   12819   12834       2
   12822   12810   12825       1   12819   12810   12822       2   12819   12810
   12825       2   12819   12834   12840       2   12819   12834   12843       2
   12813   12801   12816       1   12810   12801   12813       2   12810   12801
   12816       2   12810   12819   12828       2   12810   12819   12831       2
   12804   12792   12807       1   12801   12792   12804       2   12801   12792
   12807       2   12801   12810   12822       2   12801   12810   12825       2
   12795   12780   12798       1   12792   12780   12795       2   12792   12780
   12798       2   12792   12801   12813       2   12792   12801   12816       2
   12783   12762   12786       1   12780   12762   12783       2   12780   12762
   12786       2   12780   12792   12804       2   12780   12792   12807       2
   12771   12750   12774       4   12771   12756   12777       4   12765   12747
   12768       1   12762   12747   12765       2   12762   12747   12768       2
   12762   12780   12795       2   12762   12780   12798       2   12756   12744
   12759       4   12756   12771   12789       4   12750   12741   12753       4
   12750   12771   12789       4   12747   12762   12783       2   12747   12762
   12786       2   12744   12756   12777       4   12741   12750   12774       4
   12729   12711   12732       4   12729   12717   12735       4   12729   12747
   12765       8   12729   12747   12768       8   12723   12741   12753      10
   12723   12744   12759      10   12720   12708   12726       4   12711   12693
   12714       4   12708   12720   12738       4   12702   12687   12705      10
   12702   12720   12738      10   12696   12717   12735       4   12693   12711
   12732       4   12690   12708   12726       4   12681   12693   12714       4
   12678   12687   12705       4   13050   13041   13053       1   13047   13041
   13050       1   13047   13041   13053       1   13041   13029   13044       2
   13038   13029   13041       2   13038   13029   13044       1   13032   13026
   13035       1   13029   13026   13032       2   13029   13026   13035       2
   13029   13041   13047       2   13029   13041   13050       2   13029   13041
   13053       2   13026   13029   13038       2   13026   13029   13044       2
   13023   13011   13026       2   13020   13011   13023       1   13020   13011
   13026       2   13014   13002   13017       1   13011   13002   13014       2
   13011   13002   13017       2   13011   13026   13032       2   13011   13026
   13035       2   13005   12993   13008       1   13002   12993   13005       2
   13002   12993   13008       2   13002   13011   13020       2   13002   13011
   13023       2   12996   12984   12999       1   12993   12984   12996       2
   12993   12984   12999       2   12993   13002   13014       2   12993   13002
   13017       2   12987   12972   12990       1   12984   12972   12987       2
   12984   12972   12990       2   12984   12993   13005       2   12984   12993
   13008       2   12975   12954   12978       1   12972   12954   12975       2
   12972   12954   12978       2   12972   12984   12996       2   12972   12984
   12999       2   12963   12942   12966       4   12963   12948   12969       4
   12957   12939   12960       1   12954   12939   12957       2   12954   12939
   12960       2   12954   12972   12987       2   12954   12972   12990       2
   12948   12936   12951       4   12948   12963   12981       4   12942   12933
   12945       4   12942   12963   12981       4   12939   12954   12975       2
   12939   12954   12978       2   12936   12948   12969       4   12933   12942
   12966       4   12921   12903   12924       4   12921   12909   12927       4
   12921   12939   12957       8   12921   12939   12960       8   12915   12933
   12945      10   12915   12936   12951      10   12912   12900   12918       4
   12903   12885   12906       4   12900   12912   12930       4   12894   12879
   12897      10   12894   12912   12930      10   12888   12909   12927       4
   12885   12903   12924       4   12882   12900   12918       4   12873   12885
   12906       4   12870   12879   12897       4   13242   13233   13245       1
   13239   13233   13242       1   13239   13233   13245       1   13233   13221
   13236       2   13230   13221   13233       2   13230   13221   13236       1
   13224   13218   13227       1   13221   13218   13224       2   13221   13218
   13227       2   13221   13233   13239       2   13221   13233   13242       2
   13221   13233   13245       2   13218   13221   13230       2   13218   13221
   13236       2   13215   13203   13218       2   13212   13203   13215       1
   13212   13203   13218       2   13206   13194   13209       1   13203   13194
   13206       2   13203   13194   13209       2   13203   13218   13224       2
   13203   13218   13227       2   13197   13185   13200       1   13194   13185
   13197       2   13194   13185   13200       2   13194   13203   13212       2
   13194   13203   13215       2   13188   13176   13191       1   13185   13176
   13188       2   13185   13176   13191       2   13185   13194   13206       2
   13185   13194   13209       2   13179   13164   13182       1   13176   13164
   13179       2   13176   13164   13182       2   13176   13185   13197       2
   13176   13185   13200       2   13167   13146   13170       1   13164   13146
   13167       2   13164   13146   13170       2   13164   13176   13188       2
   13164   13176   13191       2   13155   13134   13158       4   13155   13140
   13161       4   13149   13131   13152       1   13146   13131   13149       2
   13146   13131   13152       2   13146   13164   13179       2   13146   13164
   13182       2   13140   13128   13143       4   13140   13155   13173       4
   13134   13125   13137       4   13134   13155   13173       4   13131   13146
   13167       2   13131   13146   13170       2   13128   13140   13161       4
   13125   13134   13158       4   13113   13095   13116       4   13113   13101
   13119       4   13113   13131   13149       8   13113   13131   13152       8
   13107   13125   13137      10   13107   13128   13143      10   13104   13092
   13110       4   13095   13077   13098       4   13092   13104   13122       4
   13086   13071   13089      10   13086   13104   13122      10   13080   13101
   13119       4   13077   13095   13116       4   13074   13092   13110       4
   13065   13077   13098       4   13062   13071   13089       4   13434   13425
   13437       1   13431   13425   13434       1   13431   13425   13437       1
   13425   13413   13428       2   13422   13413   13425       2   13422   13413
   13428       1   13416   13410   13419       1   13413   13410   13416       2
   13413   13410   13419       2   13413   13425   13431       2   13413   13425
   13434       2   13413   13425   13437       2   13410   13413   13422       2
   13410   13413   13428       2   13407   13395   13410       2   13404   13395
   13407       1   13404   13395   13410       2   13398   13386   13401       1
   13395   13386   13398       2   13395   13386   13401       2   13395   13410
   13416       2   13395   13410   13419       2   13389   13377   13392       1
   13386   13377   13389       2   13386   13377   13392       2   13386   13395
   13404       2   13386   13395   13407       2   13380   13368   13383       1
   13377   13368   13380       2   13377   13368   13383       2   13377   13386
   13398       2   13377   13386   13401       2   13371   13356   13374       1
   13368   13356   13371       2   13368   13356   13374       2   13368   13377
   13389       2   13368   13377   13392       2   13359   13338   13362       1
   13356   13338   13359       2   13356   13338   13362       2   13356   13368
   13380       2   13356   13368   13383       2   13347   13326   13350       4
   13347   13332   13353       4   13341   13323   13344       1   13338   13323
   13341       2   13338   13323   13344       2   13338   13356   13371       2
   13338   13356   13374       2   13332   13320   13335       4   13332   13347
   13365       4   13326   13317   13329       4   13326   13347   13365       4
   13323   13338   13359       2   13323   13338   13362       2   13320   13332
   13353       4   13317   13326   13350       4   13305   13287   13308       4
   13305   13293   13311       4   13305   13323   13341       8   13305   13323
   13344       8   13299   13317   13329      10   13299   13320   13335      10
   13296   13284   13302       4   13287   13269   13290       4   13284   13296
   13314       4   13278   13263   13281      10   13278   13296   13314      10
   13272   13293   13311       4   13269   13287   13308       4   13266   13284
   13302       4   13257   13269   13290       4   13254   13263   13281       4
   13626   13617   13629       1   13623   13617   13626       1   13623   13617
   13629       1   13617   13605   13620       2   13614   13605   13617       2
   13614   13605   13620       1   13608   13602   13611       1   13605   13602
   13608       2   13605   13602   13611       2   13605   13617   13623       2
   13605   13617   13626       2   13605   13617   13629       2   13602   13605
   13614       2   13602   13605   13620       2   13599   13587   13602       2
   13596   13587   13599       1   13596   13587   13602       2   13590   13578
   13593       1   13587   13578   13590       2   13587   13578   13593       2
   13587   13602   13608       2   13587   13602   13611       2   13581   13569
   13584       1   13578   13569   13581       2   13578   13569   13584       2
   13578   13587   13596       2   13578   13587   13599       2   13572   13560
   13575       1   13569   13560   13572       2   13569   13560   13575       2
   13569   13578   13590       2   13569   13578   13593       2   13563   13548
   13566       1   13560   13548   13563       2   13560   13548   13566       2
   13560   13569   13581       2   13560   13569   13584       2   13551   13530
   13554       1   13548   13530   13551       2   13548   13530   13554       2
   13548   13560   13572       2   13548   13560   13575       2   13539   13518
   13542       4   13539   13524   13545       4   13533   13515   13536       1
   13530   13515   13533       2   13530   13515   13536       2   13530   13548
   13563       2   13530   13548   13566       2   13524   13512   13527       4
   13524   13539   13557       4   13518   13509   13521       4   13518   13539
   13557       4   13515   13530   13551       2   13515   13530   13554       2
   13512   13524   13545       4   13509   13518   13542       4   13497   13479
   13500       4   13497   13485   13503       4   13497   13515   13533       8
   13497   13515   13536       8   13491   13509   13521      10   13491   13512
   13527      10   13488   13476   13494       4   13479   13461   13482       4
   13476   13488   13506       4   13470   13455   13473      10   13470   13488
   13506      10   13464   13485   13503       4   13461   13479   13500       4
   13458   13476   13494       4   13449   13461   13482       4   13446   13455
   13473       4   13818   13809   13821       1   13815   13809   13818       1
   13815   13809   13821       1   13809   13797   13812       2   13806   13797
   13809       2   13806   13797   13812       1   13800   13794   13803       1
   13797   13794   13800       2   13797   13794   13803       2   13797   13809
   13815       2   13797   13809   13818       2   13797   13809   13821       2
   13794   13797   13806       2   13794   13797   13812       2   13791   13779
   13794       2   13788   13779   13791       1   13788   13779   13794       2
   13782   13770   13785       1   13779   13770   13782       2   13779   13770
   13785       2   13779   13794   13800       2   13779   13794   13803       2
   13773   13761   13776       1   13770   13761   13773       2   13770   13761
   13776       2   13770   13779   13788       2   13770   13779   13791       2
   13764   13752   13767       1   13761   13752   13764       2   13761   13752
   13767       2   13761   13770   13782       2   13761   13770   13785       2
   13755   13740   13758       1   13752   13740   13755       2   13752   13740
   13758       2   13752   13761   13773       2   13752   13761   13776       2
   13743   13722   13746       1   13740   13722   13743       2   13740   13722
   13746       2   13740   13752   13764       2   13740   13752   13767       2
   13731   13710   13734       4   13731   13716   13737       4   13725   13707
   13728       1   13722   13707   13725       2   13722   13707   13728       2
   13722   13740   13755       2   13722   13740   13758       2   13716   13704
   13719       4   13716   13731   13749       4   13710   13701   13713       4
   13710   13731   13749       4   13707   13722   13743       2   13707   13722
   13746       2   13704   13716   13737       4   13701   13710   13734       4
   13689   13671   13692       4   13689   13677   13695       4   13689   13707
   13725       8   13689   13707   13728       8   13683   13701   13713      10
   13683   13704   13719      10   13680   13668   13686       4   13671   13653
   13674       4   13668   13680   13698       4   13662   13647   13665      10
   13662   13680   13698      10   13656   13677   13695       4   13653   13671
   13692       4   13650   13668   13686       4   13641   13653   13674       4
   13638   13647   13665       4   14010   14001   14013       1   14007   14001
   14010       1   14007   14001   14013       1   14001   13989   14004       2
   13998   13989   14001       2   13998   13989   14004       1   13992   13986
   13995       1   13989   13986   13992       2   13989   13986   13995       2
   13989   14001   14007       2   13989   14001   14010       2   13989   14001
   14013       2   13986   13989   13998       2   13986   13989   14004       2
   13983   13971   13986       2   13980   13971   13983       1   13980   13971
   13986       2   13974   13962   13977       1   13971   13962   13974       2
   13971   13962   13977       2   13971   13986   13992       2   13971   13986
   13995       2   13965   13953   13968       1   13962   13953   13965       2
   13962   13953   13968       2   13962   13971   13980       2   13962   13971
   13983       2   13956   13944   13959       1   13953   13944   13956       2
   13953   13944   13959       2   13953   13962   13974       2   13953   13962
   13977       2   13947   13932   13950       1   13944   13932   13947       2
   13944   13932   13950       2   13944   13953   13965       2   13944   13953
   13968       2   13935   13914   13938       1   13932   13914   13935       2
   13932   13914   13938       2   13932   13944   13956       2   13932   13944
   13959       2   13923   13902   13926       4   13923   13908   13929       4
   13917   13899   13920       1   13914   13899   13917       2   13914   13899
   13920       2   13914   13932   13947       2   13914   13932   13950       2
   13908   13896   13911       4   13908   13923   13941       4   13902   13893
   13905       4   13902   13923   13941       4   13899   13914   13935       2
   13899   13914   13938       2   13896   13908   13929       4   13893   13902
   13926       4   13881   13863   13884       4   13881   13869   13887       4
   13881   13899   13917       8   13881   13899   13920       8   13875   13893
   13905      10   13875   13896   13911      10   13872   13860   13878       4
   13863   13845   13866       4   13860   13872   13890       4   13854   13839
   13857      10   13854   13872   13890      10   13848   13869   13887       4
   13845   13863   13884       4   13842   13860   13878       4   13833   13845
   13866       4   13830   13839   13857       4   14202   14193   14205       1
   14199   14193   14202       1   14199   14193   14205       1   14193   14181
   14196       2   14190   14181   14193       2   14190   14181   14196       1
   14184   14178   14187       1   14181   14178   14184       2   14181   14178
   14187       2   14181   14193   14199       2   14181   14193   14202       2
   14181   14193   14205       2   14178   14181   14190       2   14178   14181
   14196       2   14175   14163   14178       2   14172   14163   14175       1
   14172   14163   14178       2   14166   14154   14169       1   14163   14154
   14166       2   14163   14154   14169       2   14163   14178   14184       2
   14163   14178   14187       2   14157   14145   14160       1   14154   14145
   14157       2   14154   14145   14160       2   14154   14163   14172       2
   14154   14163   14175       2   14148   14136   14151       1   14145   14136
   14148       2   14145   14136   14151       2   14145   14154   14166       2
   14145   14154   14169       2   14139   14124   14142       1   14136   14124
   14139       2   14136   14124   14142       2   14136   14145   14157       2
   14136   14145   14160       2   14127   14106   14130       1   14124   14106
   14127       2   14124   14106   14130       2   14124   14136   14148       2
   14124   14136   14151       2   14115   14094   14118       4   14115   14100
   14121       4   14109   14091   14112       1   14106   14091   14109       2
   14106   14091   14112       2   14106   14124   14139       2   14106   14124
   14142       2   14100   14088   14103       4   14100   14115   14133       4
   14094   14085   14097       4   14094   14115   14133       4   14091   14106
   14127       2   14091   14106   14130       2   14088   14100   14121       4
   14085   14094   14118       4   14073   14055   14076       4   14073   14061
   14079       4   14073   14091   14109       8   14073   14091   14112       8
   14067   14085   14097      10   14067   14088   14103      10   14064   14052
   14070       4   14055   14037   14058       4   14052   14064   14082       4
   14046   14031   14049      10   14046   14064   14082      10   14040   14061
   14079       4   14037   14055   14076       4   14034   14052   14070       4
   14025   14037   14058       4   14022   14031   14049       4   14394   14385
   14397       1   14391   14385   14394       1   14391   14385   14397       1
   14385   14373   14388       2   14382   14373   14385       2   14382   14373
   14388       1   14376   14370   14379       1   14373   14370   14376       2
   14373   14370   14379       2   14373   14385   14391       2   14373   14385
   14394       2   14373   14385   14397       2   14370   14373   14382       2
   14370   14373   14388       2   14367   14355   14370       2   14364   14355
   14367       1   14364   14355   14370       2   14358   14346   14361       1
   14355   14346   14358       2   14355   14346   14361       2   14355   14370
   14376       2   14355   14370   14379       2   14349   14337   14352       1
   14346   14337   14349       2   14346   14337   14352       2   14346   14355
   14364       2   14346   14355   14367       2   14340   14328   14343       1
   14337   14328   14340       2   14337   14328   14343       2   14337   14346
   14358       2   14337   14346   14361       2   14331   14316   14334       1
   14328   14316   14331       2   14328   14316   14334       2   14328   14337
   14349       2   14328   14337   14352       2   14319   14298   14322       1
   14316   14298   14319       2   14316   14298   14322       2   14316   14328
   14340       2   14316   14328   14343       2   14307   14286   14310       4
   14307   14292   14313       4   14301   14283   14304       1   14298   14283
   14301       2   14298   14283   14304       2   14298   14316   14331       2
   14298   14316   14334       2   14292   14280   14295       4   14292   14307
   14325       4   14286   14277   14289       4   14286   14307   14325       4
   14283   14298   14319       2   14283   14298   14322       2   14280   14292
   14313       4   14277   14286   14310       4   14265   14247   14268       4
   14265   14253   14271       4   14265   14283   14301       8   14265   14283
   14304       8   14259   14277   14289      10   14259   14280   14295      10
   14256   14244   14262       4   14247   14229   14250       4   14244   14256
   14274       4   14238   14223   14241      10   14238   14256   14274      10
   14232   14253   14271       4   14229   14247   14268       4   14226   14244
   14262       4   14217   14229   14250       4   14214   14223   14241       4
   14586   14577   14589       1   14583   14577   14586       1   14583   14577
   14589       1   14577   14565   14580       2   14574   14565   14577       2
   14574   14565   14580       1   14568   14562   14571       1   14565   14562
   14568       2   14565   14562   14571       2   14565   14577   14583       2
   14565   14577   14586       2   14565   14577   14589       2   14562   14565
   14574       2   14562   14565   14580       2   14559   14547   14562       2
   14556   14547   14559       1   14556   14547   14562       2   14550   14538
   14553       1   14547   14538   14550       2   14547   14538   14553       2
   14547   14562   14568       2   14547   14562   14571       2   14541   14529
   14544       1   14538   14529   14541       2   14538   14529   14544       2
   14538   14547   14556       2   14538   14547   14559       2   14532   14520
   14535       1   14529   14520   14532       2   14529   14520   14535       2
   14529   14538   14550       2   14529   14538   14553       2   14523   14508
   14526       1   14520   14508   14523       2   14520   14508   14526       2
   14520   14529   14541       2   14520   14529   14544       2   14511   14490
   14514       1   14508   14490   14511       2   14508   14490   14514       2
   14508   14520   14532       2   14508   14520   14535       2   14499   14478
   14502       4   14499   14484   14505       4   14493   14475   14496       1
   14490   14475   14493       2   14490   14475   14496       2   14490   14508
   14523       2   14490   14508   14526       2   14484   14472   14487       4
   14484   14499   14517       4   14478   14469   14481       4   14478   14499
   14517       4   14475   14490   14511       2   14475   14490   14514       2
   14472   14484   14505       4   14469   14478   14502       4   14457   14439
   14460       4   14457   14445   14463       4   14457   14475   14493       8
   14457   14475   14496       8   14451   14469   14481      10   14451   14472
   14487      10   14448   14436   14454       4   14439   14421   14442       4
   14436   14448   14466       4   14430   14415   14433      10   14430   14448
   14466      10   14424   14445   14463       4   14421   14439   14460       4
   14418   14436   14454       4   14409   14421   14442       4   14406   14415
   14433       4   14778   14769   14781       1   14775   14769   14778       1
   14775   14769   14781       1   14769   14757   14772       2   14766   14757
   14769       2   14766   14757   14772       1   14760   14754   14763       1
   14757   14754   14760       2   14757   14754   14763       2   14757   14769
   14775       2   14757   14769   14778       2   14757   14769   14781       2
   14754   14757   14766       2   14754   14757   14772       2   14751   14739
   14754       2   14748   14739   14751       1   14748   14739   14754       2
   14742   14730   14745       1   14739   14730   14742       2   14739   14730
   14745       2   14739   14754   14760       2   14739   14754   14763       2
   14733   14721   14736       1   14730   14721   14733       2   14730   14721
   14736       2   14730   14739   14748       2   14730   14739   14751       2
   14724   14712   14727       1   14721   14712   14724       2   14721   14712
   14727       2   14721   14730   14742       2   14721   14730   14745       2
   14715   14700   14718       1   14712   14700   14715       2   14712   14700
   14718       2   14712   14721   14733       2   14712   14721   14736       2
   14703   14682   14706       1   14700   14682   14703       2   14700   14682
   14706       2   14700   14712   14724       2   14700   14712   14727       2
   14691   14670   14694       4   14691   14676   14697       4   14685   14667
   14688       1   14682   14667   14685       2   14682   14667   14688       2
   14682   14700   14715       2   14682   14700   14718       2   14676   14664
   14679       4   14676   14691   14709       4   14670   14661   14673       4
   14670   14691   14709       4   14667   14682   14703       2   14667   14682
   14706       2   14664   14676   14697       4   14661   14670   14694       4
   14649   14631   14652       4   14649   14637   14655       4   14649   14667
   14685       8   14649   14667   14688       8   14643   14661   14673      10
   14643   14664   14679      10   14640   14628   14646       4   14631   14613
   14634       4   14628   14640   14658       4   14622   14607   14625      10
   14622   14640   14658      10   14616   14637   14655       4   14613   14631
   14652       4   14610   14628   14646       4   14601   14613   14634       4
   14598   14607   14625       4   14970   14961   14973       1   14967   14961
   14970       1   14967   14961   14973       1   14961   14949   14964       2
   14958   14949   14961       2   14958   14949   14964       1   14952   14946
   14955       1   14949   14946   14952       2   14949   14946   14955       2
   14949   14961   14967       2   14949   14961   14970       2   14949   14961
   14973       2   14946   14949   14958       2   14946   14949   14964       2
   14943   14931   14946       2   14940   14931   14943       1   14940   14931
   14946       2   14934   14922   14937       1   14931   14922   14934       2
   14931   14922   14937       2   14931   14946   14952       2   14931   14946
   14955       2   14925   14913   14928       1   14922   14913   14925       2
   14922   14913   14928       2   14922   14931   14940       2   14922   14931
   14943       2   14916   14904   14919       1   14913   14904   14916       2
   14913   14904   14919       2   14913   14922   14934       2   14913   14922
   14937       2   14907   14892   14910       1   14904   14892   14907       2
   14904   14892   14910       2   14904   14913   14925       2   14904   14913
   14928       2   14895   14874   14898       1   14892   14874   14895       2
   14892   14874   14898       2   14892   14904   14916       2   14892   14904
   14919       2   14883   14862   14886       4   14883   14868   14889       4
   14877   14859   14880       1   14874   14859   14877       2   14874   14859
   14880       2   14874   14892   14907       2   14874   14892   14910       2
   14868   14856   14871       4   14868   14883   14901       4   14862   14853
   14865       4   14862   14883   14901       4   14859   14874   14895       2
   14859   14874   14898       2   14856   14868   14889       4   14853   14862
   14886       4   14841   14823   14844       4   14841   14829   14847       4
   14841   14859   14877       8   14841   14859   14880       8   14835   14853
   14865      10   14835   14856   14871      10   14832   14820   14838       4
   14823   14805   14826       4   14820   14832   14850       4   14814   14799
   14817      10   14814   14832   14850      10   14808   14829   14847       4
   14805   14823   14844       4   14802   14820   14838       4   14793   14805
   14826       4   14790   14799   14817       4   15162   15153   15165       1
   15159   15153   15162       1   15159   15153   15165       1   15153   15141
   15156       2   15150   15141   15153       2   15150   15141   15156       1
   15144   15138   15147       1   15141   15138   15144       2   15141   15138
   15147       2   15141   15153   15159       2   15141   15153   15162       2
   15141   15153   15165       2   15138   15141   15150       2   15138   15141
   15156       2   15135   15123   15138       2   15132   15123   15135       1
   15132   15123   15138       2   15126   15114   15129       1   15123   15114
   15126       2   15123   15114   15129       2   15123   15138   15144       2
   15123   15138   15147       2   15117   15105   15120       1   15114   15105
   15117       2   15114   15105   15120       2   15114   15123   15132       2
   15114   15123   15135       2   15108   15096   15111       1   15105   15096
   15108       2   15105   15096   15111       2   15105   15114   15126       2
   15105   15114   15129       2   15099   15084   15102       1   15096   15084
   15099       2   15096   15084   15102       2   15096   15105   15117       2
   15096   15105   15120       2   15087   15066   15090       1   15084   15066
   15087       2   15084   15066   15090       2   15084   15096   15108       2
   15084   15096   15111       2   15075   15054   15078       4   15075   15060
   15081       4   15069   15051   15072       1   15066   15051   15069       2
   15066   15051   15072       2   15066   15084   15099       2   15066   15084
   15102       2   15060   15048   15063       4   15060   15075   15093       4
   15054   15045   15057       4   15054   15075   15093       4   15051   15066
   15087       2   15051   15066   15090       2   15048   15060   15081       4
   15045   15054   15078       4   15033   15015   15036       4   15033   15021
   15039       4   15033   15051   15069       8   15033   15051   15072       8
   15027   15045   15057      10   15027   15048   15063      10   15024   15012
   15030       4   15015   14997   15018       4   15012   15024   15042       4
   15006   14991   15009      10   15006   15024   15042      10   15000   15021
   15039       4   14997   15015   15036       4   14994   15012   15030       4
   14985   14997   15018       4   14982   14991   15009       4   15354   15345
   15357       1   15351   15345   15354       1   15351   15345   15357       1
   15345   15333   15348       2   15342   15333   15345       2   15342   15333
   15348       1   15336   15330   15339       1   15333   15330   15336       2
   15333   15330   15339       2   15333   15345   15351       2   15333   15345
   15354       2   15333   15345   15357       2   15330   15333   15342       2
   15330   15333   15348       2   15327   15315   15330       2   15324   15315
   15327       1   15324   15315   15330       2   15318   15306   15321       1
   15315   15306   15318       2   15315   15306   15321       2   15315   15330
   15336       2   15315   15330   15339       2   15309   15297   15312       1
   15306   15297   15309       2   15306   15297   15312       2   15306   15315
   15324       2   15306   15315   15327       2   15300   15288   15303       1
   15297   15288   15300       2   15297   15288   15303       2   15297   15306
   15318       2   15297   15306   15321       2   15291   15276   15294       1
   15288   15276   15291       2   15288   15276   15294       2   15288   15297
   15309       2   15288   15297   15312       2   15279   15258   15282       1
   15276   15258   15279       2   15276   15258   15282       2   15276   15288
   15300       2   15276   15288   15303       2   15267   15246   15270       4
   15267   15252   15273       4   15261   15243   15264       1   15258   15243
   15261       2   15258   15243   15264       2   15258   15276   15291       2
   15258   15276   15294       2   15252   15240   15255       4   15252   15267
   15285       4   15246   15237   15249       4   15246   15267   15285       4
   15243   15258   15279       2   15243   15258   15282       2   15240   15252
   15273       4   15237   15246   15270       4   15225   15207   15228       4
   15225   15213   15231       4   15225   15243   15261       8   15225   15243
   15264       8   15219   15237   15249      10   15219   15240   15255      10
   15216   15204   15222       4   15207   15189   15210       4   15204   15216
   15234       4   15198   15183   15201      10   15198   15216   15234      10
   15192   15213   15231       4   15189   15207   15228       4   15186   15204
   15222       4   15177   15189   15210       4   15174   15183   15201       4
   15546   15537   15549       1   15543   15537   15546       1   15543   15537
   15549       1   15537   15525   15540       2   15534   15525   15537       2
   15534   15525   15540       1   15528   15522   15531       1   15525   15522
   15528       2   15525   15522   15531       2   15525   15537   15543       2
   15525   15537   15546       2   15525   15537   15549       2   15522   15525
   15534       2   15522   15525   15540       2   15519   15507   15522       2
   15516   15507   15519       1   15516   15507   15522       2   15510   15498
   15513       1   15507   15498   15510       2   15507   15498   15513       2
   15507   15522   15528       2   15507   15522   15531       2   15501   15489
   15504       1   15498   15489   15501       2   15498   15489   15504       2
   15498   15507   15516       2   15498   15507   15519       2   15492   15480
   15495       1   15489   15480   15492       2   15489   15480   15495       2
   15489   15498   15510       2   15489   15498   15513       2   15483   15468
   15486       1   15480   15468   15483       2   15480   15468   15486       2
   15480   15489   15501       2   15480   15489   15504       2   15471   15450
   15474       1   15468   15450   15471       2   15468   15450   15474       2
   15468   15480   15492       2   15468   15480   15495       2   15459   15438
   15462       4   15459   15444   15465       4   15453   15435   15456       1
   15450   15435   15453       2   15450   15435   15456       2   15450   15468
   15483       2   15450   15468   15486       2   15444   15432   15447       4
   15444   15459   15477       4   15438   15429   15441       4   15438   15459
   15477       4   15435   15450   15471       2   15435   15450   15474       2
   15432   15444   15465       4   15429   15438   15462       4   15417   15399
   15420       4   15417   15405   15423       4   15417   15435   15453       8
   15417   15435   15456       8   15411   15429   15441      10   15411   15432
   15447      10   15408   15396   15414       4   15399   15381   15402       4
   15396   15408   15426       4   15390   15375   15393      10   15390   15408
   15426      10   15384   15405   15423       4   15381   15399   15420       4
   15378   15396   15414       4   15369   15381   15402       4   15366   15375
   15393       4   15738   15729   15741       1   15735   15729   15738       1
   15735   15729   15741       1   15729   15717   15732       2   15726   15717
   15729       2   15726   15717   15732       1   15720   15714   15723       1
   15717   15714   15720       2   15717   15714   15723       2   15717   15729
   15735       2   15717   15729   15738       2   15717   15729   15741       2
   15714   15717   15726       2   15714   15717   15732       2   15711   15699
   15714       2   15708   15699   15711       1   15708   15699   15714       2
   15702   15690   15705       1   15699   15690   15702       2   15699   15690
   15705       2   15699   15714   15720       2   15699   15714   15723       2
   15693   15681   15696       1   15690   15681   15693       2   15690   15681
   15696       2   15690   15699   15708       2   15690   15699   15711       2
   15684   15672   15687       1   15681   15672   15684       2   15681   15672
   15687       2   15681   15690   15702       2   15681   15690   15705       2
   15675   15660   15678       1   15672   15660   15675       2   15672   15660
   15678       2   15672   15681   15693       2   15672   15681   15696       2
   15663   15642   15666       1   15660   15642   15663       2   15660   15642
   15666       2   15660   15672   15684       2   15660   15672   15687       2
   15651   15630   15654       4   15651   15636   15657       4   15645   15627
   15648       1   15642   15627   15645       2   15642   15627   15648       2
   15642   15660   15675       2   15642   15660   15678       2   15636   15624
   15639       4   15636   15651   15669       4   15630   15621   15633       4
   15630   15651   15669       4   15627   15642   15663       2   15627   15642
   15666       2   15624   15636   15657       4   15621   15630   15654       4
   15609   15591   15612       4   15609   15597   15615       4   15609   15627
   15645       8   15609   15627   15648       8   15603   15621   15633      10
   15603   15624   15639      10   15600   15588   15606       4   15591   15573
   15594       4   15588   15600   15618       4   15582   15567   15585      10
   15582   15600   15618      10   15576   15597   15615       4   15573   15591
   15612       4   15570   15588   15606       4   15561   15573   15594       4
   15558   15567   15585       4   15930   15921   15933       1   15927   15921
   15930       1   15927   15921   15933       1   15921   15909   15924       2
   15918   15909   15921       2   15918   15909   15924       1   15912   15906
   15915       1   15909   15906   15912       2   15909   15906   15915       2
   15909   15921   15927       2   15909   15921   15930       2   15909   15921
   15933       2   15906   15909   15918       2   15906   15909   15924       2
   15903   15891   15906       2   15900   15891   15903       1   15900   15891
   15906       2   15894   15882   15897       1   15891   15882   15894       2
   15891   15882   15897       2   15891   15906   15912       2   15891   15906
   15915       2   15885   15873   15888       1   15882   15873   15885       2
   15882   15873   15888       2   15882   15891   15900       2   15882   15891
   15903       2   15876   15864   15879       1   15873   15864   15876       2
   15873   15864   15879       2   15873   15882   15894       2   15873   15882
   15897       2   15867   15852   15870       1   15864   15852   15867       2
   15864   15852   15870       2   15864   15873   15885       2   15864   15873
   15888       2   15855   15834   15858       1   15852   15834   15855       2
   15852   15834   15858       2   15852   15864   15876       2   15852   15864
   15879       2   15843   15822   15846       4   15843   15828   15849       4
   15837   15819   15840       1   15834   15819   15837       2   15834   15819
   15840       2   15834   15852   15867       2   15834   15852   15870       2
   15828   15816   15831       4   15828   15843   15861       4   15822   15813
   15825       4   15822   15843   15861       4   15819   15834   15855       2
   15819   15834   15858       2   15816   15828   15849       4   15813   15822
   15846       4   15801   15783   15804       4   15801   15789   15807       4
   15801   15819   15837       8   15801   15819   15840       8   15795   15813
   15825      10   15795   15816   15831      10   15792   15780   15798       4
   15783   15765   15786       4   15780   15792   15810       4   15774   15759
   15777      10   15774   15792   15810      10   15768   15789   15807       4
   15765   15783   15804       4   15762   15780   15798       4   15753   15765
   15786       4   15750   15759   15777       4   16122   16113   16125       1
   16119   16113   16122       1   16119   16113   16125       1   16113   16101
   16116       2   16110   16101   16113       2   16110   16101   16116       1
   16104   16098   16107       1   16101   16098   16104       2   16101   16098
   16107       2   16101   16113   16119       2   16101   16113   16122       2
   16101   16113   16125       2   16098   16101   16110       2   16098   16101
   16116       2   16095   16083   16098       2   16092   16083   16095       1
   16092   16083   16098       2   16086   16074   16089       1   16083   16074
   16086       2   16083   16074   16089       2   16083   16098   16104       2
   16083   16098   16107       2   16077   16065   16080       1   16074   16065
   16077       2   16074   16065   16080       2   16074   16083   16092       2
   16074   16083   16095       2   16068   16056   16071       1   16065   16056
   16068       2   16065   16056   16071       2   16065   16074   16086       2
   16065   16074   16089       2   16059   16044   16062       1   16056   16044
   16059       2   16056   16044   16062       2   16056   16065   16077       2
   16056   16065   16080       2   16047   16026   16050       1   16044   16026
   16047       2   16044   16026   16050       2   16044   16056   16068       2
   16044   16056   16071       2   16035   16014   16038       4   16035   16020
   16041       4   16029   16011   16032       1   16026   16011   16029       2
   16026   16011   16032       2   16026   16044   16059       2   16026   16044
   16062       2   16020   16008   16023       4   16020   16035   16053       4
   16014   16005   16017       4   16014   16035   16053       4   16011   16026
   16047       2   16011   16026   16050       2   16008   16020   16041       4
   16005   16014   16038       4   15993   15975   15996       4   15993   15981
   15999       4   15993   16011   16029       8   15993   16011   16032       8
   15987   16005   16017      10   15987   16008   16023      10   15984   15972
   15990       4   15975   15957   15978       4   15972   15984   16002       4
   15966   15951   15969      10   15966   15984   16002      10   15960   15981
   15999       4   15957   15975   15996       4   15954   15972   15990       4
   15945   15957   15978       4   15942   15951   15969       4   16314   16305
   16317       1   16311   16305   16314       1   16311   16305   16317       1
   16305   16293   16308       2   16302   16293   16305       2   16302   16293
   16308       1   16296   16290   16299       1   16293   16290   16296       2
   16293   16290   16299       2   16293   16305   16311       2   16293   16305
   16314       2   16293   16305   16317       2   16290   16293   16302       2
   16290   16293   16308       2   16287   16275   16290       2   16284   16275
   16287       1   16284   16275   16290       2   16278   16266   16281       1
   16275   16266   16278       2   16275   16266   16281       2   16275   16290
   16296       2   16275   16290   16299       2   16269   16257   16272       1
   16266   16257   16269       2   16266   16257   16272       2   16266   16275
   16284       2   16266   16275   16287       2   16260   16248   16263       1
   16257   16248   16260       2   16257   16248   16263       2   16257   16266
   16278       2   16257   16266   16281       2   16251   16236   16254       1
   16248   16236   16251       2   16248   16236   16254       2   16248   16257
   16269       2   16248   16257   16272       2   16239   16218   16242       1
   16236   16218   16239       2   16236   16218   16242       2   16236   16248
   16260       2   16236   16248   16263       2   16227   16206   16230       4
   16227   16212   16233       4   16221   16203   16224       1   16218   16203
   16221       2   16218   16203   16224       2   16218   16236   16251       2
   16218   16236   16254       2   16212   16200   16215       4   16212   16227
   16245       4   16206   16197   16209       4   16206   16227   16245       4
   16203   16218   16239       2   16203   16218   16242       2   16200   16212
   16233       4   16197   16206   16230       4   16185   16167   16188       4
   16185   16173   16191       4   16185   16203   16221       8   16185   16203
   16224       8   16179   16197   16209      10   16179   16200   16215      10
   16176   16164   16182       4   16167   16149   16170       4   16164   16176
   16194       4   16158   16143   16161      10   16158   16176   16194      10
   16152   16173   16191       4   16149   16167   16188       4   16146   16164
   16182       4   16137   16149   16170       4   16134   16143   16161       4
   16506   16497   16509       1   16503   16497   16506       1   16503   16497
   16509       1   16497   16485   16500       2   16494   16485   16497       2
   16494   16485   16500       1   16488   16482   16491       1   16485   16482
   16488       2   16485   16482   16491       2   16485   16497   16503       2
   16485   16497   16506       2   16485   16497   16509       2   16482   16485
   16494       2   16482   16485   16500       2   16479   16467   16482       2
   16476   16467   16479       1   16476   16467   16482       2   16470   16458
   16473       1   16467   16458   16470       2   16467   16458   16473       2
   16467   16482   16488       2   16467   16482   16491       2   16461   16449
   16464       1   16458   16449   16461       2   16458   16449   16464       2
   16458   16467   16476       2   16458   16467   16479       2   16452   16440
   16455       1   16449   16440   16452       2   16449   16440   16455       2
   16449   16458   16470       2   16449   16458   16473       2   16443   16428
   16446       1   16440   16428   16443       2   16440   16428   16446       2
   16440   16449   16461       2   16440   16449   16464       2   16431   16410
   16434       1   16428   16410   16431       2   16428   16410   16434       2
   16428   16440   16452       2   16428   16440   16455       2   16419   16398
   16422       4   16419   16404   16425       4   16413   16395   16416       1
   16410   16395   16413       2   16410   16395   16416       2   16410   16428
   16443       2   16410   16428   16446       2   16404   16392   16407       4
   16404   16419   16437       4   16398   16389   16401       4   16398   16419
   16437       4   16395   16410   16431       2   16395   16410   16434       2
   16392   16404   16425       4   16389   16398   16422       4   16377   16359
   16380       4   16377   16365   16383       4   16377   16395   16413       8
   16377   16395   16416       8   16371   16389   16401      10   16371   16392
   16407      10   16368   16356   16374       4   16359   16341   16362       4
   16356   16368   16386       4   16350   16335   16353      10   16350   16368
   16386      10   16344   16365   16383       4   16341   16359   16380       4
   16338   16356   16374       4   16329   16341   16362       4   16326   16335
   16353       4   16698   16689   16701       1   16695   16689   16698       1
   16695   16689   16701       1   16689   16677   16692       2   16686   16677
   16689       2   16686   16677   16692       1   16680   16674   16683       1
   16677   16674   16680       2   16677   16674   16683       2   16677   16689
   16695       2   16677   16689   16698       2   16677   16689   16701       2
   16674   16677   16686       2   16674   16677   16692       2   16671   16659
   16674       2   16668   16659   16671       1   16668   16659   16674       2
   16662   16650   16665       1   16659   16650   16662       2   16659   16650
   16665       2   16659   16674   16680       2   16659   16674   16683       2
   16653   16641   16656       1   16650   16641   16653       2   16650   16641
   16656       2   16650   16659   16668       2   16650   16659   16671       2
   16644   16632   16647       1   16641   16632   16644       2   16641   16632
   16647       2   16641   16650   16662       2   16641   16650   16665       2
   16635   16620   16638       1   16632   16620   16635       2   16632   16620
   16638       2   16632   16641   16653       2   16632   16641   16656       2
   16623   16602   16626       1   16620   16602   16623       2   16620   16602
   16626       2   16620   16632   16644       2   16620   16632   16647       2
   16611   16590   16614       4   16611   16596   16617       4   16605   16587
   16608       1   16602   16587   16605       2   16602   16587   16608       2
   16602   16620   16635       2   16602   16620   16638       2   16596   16584
   16599       4   16596   16611   16629       4   16590   16581   16593       4
   16590   16611   16629       4   16587   16602   16623       2   16587   16602
   16626       2   16584   16596   16617       4   16581   16590   16614       4
   16569   16551   16572       4   16569   16557   16575       4   16569   16587
   16605       8   16569   16587   16608       8   16563   16581   16593      10
   16563   16584   16599      10   16560   16548   16566       4   16551   16533
   16554       4   16548   16560   16578       4   16542   16527   16545      10
   16542   16560   16578      10   16536   16557   16575       4   16533   16551
   16572       4   16530   16548   16566       4   16521   16533   16554       4
   16518   16527   16545       4   16890   16881   16893       1   16887   16881
   16890       1   16887   16881   16893       1   16881   16869   16884       2
   16878   16869   16881       2   16878   16869   16884       1   16872   16866
   16875       1   16869   16866   16872       2   16869   16866   16875       2
   16869   16881   16887       2   16869   16881   16890       2   16869   16881
   16893       2   16866   16869   16878       2   16866   16869   16884       2
   16863   16851   16866       2   16860   16851   16863       1   16860   16851
   16866       2   16854   16842   16857       1   16851   16842   16854       2
   16851   16842   16857       2   16851   16866   16872       2   16851   16866
   16875       2   16845   16833   16848       1   16842   16833   16845       2
   16842   16833   16848       2   16842   16851   16860       2   16842   16851
   16863       2   16836   16824   16839       1   16833   16824   16836       2
   16833   16824   16839       2   16833   16842   16854       2   16833   16842
   16857       2   16827   16812   16830       1   16824   16812   16827       2
   16824   16812   16830       2   16824   16833   16845       2   16824   16833
   16848       2   16815   16794   16818       1   16812   16794   16815       2
   16812   16794   16818       2   16812   16824   16836       2   16812   16824
   16839       2   16803   16782   16806       4   16803   16788   16809       4
   16797   16779   16800       1   16794   16779   16797       2   16794   16779
   16800       2   16794   16812   16827       2   16794   16812   16830       2
   16788   16776   16791       4   16788   16803   16821       4   16782   16773
   16785       4   16782   16803   16821       4   16779   16794   16815       2
   16779   16794   16818       2   16776   16788   16809       4   16773   16782
   16806       4   16761   16743   16764       4   16761   16749   16767       4
   16761   16779   16797       8   16761   16779   16800       8   16755   16773
   16785      10   16755   16776   16791      10   16752   16740   16758       4
   16743   16725   16746       4   16740   16752   16770       4   16734   16719
   16737      10   16734   16752   16770      10   16728   16749   16767       4
   16725   16743   16764       4   16722   16740   16758       4   16713   16725
   16746       4   16710   16719   16737       4   17082   17073   17085       1
   17079   17073   17082       1   17079   17073   17085       1   17073   17061
   17076       2   17070   17061   17073       2   17070   17061   17076       1
   17064   17058   17067       1   17061   17058   17064       2   17061   17058
   17067       2   17061   17073   17079       2   17061   17073   17082       2
   17061   17073   17085       2   17058   17061   17070       2   17058   17061
   17076       2   17055   17043   17058       2   17052   17043   17055       1
   17052   17043   17058       2   17046   17034   17049       1   17043   17034
   17046       2   17043   17034   17049       2   17043   17058   17064       2
   17043   17058   17067       2   17037   17025   17040       1   17034   17025
   17037       2   17034   17025   17040       2   17034   17043   17052       2
   17034   17043   17055       2   17028   17016   17031       1   17025   17016
   17028       2   17025   17016   17031       2   17025   17034   17046       2
   17025   17034   17049       2   17019   17004   17022       1   17016   17004
   17019       2   17016   17004   17022       2   17016   17025   17037       2
   17016   17025   17040       2   17007   16986   17010       1   17004   16986
   17007       2   17004   16986   17010       2   17004   17016   17028       2
   17004   17016   17031       2   16995   16974   16998       4   16995   16980
   17001       4   16989   16971   16992       1   16986   16971   16989       2
   16986   16971   16992       2   16986   17004   17019       2   16986   17004
   17022       2   16980   16968   16983       4   16980   16995   17013       4
   16974   16965   16977       4   16974   16995   17013       4   16971   16986
   17007       2   16971   16986   17010       2   16968   16980   17001       4
   16965   16974   16998       4   16953   16935   16956       4   16953   16941
   16959       4   16953   16971   16989       8   16953   16971   16992       8
   16947   16965   16977      10   16947   16968   16983      10   16944   16932
   16950       4   16935   16917   16938       4   16932   16944   16962       4
   16926   16911   16929      10   16926   16944   16962      10   16920   16941
   16959       4   16917   16935   16956       4   16914   16932   16950       4
   16905   16917   16938       4   16902   16911   16929       4   17274   17265
   17277       1   17271   17265   17274       1   17271   17265   17277       1
   17265   17253   17268       2   17262   17253   17265       2   17262   17253
   17268       1   17256   17250   17259       1   17253   17250   17256       2
   17253   17250   17259       2   17253   17265   17271       2   17253   17265
   17274       2   17253   17265   17277       2   17250   17253   17262       2
   17250   17253   17268       2   17247   17235   17250       2   17244   17235
   17247       1   17244   17235   17250       2   17238   17226   17241       1
   17235   17226   17238       2   17235   17226   17241       2   17235   17250
   17256       2   17235   17250   17259       2   17229   17217   17232       1
   17226   17217   17229       2   17226   17217   17232       2   17226   17235
   17244       2   17226   17235   17247       2   17220   17208   17223       1
   17217   17208   17220       2   17217   17208   17223       2   17217   17226
   17238       2   17217   17226   17241       2   17211   17196   17214       1
   17208   17196   17211       2   17208   17196   17214       2   17208   17217
   17229       2   17208   17217   17232       2   17199   17178   17202       1
   17196   17178   17199       2   17196   17178   17202       2   17196   17208
   17220       2   17196   17208   17223       2   17187   17166   17190       4
   17187   17172   17193       4   17181   17163   17184       1   17178   17163
   17181       2   17178   17163   17184       2   17178   17196   17211       2
   17178   17196   17214       2   17172   17160   17175       4   17172   17187
   17205       4   17166   17157   17169       4   17166   17187   17205       4
   17163   17178   17199       2   17163   17178   17202       2   17160   17172
   17193       4   17157   17166   17190       4   17145   17127   17148       4
   17145   17133   17151       4   17145   17163   17181       8   17145   17163
   17184       8   17139   17157   17169      10   17139   17160   17175      10
   17136   17124   17142       4   17127   17109   17130       4   17124   17136
   17154       4   17118   17103   17121      10   17118   17136   17154      10
   17112   17133   17151       4   17109   17127   17148       4   17106   17124
   17142       4   17097   17109   17130       4   17094   17103   17121       4
   17466   17457   17469       1   17463   17457   17466       1   17463   17457
   17469       1   17457   17445   17460       2   17454   17445   17457       2
   17454   17445   17460       1   17448   17442   17451       1   17445   17442
   17448       2   17445   17442   17451       2   17445   17457   17463       2
   17445   17457   17466       2   17445   17457   17469       2   17442   17445
   17454       2   17442   17445   17460       2   17439   17427   17442       2
   17436   17427   17439       1   17436   17427   17442       2   17430   17418
   17433       1   17427   17418   17430       2   17427   17418   17433       2
   17427   17442   17448       2   17427   17442   17451       2   17421   17409
   17424       1   17418   17409   17421       2   17418   17409   17424       2
   17418   17427   17436       2   17418   17427   17439       2   17412   17400
   17415       1   17409   17400   17412       2   17409   17400   17415       2
   17409   17418   17430       2   17409   17418   17433       2   17403   17388
   17406       1   17400   17388   17403       2   17400   17388   17406       2
   17400   17409   17421       2   17400   17409   17424       2   17391   17370
   17394       1   17388   17370   17391       2   17388   17370   17394       2
   17388   17400   17412       2   17388   17400   17415       2   17379   17358
   17382       4   17379   17364   17385       4   17373   17355   17376       1
   17370   17355   17373       2   17370   17355   17376       2   17370   17388
   17403       2   17370   17388   17406       2   17364   17352   17367       4
   17364   17379   17397       4   17358   17349   17361       4   17358   17379
   17397       4   17355   17370   17391       2   17355   17370   17394       2
   17352   17364   17385       4   17349   17358   17382       4   17337   17319
   17340       4   17337   17325   17343       4   17337   17355   17373       8
   17337   17355   17376       8   17331   17349   17361      10   17331   17352
   17367      10   17328   17316   17334       4   17319   17301   17322       4
   17316   17328   17346       4   17310   17295   17313      10   17310   17328
   17346      10   17304   17325   17343       4   17301   17319   17340       4
   17298   17316   17334       4   17289   17301   17322       4   17286   17295
   17313       4   17658   17649   17661       1   17655   17649   17658       1
   17655   17649   17661       1   17649   17637   17652       2   17646   17637
   17649       2   17646   17637   17652       1   17640   17634   17643       1
   17637   17634   17640       2   17637   17634   17643       2   17637   17649
   17655       2   17637   17649   17658       2   17637   17649   17661       2
   17634   17637   17646       2   17634   17637   17652       2   17631   17619
   17634       2   17628   17619   17631       1   17628   17619   17634       2
   17622   17610   17625       1   17619   17610   17622       2   17619   17610
   17625       2   17619   17634   17640       2   17619   17634   17643       2
   17613   17601   17616       1   17610   17601   17613       2   17610   17601
   17616       2   17610   17619   17628       2   17610   17619   17631       2
   17604   17592   17607       1   17601   17592   17604       2   17601   17592
   17607       2   17601   17610   17622       2   17601   17610   17625       2
   17595   17580   17598       1   17592   17580   17595       2   17592   17580
   17598       2   17592   17601   17613       2   17592   17601   17616       2
   17583   17562   17586       1   17580   17562   17583       2   17580   17562
   17586       2   17580   17592   17604       2   17580   17592   17607       2
   17571   17550   17574       4   17571   17556   17577       4   17565   17547
   17568       1   17562   17547   17565       2   17562   17547   17568       2
   17562   17580   17595       2   17562   17580   17598       2   17556   17544
   17559       4   17556   17571   17589       4   17550   17541   17553       4
   17550   17571   17589       4   17547   17562   17583       2   17547   17562
   17586       2   17544   17556   17577       4   17541   17550   17574       4
   17529   17511   17532       4   17529   17517   17535       4   17529   17547
   17565       8   17529   17547   17568       8   17523   17541   17553      10
   17523   17544   17559      10   17520   17508   17526       4   17511   17493
   17514       4   17508   17520   17538       4   17502   17487   17505      10
   17502   17520   17538      10   17496   17517   17535       4   17493   17511
   17532       4   17490   17508   17526       4   17481   17493   17514       4
   17478   17487   17505       4   17850   17841   17853       1   17847   17841
   17850       1   17847   17841   17853       1   17841   17829   17844       2
   17838   17829   17841       2   17838   17829   17844       1   17832   17826
   17835       1   17829   17826   17832       2   17829   17826   17835       2
   17829   17841   17847       2   17829   17841   17850       2   17829   17841
   17853       2   17826   17829   17838       2   17826   17829   17844       2
   17823   17811   17826       2   17820   17811   17823       1   17820   17811
   17826       2   17814   17802   17817       1   17811   17802   17814       2
   17811   17802   17817       2   17811   17826   17832       2   17811   17826
   17835       2   17805   17793   17808       1   17802   17793   17805       2
   17802   17793   17808       2   17802   17811   17820       2   17802   17811
   17823       2   17796   17784   17799       1   17793   17784   17796       2
   17793   17784   17799       2   17793   17802   17814       2   17793   17802
   17817       2   17787   17772   17790       1   17784   17772   17787       2
   17784   17772   17790       2   17784   17793   17805       2   17784   17793
   17808       2   17775   17754   17778       1   17772   17754   17775       2
   17772   17754   17778       2   17772   17784   17796       2   17772   17784
   17799       2   17763   17742   17766       4   17763   17748   17769       4
   17757   17739   17760       1   17754   17739   17757       2   17754   17739
   17760       2   17754   17772   17787       2   17754   17772   17790       2
   17748   17736   17751       4   17748   17763   17781       4   17742   17733
   17745       4   17742   17763   17781       4   17739   17754   17775       2
   17739   17754   17778       2   17736   17748   17769       4   17733   17742
   17766       4   17721   17703   17724       4   17721   17709   17727       4
   17721   17739   17757       8   17721   17739   17760       8   17715   17733
   17745      10   17715   17736   17751      10   17712   17700   17718       4
   17703   17685   17706       4   17700   17712   17730       4   17694   17679
   17697      10   17694   17712   17730      10   17688   17709   17727       4
   17685   17703   17724       4   17682   17700   17718       4   17673   17685
   17706       4   17670   17679   17697       4   18042   18033   18045       1
   18039   18033   18042       1   18039   18033   18045       1   18033   18021
   18036       2   18030   18021   18033       2   18030   18021   18036       1
   18024   18018   18027       1   18021   18018   18024       2   18021   18018
   18027       2   18021   18033   18039       2   18021   18033   18042       2
   18021   18033   18045       2   18018   18021   18030       2   18018   18021
   18036       2   18015   18003   18018       2   18012   18003   18015       1
   18012   18003   18018       2   18006   17994   18009       1   18003   17994
   18006       2   18003   17994   18009       2   18003   18018   18024       2
   18003   18018   18027       2   17997   17985   18000       1   17994   17985
   17997       2   17994   17985   18000       2   17994   18003   18012       2
   17994   18003   18015       2   17988   17976   17991       1   17985   17976
   17988       2   17985   17976   17991       2   17985   17994   18006       2
   17985   17994   18009       2   17979   17964   17982       1   17976   17964
   17979       2   17976   17964   17982       2   17976   17985   17997       2
   17976   17985   18000       2   17967   17946   17970       1   17964   17946
   17967       2   17964   17946   17970       2   17964   17976   17988       2
   17964   17976   17991       2   17955   17934   17958       4   17955   17940
   17961       4   17949   17931   17952       1   17946   17931   17949       2
   17946   17931   17952       2   17946   17964   17979       2   17946   17964
   17982       2   17940   17928   17943       4   17940   17955   17973       4
   17934   17925   17937       4   17934   17955   17973       4   17931   17946
   17967       2   17931   17946   17970       2   17928   17940   17961       4
   17925   17934   17958       4   17913   17895   17916       4   17913   17901
   17919       4   17913   17931   17949       8   17913   17931   17952       8
   17907   17925   17937      10   17907   17928   17943      10   17904   17892
   17910       4   17895   17877   17898       4   17892   17904   17922       4
   17886   17871   17889      10   17886   17904   17922      10   17880   17901
   17919       4   17877   17895   17916       4   17874   17892   17910       4
   17865   17877   17898       4   17862   17871   17889       4   18234   18225
   18237       1   18231   18225   18234       1   18231   18225   18237       1
   18225   18213   18228       2   18222   18213   18225       2   18222   18213
   18228       1   18216   18210   18219       1   18213   18210   18216       2
   18213   18210   18219       2   18213   18225   18231       2   18213   18225
   18234       2   18213   18225   18237       2   18210   18213   18222       2
   18210   18213   18228       2   18207   18195   18210       2   18204   18195
   18207       1   18204   18195   18210       2   18198   18186   18201       1
   18195   18186   18198       2   18195   18186   18201       2   18195   18210
   18216       2   18195   18210   18219       2   18189   18177   18192       1
   18186   18177   18189       2   18186   18177   18192       2   18186   18195
   18204       2   18186   18195   18207       2   18180   18168   18183       1
   18177   18168   18180       2   18177   18168   18183       2   18177   18186
   18198       2   18177   18186   18201       2   18171   18156   18174       1
   18168   18156   18171       2   18168   18156   18174       2   18168   18177
   18189       2   18168   18177   18192       2   18159   18138   18162       1
   18156   18138   18159       2   18156   18138   18162       2   18156   18168
   18180       2   18156   18168   18183       2   18147   18126   18150       4
   18147   18132   18153       4   18141   18123   18144       1   18138   18123
   18141       2   18138   18123   18144       2   18138   18156   18171       2
   18138   18156   18174       2   18132   18120   18135       4   18132   18147
   18165       4   18126   18117   18129       4   18126   18147   18165       4
   18123   18138   18159       2   18123   18138   18162       2   18120   18132
   18153       4   18117   18126   18150       4   18105   18087   18108       4
   18105   18093   18111       4   18105   18123   18141       8   18105   18123
   18144       8   18099   18117   18129      10   18099   18120   18135      10
   18096   18084   18102       4   18087   18069   18090       4   18084   18096
   18114       4   18078   18063   18081      10   18078   18096   18114      10
   18072   18093   18111       4   18069   18087   18108       4   18066   18084
   18102       4   18057   18069   18090       4   18054   18063   18081       4
   18426   18417   18429       1   18423   18417   18426       1   18423   18417
   18429       1   18417   18405   18420       2   18414   18405   18417       2
   18414   18405   18420       1   18408   18402   18411       1   18405   18402
   18408       2   18405   18402   18411       2   18405   18417   18423       2
   18405   18417   18426       2   18405   18417   18429       2   18402   18405
   18414       2   18402   18405   18420       2   18399   18387   18402       2
   18396   18387   18399       1   18396   18387   18402       2   18390   18378
   18393       1   18387   18378   18390       2   18387   18378   18393       2
   18387   18402   18408       2   18387   18402   18411       2   18381   18369
   18384       1   18378   18369   18381       2   18378   18369   18384       2
   18378   18387   18396       2   18378   18387   18399       2   18372   18360
   18375       1   18369   18360   18372       2   18369   18360   18375       2
   18369   18378   18390       2   18369   18378   18393       2   18363   18348
   18366       1   18360   18348   18363       2   18360   18348   18366       2
   18360   18369   18381       2   18360   18369   18384       2   18351   18330
   18354       1   18348   18330   18351       2   18348   18330   18354       2
   18348   18360   18372       2   18348   18360   18375       2   18339   18318
   18342       4   18339   18324   18345       4   18333   18315   18336       1
   18330   18315   18333       2   18330   18315   18336       2   18330   18348
   18363       2   18330   18348   18366       2   18324   18312   18327       4
   18324   18339   18357       4   18318   18309   18321       4   18318   18339
   18357       4   18315   18330   18351       2   18315   18330   18354       2
   18312   18324   18345       4   18309   18318   18342       4   18297   18279
   18300       4   18297   18285   18303       4   18297   18315   18333       8
   18297   18315   18336       8   18291   18309   18321      10   18291   18312
   18327      10   18288   18276   18294       4   18279   18261   18282       4
   18276   18288   18306       4   18270   18255   18273      10   18270   18288
   18306      10   18264   18285   18303       4   18261   18279   18300       4
   18258   18276   18294       4   18249   18261   18282       4   18246   18255
   18273       4   18618   18609   18621       1   18615   18609   18618       1
   18615   18609   18621       1   18609   18597   18612       2   18606   18597
   18609       2   18606   18597   18612       1   18600   18594   18603       1
   18597   18594   18600       2   18597   18594   18603       2   18597   18609
   18615       2   18597   18609   18618       2   18597   18609   18621       2
   18594   18597   18606       2   18594   18597   18612       2   18591   18579
   18594       2   18588   18579   18591       1   18588   18579   18594       2
   18582   18570   18585       1   18579   18570   18582       2   18579   18570
   18585       2   18579   18594   18600       2   18579   18594   18603       2
   18573   18561   18576       1   18570   18561   18573       2   18570   18561
   18576       2   18570   18579   18588       2   18570   18579   18591       2
   18564   18552   18567       1   18561   18552   18564       2   18561   18552
   18567       2   18561   18570   18582       2   18561   18570   18585       2
   18555   18540   18558       1   18552   18540   18555       2   18552   18540
   18558       2   18552   18561   18573       2   18552   18561   18576       2
   18543   18522   18546       1   18540   18522   18543       2   18540   18522
   18546       2   18540   18552   18564       2   18540   18552   18567       2
   18531   18510   18534       4   18531   18516   18537       4   18525   18507
   18528       1   18522   18507   18525       2   18522   18507   18528       2
   18522   18540   18555       2   18522   18540   18558       2   18516   18504
   18519       4   18516   18531   18549       4   18510   18501   18513       4
   18510   18531   18549       4   18507   18522   18543       2   18507   18522
   18546       2   18504   18516   18537       4   18501   18510   18534       4
   18489   18471   18492       4   18489   18477   18495       4   18489   18507
   18525       8   18489   18507   18528       8   18483   18501   18513      10
   18483   18504   18519      10   18480   18468   18486       4   18471   18453
   18474       4   18468   18480   18498       4   18462   18447   18465      10
   18462   18480   18498      10   18456   18477   18495       4   18453   18471
   18492       4   18450   18468   18486       4   18441   18453   18474       4
   18438   18447   18465       4   18810   18801   18813       1   18807   18801
   18810       1   18807   18801   18813       1   18801   18789   18804       2
   18798   18789   18801       2   18798   18789   18804       1   18792   18786
   18795       1   18789   18786   18792       2   18789   18786   18795       2
   18789   18801   18807       2   18789   18801   18810       2   18789   18801
   18813       2   18786   18789   18798       2   18786   18789   18804       2
   18783   18771   18786       2   18780   18771   18783       1   18780   18771
   18786       2   18774   18762   18777       1   18771   18762   18774       2
   18771   18762   18777       2   18771   18786   18792       2   18771   18786
   18795       2   18765   18753   18768       1   18762   18753   18765       2
   18762   18753   18768       2   18762   18771   18780       2   18762   18771
   18783       2   18756   18744   18759       1   18753   18744   18756       2
   18753   18744   18759       2   18753   18762   18774       2   18753   18762
   18777       2   18747   18732   18750       1   18744   18732   18747       2
   18744   18732   18750       2   18744   18753   18765       2   18744   18753
   18768       2   18735   18714   18738       1   18732   18714   18735       2
   18732   18714   18738       2   18732   18744   18756       2   18732   18744
   18759       2   18723   18702   18726       4   18723   18708   18729       4
   18717   18699   18720       1   18714   18699   18717       2   18714   18699
   18720       2   18714   18732   18747       2   18714   18732   18750       2
   18708   18696   18711       4   18708   18723   18741       4   18702   18693
   18705       4   18702   18723   18741       4   18699   18714   18735       2
   18699   18714   18738       2   18696   18708   18729       4   18693   18702
   18726       4   18681   18663   18684       4   18681   18669   18687       4
   18681   18699   18717       8   18681   18699   18720       8   18675   18693
   18705      10   18675   18696   18711      10   18672   18660   18678       4
   18663   18645   18666       4   18660   18672   18690       4   18654   18639
   18657      10   18654   18672   18690      10   18648   18669   18687       4
   18645   18663   18684       4   18642   18660   18678       4   18633   18645
   18666       4   18630   18639   18657       4   19002   18993   19005       1
   18999   18993   19002       1   18999   18993   19005       1   18993   18981
   18996       2   18990   18981   18993       2   18990   18981   18996       1
   18984   18978   18987       1   18981   18978   18984       2   18981   18978
   18987       2   18981   18993   18999       2   18981   18993   19002       2
   18981   18993   19005       2   18978   18981   18990       2   18978   18981
   18996       2   18975   18963   18978       2   18972   18963   18975       1
   18972   18963   18978       2   18966   18954   18969       1   18963   18954
   18966       2   18963   18954   18969       2   18963   18978   18984       2
   18963   18978   18987       2   18957   18945   18960       1   18954   18945
   18957       2   18954   18945   18960       2   18954   18963   18972       2
   18954   18963   18975       2   18948   18936   18951       1   18945   18936
   18948       2   18945   18936   18951       2   18945   18954   18966       2
   18945   18954   18969       2   18939   18924   18942       1   18936   18924
   18939       2   18936   18924   18942       2   18936   18945   18957       2
   18936   18945   18960       2   18927   18906   18930       1   18924   18906
   18927       2   18924   18906   18930       2   18924   18936   18948       2
   18924   18936   18951       2   18915   18894   18918       4   18915   18900
   18921       4   18909   18891   18912       1   18906   18891   18909       2
   18906   18891   18912       2   18906   18924   18939       2   18906   18924
   18942       2   18900   18888   18903       4   18900   18915   18933       4
   18894   18885   18897       4   18894   18915   18933       4   18891   18906
   18927       2   18891   18906   18930       2   18888   18900   18921       4
   18885   18894   18918       4   18873   18855   18876       4   18873   18861
   18879       4   18873   18891   18909       8   18873   18891   18912       8
   18867   18885   18897      10   18867   18888   18903      10   18864   18852
   18870       4   18855   18837   18858       4   18852   18864   18882       4
   18846   18831   18849      10   18846   18864   18882      10   18840   18861
   18879       4   18837   18855   18876       4   18834   18852   18870       4
   18825   18837   18858       4   18822   18831   18849       4   19194   19185
   19197       1   19191   19185   19194       1   19191   19185   19197       1
   19185   19173   19188       2   19182   19173   19185       2   19182   19173
   19188       1   19176   19170   19179       1   19173   19170   19176       2
   19173   19170   19179       2   19173   19185   19191       2   19173   19185
   19194       2   19173   19185   19197       2   19170   19173   19182       2
   19170   19173   19188       2   19167   19155   19170       2   19164   19155
   19167       1   19164   19155   19170       2   19158   19146   19161       1
   19155   19146   19158       2   19155   19146   19161       2   19155   19170
   19176       2   19155   19170   19179       2   19149   19137   19152       1
   19146   19137   19149       2   19146   19137   19152       2   19146   19155
   19164       2   19146   19155   19167       2   19140   19128   19143       1
   19137   19128   19140       2   19137   19128   19143       2   19137   19146
   19158       2   19137   19146   19161       2   19131   19116   19134       1
   19128   19116   19131       2   19128   19116   19134       2   19128   19137
   19149       2   19128   19137   19152       2   19119   19098   19122       1
   19116   19098   19119       2   19116   19098   19122       2   19116   19128
   19140       2   19116   19128   19143       2   19107   19086   19110       4
   19107   19092   19113       4   19101   19083   19104       1   19098   19083
   19101       2   19098   19083   19104       2   19098   19116   19131       2
   19098   19116   19134       2   19092   19080   19095       4   19092   19107
   19125       4   19086   19077   19089       4   19086   19107   19125       4
   19083   19098   19119       2   19083   19098   19122       2   19080   19092
   19113       4   19077   19086   19110       4   19065   19047   19068       4
   19065   19053   19071       4   19065   19083   19101       8   19065   19083
   19104       8   19059   19077   19089      10   19059   19080   19095      10
   19056   19044   19062       4   19047   19029   19050       4   19044   19056
   19074       4   19038   19023   19041      10   19038   19056   19074      10
   19032   19053   19071       4   19029   19047   19068       4   19026   19044
   19062       4   19017   19029   19050       4   19014   19023   19041       4
   19386   19377   19389       1   19383   19377   19386       1   19383   19377
   19389       1   19377   19365   19380       2   19374   19365   19377       2
   19374   19365   19380       1   19368   19362   19371       1   19365   19362
   19368       2   19365   19362   19371       2   19365   19377   19383       2
   19365   19377   19386       2   19365   19377   19389       2   19362   19365
   19374       2   19362   19365   19380       2   19359   19347   19362       2
   19356   19347   19359       1   19356   19347   19362       2   19350   19338
   19353       1   19347   19338   19350       2   19347   19338   19353       2
   19347   19362   19368       2   19347   19362   19371       2   19341   19329
   19344       1   19338   19329   19341       2   19338   19329   19344       2
   19338   19347   19356       2   19338   19347   19359       2   19332   19320
   19335       1   19329   19320   19332       2   19329   19320   19335       2
   19329   19338   19350       2   19329   19338   19353       2   19323   19308
   19326       1   19320   19308   19323       2   19320   19308   19326       2
   19320   19329   19341       2   19320   19329   19344       2   19311   19290
   19314       1   19308   19290   19311       2   19308   19290   19314       2
   19308   19320   19332       2   19308   19320   19335       2   19299   19278
   19302       4   19299   19284   19305       4   19293   19275   19296       1
   19290   19275   19293       2   19290   19275   19296       2   19290   19308
   19323       2   19290   19308   19326       2   19284   19272   19287       4
   19284   19299   19317       4   19278   19269   19281       4   19278   19299
   19317       4   19275   19290   19311       2   19275   19290   19314       2
   19272   19284   19305       4   19269   19278   19302       4   19257   19239
   19260       4   19257   19245   19263       4   19257   19275   19293       8
   19257   19275   19296       8   19251   19269   19281      10   19251   19272
   19287      10   19248   19236   19254       4   19239   19221   19242       4
   19236   19248   19266       4   19230   19215   19233      10   19230   19248
   19266      10   19224   19245   19263       4   19221   19239   19260       4
   19218   19236   19254       4   19209   19221   19242       4   19206   19215
   19233       4   19578   19569   19581       1   19575   19569   19578       1
   19575   19569   19581       1   19569   19557   19572       2   19566   19557
   19569       2   19566   19557   19572       1   19560   19554   19563       1
   19557   19554   19560       2   19557   19554   19563       2   19557   19569
   19575       2   19557   19569   19578       2   19557   19569   19581       2
   19554   19557   19566       2   19554   19557   19572       2   19551   19539
   19554       2   19548   19539   19551       1   19548   19539   19554       2
   19542   19530   19545       1   19539   19530   19542       2   19539   19530
   19545       2   19539   19554   19560       2   19539   19554   19563       2
   19533   19521   19536       1   19530   19521   19533       2   19530   19521
   19536       2   19530   19539   19548       2   19530   19539   19551       2
   19524   19512   19527       1   19521   19512   19524       2   19521   19512
   19527       2   19521   19530   19542       2   19521   19530   19545       2
   19515   19500   19518       1   19512   19500   19515       2   19512   19500
   19518       2   19512   19521   19533       2   19512   19521   19536       2
   19503   19482   19506       1   19500   19482   19503       2   19500   19482
   19506       2   19500   19512   19524       2   19500   19512   19527       2
   19491   19470   19494       4   19491   19476   19497       4   19485   19467
   19488       1   19482   19467   19485       2   19482   19467   19488       2
   19482   19500   19515       2   19482   19500   19518       2   19476   19464
   19479       4   19476   19491   19509       4   19470   19461   19473       4
   19470   19491   19509       4   19467   19482   19503       2   19467   19482
   19506       2   19464   19476   19497       4   19461   19470   19494       4
   19449   19431   19452       4   19449   19437   19455       4   19449   19467
   19485       8   19449   19467   19488       8   19443   19461   19473      10
   19443   19464   19479      10   19440   19428   19446       4   19431   19413
   19434       4   19428   19440   19458       4   19422   19407   19425      10
   19422   19440   19458      10   19416   19437   19455       4   19413   19431
   19452       4   19410   19428   19446       4   19401   19413   19434       4
   19398   19407   19425       4   19770   19761   19773       1   19767   19761
   19770       1   19767   19761   19773       1   19761   19749   19764       2
   19758   19749   19761       2   19758   19749   19764       1   19752   19746
   19755       1   19749   19746   19752       2   19749   19746   19755       2
   19749   19761   19767       2   19749   19761   19770       2   19749   19761
   19773       2   19746   19749   19758       2   19746   19749   19764       2
   19743   19731   19746       2   19740   19731   19743       1   19740   19731
   19746       2   19734   19722   19737       1   19731   19722   19734       2
   19731   19722   19737       2   19731   19746   19752       2   19731   19746
   19755       2   19725   19713   19728       1   19722   19713   19725       2
   19722   19713   19728       2   19722   19731   19740       2   19722   19731
   19743       2   19716   19704   19719       1   19713   19704   19716       2
   19713   19704   19719       2   19713   19722   19734       2   19713   19722
   19737       2   19707   19692   19710       1   19704   19692   19707       2
   19704   19692   19710       2   19704   19713   19725       2   19704   19713
   19728       2   19695   19674   19698       1   19692   19674   19695       2
   19692   19674   19698       2   19692   19704   19716       2   19692   19704
   19719       2   19683   19662   19686       4   19683   19668   19689       4
   19677   19659   19680       1   19674   19659   19677       2   19674   19659
   19680       2   19674   19692   19707       2   19674   19692   19710       2
   19668   19656   19671       4   19668   19683   19701       4   19662   19653
   19665       4   19662   19683   19701       4   19659   19674   19695       2
   19659   19674   19698       2   19656   19668   19689       4   19653   19662
   19686       4   19641   19623   19644       4   19641   19629   19647       4
   19641   19659   19677       8   19641   19659   19680       8   19635   19653
   19665      10   19635   19656   19671      10   19632   19620   19638       4
   19623   19605   19626       4   19620   19632   19650       4   19614   19599
   19617      10   19614   19632   19650      10   19608   19629   19647       4
   19605   19623   19644       4   19602   19620   19638       4   19593   19605
   19626       4   19590   19599   19617       4   19962   19953   19965       1
   19959   19953   19962       1   19959   19953   19965       1   19953   19941
   19956       2   19950   19941   19953       2   19950   19941   19956       1
   19944   19938   19947       1   19941   19938   19944       2   19941   19938
   19947       2   19941   19953   19959       2   19941   19953   19962       2
   19941   19953   19965       2   19938   19941   19950       2   19938   19941
   19956       2   19935   19923   19938       2   19932   19923   19935       1
   19932   19923   19938       2   19926   19914   19929       1   19923   19914
   19926       2   19923   19914   19929       2   19923   19938   19944       2
   19923   19938   19947       2   19917   19905   19920       1   19914   19905
   19917       2   19914   19905   19920       2   19914   19923   19932       2
   19914   19923   19935       2   19908   19896   19911       1   19905   19896
   19908       2   19905   19896   19911       2   19905   19914   19926       2
   19905   19914   19929       2   19899   19884   19902       1   19896   19884
   19899       2   19896   19884   19902       2   19896   19905   19917       2
   19896   19905   19920       2   19887   19866   19890       1   19884   19866
   19887       2   19884   19866   19890       2   19884   19896   19908       2
   19884   19896   19911       2   19875   19854   19878       4   19875   19860
   19881       4   19869   19851   19872       1   19866   19851   19869       2
   19866   19851   19872       2   19866   19884   19899       2   19866   19884
   19902       2   19860   19848   19863       4   19860   19875   19893       4
   19854   19845   19857       4   19854   19875   19893       4   19851   19866
   19887       2   19851   19866   19890       2   19848   19860   19881       4
   19845   19854   19878       4   19833   19815   19836       4   19833   19821
   19839       4   19833   19851   19869       8   19833   19851   19872       8
   19827   19845   19857      10   19827   19848   19863      10   19824   19812
   19830       4   19815   19797   19818       4   19812   19824   19842       4
   19806   19791   19809      10   19806   19824   19842      10   19800   19821
   19839       4   19797   19815   19836       4   19794   19812   19830       4
   19785   19797   19818       4   19782   19791   19809       4   20154   20145
   20157       1   20151   20145   20154       1   20151   20145   20157       1
   20145   20133   20148       2   20142   20133   20145       2   20142   20133
   20148       1   20136   20130   20139       1   20133   20130   20136       2
   20133   20130   20139       2   20133   20145   20151       2   20133   20145
   20154       2   20133   20145   20157       2   20130   20133   20142       2
   20130   20133   20148       2   20127   20115   20130       2   20124   20115
   20127       1   20124   20115   20130       2   20118   20106   20121       1
   20115   20106   20118       2   20115   20106   20121       2   20115   20130
   20136       2   20115   20130   20139       2   20109   20097   20112       1
   20106   20097   20109       2   20106   20097   20112       2   20106   20115
   20124       2   20106   20115   20127       2   20100   20088   20103       1
   20097   20088   20100       2   20097   20088   20103       2   20097   20106
   20118       2   20097   20106   20121       2   20091   20076   20094       1
   20088   20076   20091       2   20088   20076   20094       2   20088   20097
   20109       2   20088   20097   20112       2   20079   20058   20082       1
   20076   20058   20079       2   20076   20058   20082       2   20076   20088
   20100       2   20076   20088   20103       2   20067   20046   20070       4
   20067   20052   20073       4   20061   20043   20064       1   20058   20043
   20061       2   20058   20043   20064       2   20058   20076   20091       2
   20058   20076   20094       2   20052   20040   20055       4   20052   20067
   20085       4   20046   20037   20049       4   20046   20067   20085       4
   20043   20058   20079       2   20043   20058   20082       2   20040   20052
   20073       4   20037   20046   20070       4   20025   20007   20028       4
   20025   20013   20031       4   20025   20043   20061       8   20025   20043
   20064       8   20019   20037   20049      10   20019   20040   20055      10
   20016   20004   20022       4   20007   19989   20010       4   20004   20016
   20034       4   19998   19983   20001      10   19998   20016   20034      10
   19992   20013   20031       4   19989   20007   20028       4   19986   20004
   20022       4   19977   19989   20010       4   19974   19983   20001       4
   20346   20337   20349       1   20343   20337   20346       1   20343   20337
   20349       1   20337   20325   20340       2   20334   20325   20337       2
   20334   20325   20340       1   20328   20322   20331       1   20325   20322
   20328       2   20325   20322   20331       2   20325   20337   20343       2
   20325   20337   20346       2   20325   20337   20349       2   20322   20325
   20334       2   20322   20325   20340       2   20319   20307   20322       2
   20316   20307   20319       1   20316   20307   20322       2   20310   20298
   20313       1   20307   20298   20310       2   20307   20298   20313       2
   20307   20322   20328       2   20307   20322   20331       2   20301   20289
   20304       1   20298   20289   20301       2   20298   20289   20304       2
   20298   20307   20316       2   20298   20307   20319       2   20292   20280
   20295       1   20289   20280   20292       2   20289   20280   20295       2
   20289   20298   20310       2   20289   20298   20313       2   20283   20268
   20286       1   20280   20268   20283       2   20280   20268   20286       2
   20280   20289   20301       2   20280   20289   20304       2   20271   20250
   20274       1   20268   20250   20271       2   20268   20250   20274       2
   20268   20280   20292       2   20268   20280   20295       2   20259   20238
   20262       4   20259   20244   20265       4   20253   20235   20256       1
   20250   20235   20253       2   20250   20235   20256       2   20250   20268
   20283       2   20250   20268   20286       2   20244   20232   20247       4
   20244   20259   20277       4   20238   20229   20241       4   20238   20259
   20277       4   20235   20250   20271       2   20235   20250   20274       2
   20232   20244   20265       4   20229   20238   20262       4   20217   20199
   20220       4   20217   20205   20223       4   20217   20235   20253       8
   20217   20235   20256       8   20211   20229   20241      10   20211   20232
   20247      10   20208   20196   20214       4   20199   20181   20202       4
   20196   20208   20226       4   20190   20175   20193      10   20190   20208
   20226      10   20184   20205   20223       4   20181   20199   20220       4
   20178   20196   20214       4   20169   20181   20202       4   20166   20175
   20193       4   20538   20529   20541       1   20535   20529   20538       1
   20535   20529   20541       1   20529   20517   20532       2   20526   20517
   20529       2   20526   20517   20532       1   20520   20514   20523       1
   20517   20514   20520       2   20517   20514   20523       2   20517   20529
   20535       2   20517   20529   20538       2   20517   20529   20541       2
   20514   20517   20526       2   20514   20517   20532       2   20511   20499
   20514       2   20508   20499   20511       1   20508   20499   20514       2
   20502   20490   20505       1   20499   20490   20502       2   20499   20490
   20505       2   20499   20514   20520       2   20499   20514   20523       2
   20493   20481   20496       1   20490   20481   20493       2   20490   20481
   20496       2   20490   20499   20508       2   20490   20499   20511       2
   20484   20472   20487       1   20481   20472   20484       2   20481   20472
   20487       2   20481   20490   20502       2   20481   20490   20505       2
   20475   20460   20478       1   20472   20460   20475       2   20472   20460
   20478       2   20472   20481   20493       2   20472   20481   20496       2
   20463   20442   20466       1   20460   20442   20463       2   20460   20442
   20466       2   20460   20472   20484       2   20460   20472   20487       2
   20451   20430   20454       4   20451   20436   20457       4   20445   20427
   20448       1   20442   20427   20445       2   20442   20427   20448       2
   20442   20460   20475       2   20442   20460   20478       2   20436   20424
   20439       4   20436   20451   20469       4   20430   20421   20433       4
   20430   20451   20469       4   20427   20442   20463       2   20427   20442
   20466       2   20424   20436   20457       4   20421   20430   20454       4
   20409   20391   20412       4   20409   20397   20415       4   20409   20427
   20445       8   20409   20427   20448       8   20403   20421   20433      10
   20403   20424   20439      10   20400   20388   20406       4   20391   20373
   20394       4   20388   20400   20418       4   20382   20367   20385      10
   20382   20400   20418      10   20376   20397   20415       4   20373   20391
   20412       4   20370   20388   20406       4   20361   20373   20394       4
   20358   20367   20385       4   20730   20721   20733       1   20727   20721
   20730       1   20727   20721   20733       1   20721   20709   20724       2
   20718   20709   20721       2   20718   20709   20724       1   20712   20706
   20715       1   20709   20706   20712       2   20709   20706   20715       2
   20709   20721   20727       2   20709   20721   20730       2   20709   20721
   20733       2   20706   20709   20718       2   20706   20709   20724       2
   20703   20691   20706       2   20700   20691   20703       1   20700   20691
   20706       2   20694   20682   20697       1   20691   20682   20694       2
   20691   20682   20697       2   20691   20706   20712       2   20691   20706
   20715       2   20685   20673   20688       1   20682   20673   20685       2
   20682   20673   20688       2   20682   20691   20700       2   20682   20691
   20703       2   20676   20664   20679       1   20673   20664   20676       2
   20673   20664   20679       2   20673   20682   20694       2   20673   20682
   20697       2   20667   20652   20670       1   20664   20652   20667       2
   20664   20652   20670       2   20664   20673   20685       2   20664   20673
   20688       2   20655   20634   20658       1   20652   20634   20655       2
   20652   20634   20658       2   20652   20664   20676       2   20652   20664
   20679       2   20643   20622   20646       4   20643   20628   20649       4
   20637   20619   20640       1   20634   20619   20637       2   20634   20619
   20640       2   20634   20652   20667       2   20634   20652   20670       2
   20628   20616   20631       4   20628   20643   20661       4   20622   20613
   20625       4   20622   20643   20661       4   20619   20634   20655       2
   20619   20634   20658       2   20616   20628   20649       4   20613   20622
   20646       4   20601   20583   20604       4   20601   20589   20607       4
   20601   20619   20637       8   20601   20619   20640       8   20595   20613
   20625      10   20595   20616   20631      10   20592   20580   20598       4
   20583   20565   20586       4   20580   20592   20610       4   20574   20559
   20577      10   20574   20592   20610      10   20568   20589   20607       4
   20565   20583   20604       4   20562   20580   20598       4   20553   20565
   20586       4   20550   20559   20577       4   20922   20913   20925       1
   20919   20913   20922       1   20919   20913   20925       1   20913   20901
   20916       2   20910   20901   20913       2   20910   20901   20916       1
   20904   20898   20907       1   20901   20898   20904       2   20901   20898
   20907       2   20901   20913   20919       2   20901   20913   20922       2
   20901   20913   20925       2   20898   20901   20910       2   20898   20901
   20916       2   20895   20883   20898       2   20892   20883   20895       1
   20892   20883   20898       2   20886   20874   20889       1   20883   20874
   20886       2   20883   20874   20889       2   20883   20898   20904       2
   20883   20898   20907       2   20877   20865   20880       1   20874   20865
   20877       2   20874   20865   20880       2   20874   20883   20892       2
   20874   20883   20895       2   20868   20856   20871       1   20865   20856
   20868       2   20865   20856   20871       2   20865   20874   20886       2
   20865   20874   20889       2   20859   20844   20862       1   20856   20844
   20859       2   20856   20844   20862       2   20856   20865   20877       2
   20856   20865   20880       2   20847   20826   20850       1   20844   20826
   20847       2   20844   20826   20850       2   20844   20856   20868       2
   20844   20856   20871       2   20835   20814   20838       4   20835   20820
   20841       4   20829   20811   20832       1   20826   20811   20829       2
   20826   20811   20832       2   20826   20844   20859       2   20826   20844
   20862       2   20820   20808   20823       4   20820   20835   20853       4
   20814   20805   20817       4   20814   20835   20853       4   20811   20826
   20847       2   20811   20826   20850       2   20808   20820   20841       4
   20805   20814   20838       4   20793   20775   20796       4   20793   20781
   20799       4   20793   20811   20829       8   20793   20811   20832       8
   20787   20805   20817      10   20787   20808   20823      10   20784   20772
   20790       4   20775   20757   20778       4   20772   20784   20802       4
   20766   20751   20769      10   20766   20784   20802      10   20760   20781
   20799       4   20757   20775   20796       4   20754   20772   20790       4
   20745   20757   20778       4   20742   20751   20769       4   21114   21105
   21117       1   21111   21105   21114       1   21111   21105   21117       1
   21105   21093   21108       2   21102   21093   21105       2   21102   21093
   21108       1   21096   21090   21099       1   21093   21090   21096       2
   21093   21090   21099       2   21093   21105   21111       2   21093   21105
   21114       2   21093   21105   21117       2   21090   21093   21102       2
   21090   21093   21108       2   21087   21075   21090       2   21084   21075
   21087       1   21084   21075   21090       2   21078   21066   21081       1
   21075   21066   21078       2   21075   21066   21081       2   21075   21090
   21096       2   21075   21090   21099       2   21069   21057   21072       1
   21066   21057   21069       2   21066   21057   21072       2   21066   21075
   21084       2   21066   21075   21087       2   21060   21048   21063       1
   21057   21048   21060       2   21057   21048   21063       2   21057   21066
   21078       2   21057   21066   21081       2   21051   21036   21054       1
   21048   21036   21051       2   21048   21036   21054       2   21048   21057
   21069       2   21048   21057   21072       2   21039   21018   21042       1
   21036   21018   21039       2   21036   21018   21042       2   21036   21048
   21060       2   21036   21048   21063       2   21027   21006   21030       4
   21027   21012   21033       4   21021   21003   21024       1   21018   21003
   21021       2   21018   21003   21024       2   21018   21036   21051       2
   21018   21036   21054       2   21012   21000   21015       4   21012   21027
   21045       4   21006   20997   21009       4   21006   21027   21045       4
   21003   21018   21039       2   21003   21018   21042       2   21000   21012
   21033       4   20997   21006   21030       4   20985   20967   20988       4
   20985   20973   20991       4   20985   21003   21021       8   20985   21003
   21024       8   20979   20997   21009      10   20979   21000   21015      10
   20976   20964   20982       4   20967   20949   20970       4   20964   20976
   20994       4   20958   20943   20961      10   20958   20976   20994      10
   20952   20973   20991       4   20949   20967   20988       4   20946   20964
   20982       4   20937   20949   20970       4   20934   20943   20961       4
   21306   21297   21309       1   21303   21297   21306       1   21303   21297
   21309       1   21297   21285   21300       2   21294   21285   21297       2
   21294   21285   21300       1   21288   21282   21291       1   21285   21282
   21288       2   21285   21282   21291       2   21285   21297   21303       2
   21285   21297   21306       2   21285   21297   21309       2   21282   21285
   21294       2   21282   21285   21300       2   21279   21267   21282       2
   21276   21267   21279       1   21276   21267   21282       2   21270   21258
   21273       1   21267   21258   21270       2   21267   21258   21273       2
   21267   21282   21288       2   21267   21282   21291       2   21261   21249
   21264       1   21258   21249   21261       2   21258   21249   21264       2
   21258   21267   21276       2   21258   21267   21279       2   21252   21240
   21255       1   21249   21240   21252       2   21249   21240   21255       2
   21249   21258   21270       2   21249   21258   21273       2   21243   21228
   21246       1   21240   21228   21243       2   21240   21228   21246       2
   21240   21249   21261       2   21240   21249   21264       2   21231   21210
   21234       1   21228   21210   21231       2   21228   21210   21234       2
   21228   21240   21252       2   21228   21240   21255       2   21219   21198
   21222       4   21219   21204   21225       4   21213   21195   21216       1
   21210   21195   21213       2   21210   21195   21216       2   21210   21228
   21243       2   21210   21228   21246       2   21204   21192   21207       4
   21204   21219   21237       4   21198   21189   21201       4   21198   21219
   21237       4   21195   21210   21231       2   21195   21210   21234       2
   21192   21204   21225       4   21189   21198   21222       4   21177   21159
   21180       4   21177   21165   21183       4   21177   21195   21213       8
   21177   21195   21216       8   21171   21189   21201      10   21171   21192
   21207      10   21168   21156   21174       4   21159   21141   21162       4
   21156   21168   21186       4   21150   21135   21153      10   21150   21168
   21186      10   21144   21165   21183       4   21141   21159   21180       4
   21138   21156   21174       4   21129   21141   21162       4   21126   21135
   21153       4   21498   21489   21501       1   21495   21489   21498       1
   21495   21489   21501       1   21489   21477   21492       2   21486   21477
   21489       2   21486   21477   21492       1   21480   21474   21483       1
   21477   21474   21480       2   21477   21474   21483       2   21477   21489
   21495       2   21477   21489   21498       2   21477   21489   21501       2
   21474   21477   21486       2   21474   21477   21492       2   21471   21459
   21474       2   21468   21459   21471       1   21468   21459   21474       2
   21462   21450   21465       1   21459   21450   21462       2   21459   21450
   21465       2   21459   21474   21480       2   21459   21474   21483       2
   21453   21441   21456       1   21450   21441   21453       2   21450   21441
   21456       2   21450   21459   21468       2   21450   21459   21471       2
   21444   21432   21447       1   21441   21432   21444       2   21441   21432
   21447       2   21441   21450   21462       2   21441   21450   21465       2
   21435   21420   21438       1   21432   21420   21435       2   21432   21420
   21438       2   21432   21441   21453       2   21432   21441   21456       2
   21423   21402   21426       1   21420   21402   21423       2   21420   21402
   21426       2   21420   21432   21444       2   21420   21432   21447       2
   21411   21390   21414       4   21411   21396   21417       4   21405   21387
   21408       1   21402   21387   21405       2   21402   21387   21408       2
   21402   21420   21435       2   21402   21420   21438       2   21396   21384
   21399       4   21396   21411   21429       4   21390   21381   21393       4
   21390   21411   21429       4   21387   21402   21423       2   21387   21402
   21426       2   21384   21396   21417       4   21381   21390   21414       4
   21369   21351   21372       4   21369   21357   21375       4   21369   21387
   21405       8   21369   21387   21408       8   21363   21381   21393      10
   21363   21384   21399      10   21360   21348   21366       4   21351   21333
   21354       4   21348   21360   21378       4   21342   21327   21345      10
   21342   21360   21378      10   21336   21357   21375       4   21333   21351
   21372       4   21330   21348   21366       4   21321   21333   21354       4
   21318   21327   21345       4   21690   21681   21693       1   21687   21681
   21690       1   21687   21681   21693       1   21681   21669   21684       2
   21678   21669   21681       2   21678   21669   21684       1   21672   21666
   21675       1   21669   21666   21672       2   21669   21666   21675       2
   21669   21681   21687       2   21669   21681   21690       2   21669   21681
   21693       2   21666   21669   21678       2   21666   21669   21684       2
   21663   21651   21666       2   21660   21651   21663       1   21660   21651
   21666       2   21654   21642   21657       1   21651   21642   21654       2
   21651   21642   21657       2   21651   21666   21672       2   21651   21666
   21675       2   21645   21633   21648       1   21642   21633   21645       2
   21642   21633   21648       2   21642   21651   21660       2   21642   21651
   21663       2   21636   21624   21639       1   21633   21624   21636       2
   21633   21624   21639       2   21633   21642   21654       2   21633   21642
   21657       2   21627   21612   21630       1   21624   21612   21627       2
   21624   21612   21630       2   21624   21633   21645       2   21624   21633
   21648       2   21615   21594   21618       1   21612   21594   21615       2
   21612   21594   21618       2   21612   21624   21636       2   21612   21624
   21639       2   21603   21582   21606       4   21603   21588   21609       4
   21597   21579   21600       1   21594   21579   21597       2   21594   21579
   21600       2   21594   21612   21627       2   21594   21612   21630       2
   21588   21576   21591       4   21588   21603   21621       4   21582   21573
   21585       4   21582   21603   21621       4   21579   21594   21615       2
   21579   21594   21618       2   21576   21588   21609       4   21573   21582
   21606       4   21561   21543   21564       4   21561   21549   21567       4
   21561   21579   21597       8   21561   21579   21600       8   21555   21573
   21585      10   21555   21576   21591      10   21552   21540   21558       4
   21543   21525   21546       4   21540   21552   21570       4   21534   21519
   21537      10   21534   21552   21570      10   21528   21549   21567       4
   21525   21543   21564       4   21522   21540   21558       4   21513   21525
   21546       4   21510   21519   21537       4   21882   21873   21885       1
   21879   21873   21882       1   21879   21873   21885       1   21873   21861
   21876       2   21870   21861   21873       2   21870   21861   21876       1
   21864   21858   21867       1   21861   21858   21864       2   21861   21858
   21867       2   21861   21873   21879       2   21861   21873   21882       2
   21861   21873   21885       2   21858   21861   21870       2   21858   21861
   21876       2   21855   21843   21858       2   21852   21843   21855       1
   21852   21843   21858       2   21846   21834   21849       1   21843   21834
   21846       2   21843   21834   21849       2   21843   21858   21864       2
   21843   21858   21867       2   21837   21825   21840       1   21834   21825
   21837       2   21834   21825   21840       2   21834   21843   21852       2
   21834   21843   21855       2   21828   21816   21831       1   21825   21816
   21828       2   21825   21816   21831       2   21825   21834   21846       2
   21825   21834   21849       2   21819   21804   21822       1   21816   21804
   21819       2   21816   21804   21822       2   21816   21825   21837       2
   21816   21825   21840       2   21807   21786   21810       1   21804   21786
   21807       2   21804   21786   21810       2   21804   21816   21828       2
   21804   21816   21831       2   21795   21774   21798       4   21795   21780
   21801       4   21789   21771   21792       1   21786   21771   21789       2
   21786   21771   21792       2   21786   21804   21819       2   21786   21804
   21822       2   21780   21768   21783       4   21780   21795   21813       4
   21774   21765   21777       4   21774   21795   21813       4   21771   21786
   21807       2   21771   21786   21810       2   21768   21780   21801       4
   21765   21774   21798       4   21753   21735   21756       4   21753   21741
   21759       4   21753   21771   21789       8   21753   21771   21792       8
   21747   21765   21777      10   21747   21768   21783      10   21744   21732
   21750       4   21735   21717   21738       4   21732   21744   21762       4
   21726   21711   21729      10   21726   21744   21762      10   21720   21741
   21759       4   21717   21735   21756       4   21714   21732   21750       4
   21705   21717   21738       4   21702   21711   21729       4   22074   22065
   22077       1   22071   22065   22074       1   22071   22065   22077       1
   22065   22053   22068       2   22062   22053   22065       2   22062   22053
   22068       1   22056   22050   22059       1   22053   22050   22056       2
   22053   22050   22059       2   22053   22065   22071       2   22053   22065
   22074       2   22053   22065   22077       2   22050   22053   22062       2
   22050   22053   22068       2   22047   22035   22050       2   22044   22035
   22047       1   22044   22035   22050       2   22038   22026   22041       1
   22035   22026   22038       2   22035   22026   22041       2   22035   22050
   22056       2   22035   22050   22059       2   22029   22017   22032       1
   22026   22017   22029       2   22026   22017   22032       2   22026   22035
   22044       2   22026   22035   22047       2   22020   22008   22023       1
   22017   22008   22020       2   22017   22008   22023       2   22017   22026
   22038       2   22017   22026   22041       2   22011   21996   22014       1
   22008   21996   22011       2   22008   21996   22014       2   22008   22017
   22029       2   22008   22017   22032       2   21999   21978   22002       1
   21996   21978   21999       2   21996   21978   22002       2   21996   22008
   22020       2   21996   22008   22023       2   21987   21966   21990       4
   21987   21972   21993       4   21981   21963   21984       1   21978   21963
   21981       2   21978   21963   21984       2   21978   21996   22011       2
   21978   21996   22014       2   21972   21960   21975       4   21972   21987
   22005       4   21966   21957   21969       4   21966   21987   22005       4
   21963   21978   21999       2   21963   21978   22002       2   21960   21972
   21993       4   21957   21966   21990       4   21945   21927   21948       4
   21945   21933   21951       4   21945   21963   21981       8   21945   21963
   21984       8   21939   21957   21969      10   21939   21960   21975      10
   21936   21924   21942       4   21927   21909   21930       4   21924   21936
   21954       4   21918   21903   21921      10   21918   21936   21954      10
   21912   21933   21951       4   21909   21927   21948       4   21906   21924
   21942       4   21897   21909   21930       4   21894   21903   21921       4
   22266   22257   22269       1   22263   22257   22266       1   22263   22257
   22269       1   22257   22245   22260       2   22254   22245   22257       2
   22254   22245   22260       1   22248   22242   22251       1   22245   22242
   22248       2   22245   22242   22251       2   22245   22257   22263       2
   22245   22257   22266       2   22245   22257   22269       2   22242   22245
   22254       2   22242   22245   22260       2   22239   22227   22242       2
   22236   22227   22239       1   22236   22227   22242       2   22230   22218
   22233       1   22227   22218   22230       2   22227   22218   22233       2
   22227   22242   22248       2   22227   22242   22251       2   22221   22209
   22224       1   22218   22209   22221       2   22218   22209   22224       2
   22218   22227   22236       2   22218   22227   22239       2   22212   22200
   22215       1   22209   22200   22212       2   22209   22200   22215       2
   22209   22218   22230       2   22209   22218   22233       2   22203   22188
   22206       1   22200   22188   22203       2   22200   22188   22206       2
   22200   22209   22221       2   22200   22209   22224       2   22191   22170
   22194       1   22188   22170   22191       2   22188   22170   22194       2
   22188   22200   22212       2   22188   22200   22215       2   22179   22158
   22182       4   22179   22164   22185       4   22173   22155   22176       1
   22170   22155   22173       2   22170   22155   22176       2   22170   22188
   22203       2   22170   22188   22206       2   22164   22152   22167       4
   22164   22179   22197       4   22158   22149   22161       4   22158   22179
   22197       4   22155   22170   22191       2   22155   22170   22194       2
   22152   22164   22185       4   22149   22158   22182       4   22137   22119
   22140       4   22137   22125   22143       4   22137   22155   22173       8
   22137   22155   22176       8   22131   22149   22161      10   22131   22152
   22167      10   22128   22116   22134       4   22119   22101   22122       4
   22116   22128   22146       4   22110   22095   22113      10   22110   22128
   22146      10   22104   22125   22143       4   22101   22119   22140       4
   22098   22116   22134       4   22089   22101   22122       4   22086   22095
   22113       4   22458   22449   22461       1   22455   22449   22458       1
   22455   22449   22461       1   22449   22437   22452       2   22446   22437
   22449       2   22446   22437   22452       1   22440   22434   22443       1
   22437   22434   22440       2   22437   22434   22443       2   22437   22449
   22455       2   22437   22449   22458       2   22437   22449   22461       2
   22434   22437   22446       2   22434   22437   22452       2   22431   22419
   22434       2   22428   22419   22431       1   22428   22419   22434       2
   22422   22410   22425       1   22419   22410   22422       2   22419   22410
   22425       2   22419   22434   22440       2   22419   22434   22443       2
   22413   22401   22416       1   22410   22401   22413       2   22410   22401
   22416       2   22410   22419   22428       2   22410   22419   22431       2
   22404   22392   22407       1   22401   22392   22404       2   22401   22392
   22407       2   22401   22410   22422       2   22401   22410   22425       2
   22395   22380   22398       1   22392   22380   22395       2   22392   22380
   22398       2   22392   22401   22413       2   22392   22401   22416       2
   22383   22362   22386       1   22380   22362   22383       2   22380   22362
   22386       2   22380   22392   22404       2   22380   22392   22407       2
   22371   22350   22374       4   22371   22356   22377       4   22365   22347
   22368       1   22362   22347   22365       2   22362   22347   22368       2
   22362   22380   22395       2   22362   22380   22398       2   22356   22344
   22359       4   22356   22371   22389       4   22350   22341   22353       4
   22350   22371   22389       4   22347   22362   22383       2   22347   22362
   22386       2   22344   22356   22377       4   22341   22350   22374       4
   22329   22311   22332       4   22329   22317   22335       4   22329   22347
   22365       8   22329   22347   22368       8   22323   22341   22353      10
   22323   22344   22359      10   22320   22308   22326       4   22311   22293
   22314       4   22308   22320   22338       4   22302   22287   22305      10
   22302   22320   22338      10   22296   22317   22335       4   22293   22311
   22332       4   22290   22308   22326       4   22281   22293   22314       4
   22278   22287   22305       4   22650   22641   22653       1   22647   22641
   22650       1   22647   22641   22653       1   22641   22629   22644       2
   22638   22629   22641       2   22638   22629   22644       1   22632   22626
   22635       1   22629   22626   22632       2   22629   22626   22635       2
   22629   22641   22647       2   22629   22641   22650       2   22629   22641
   22653       2   22626   22629   22638       2   22626   22629   22644       2
   22623   22611   22626       2   22620   22611   22623       1   22620   22611
   22626       2   22614   22602   22617       1   22611   22602   22614       2
   22611   22602   22617       2   22611   22626   22632       2   22611   22626
   22635       2   22605   22593   22608       1   22602   22593   22605       2
   22602   22593   22608       2   22602   22611   22620       2   22602   22611
   22623       2   22596   22584   22599       1   22593   22584   22596       2
   22593   22584   22599       2   22593   22602   22614       2   22593   22602
   22617       2   22587   22572   22590       1   22584   22572   22587       2
   22584   22572   22590       2   22584   22593   22605       2   22584   22593
   22608       2   22575   22554   22578       1   22572   22554   22575       2
   22572   22554   22578       2   22572   22584   22596       2   22572   22584
   22599       2   22563   22542   22566       4   22563   22548   22569       4
   22557   22539   22560       1   22554   22539   22557       2   22554   22539
   22560       2   22554   22572   22587       2   22554   22572   22590       2
   22548   22536   22551       4   22548   22563   22581       4   22542   22533
   22545       4   22542   22563   22581       4   22539   22554   22575       2
   22539   22554   22578       2   22536   22548   22569       4   22533   22542
   22566       4   22521   22503   22524       4   22521   22509   22527       4
   22521   22539   22557       8   22521   22539   22560       8   22515   22533
   22545      10   22515   22536   22551      10   22512   22500   22518       4
   22503   22485   22506       4   22500   22512   22530       4   22494   22479
   22497      10   22494   22512   22530      10   22488   22509   22527       4
   22485   22503   22524       4   22482   22500   22518       4   22473   22485
   22506       4   22470   22479   22497       4   22842   22833   22845       1
   22839   22833   22842       1   22839   22833   22845       1   22833   22821
   22836       2   22830   22821   22833       2   22830   22821   22836       1
   22824   22818   22827       1   22821   22818   22824       2   22821   22818
   22827       2   22821   22833   22839       2   22821   22833   22842       2
   22821   22833   22845       2   22818   22821   22830       2   22818   22821
   22836       2   22815   22803   22818       2   22812   22803   22815       1
   22812   22803   22818       2   22806   22794   22809       1   22803   22794
   22806       2   22803   22794   22809       2   22803   22818   22824       2
   22803   22818   22827       2   22797   22785   22800       1   22794   22785
   22797       2   22794   22785   22800       2   22794   22803   22812       2
   22794   22803   22815       2   22788   22776   22791       1   22785   22776
   22788       2   22785   22776   22791       2   22785   22794   22806       2
   22785   22794   22809       2   22779   22764   22782       1   22776   22764
   22779       2   22776   22764   22782       2   22776   22785   22797       2
   22776   22785   22800       2   22767   22746   22770       1   22764   22746
   22767       2   22764   22746   22770       2   22764   22776   22788       2
   22764   22776   22791       2   22755   22734   22758       4   22755   22740
   22761       4   22749   22731   22752       1   22746   22731   22749       2
   22746   22731   22752       2   22746   22764   22779       2   22746   22764
   22782       2   22740   22728   22743       4   22740   22755   22773       4
   22734   22725   22737       4   22734   22755   22773       4   22731   22746
   22767       2   22731   22746   22770       2   22728   22740   22761       4
   22725   22734   22758       4   22713   22695   22716       4   22713   22701
   22719       4   22713   22731   22749       8   22713   22731   22752       8
   22707   22725   22737      10   22707   22728   22743      10   22704   22692
   22710       4   22695   22677   22698       4   22692   22704   22722       4
   22686   22671   22689      10   22686   22704   22722      10   22680   22701
   22719       4   22677   22695   22716       4   22674   22692   22710       4
   22665   22677   22698       4   22662   22671   22689       4   23034   23025
   23037       1   23031   23025   23034       1   23031   23025   23037       1
   23025   23013   23028       2   23022   23013   23025       2   23022   23013
   23028       1   23016   23010   23019       1   23013   23010   23016       2
   23013   23010   23019       2   23013   23025   23031       2   23013   23025
   23034       2   23013   23025   23037       2   23010   23013   23022       2
   23010   23013   23028       2   23007   22995   23010       2   23004   22995
   23007       1   23004   22995   23010       2   22998   22986   23001       1
   22995   22986   22998       2   22995   22986   23001       2   22995   23010
   23016       2   22995   23010   23019       2   22989   22977   22992       1
   22986   22977   22989       2   22986   22977   22992       2   22986   22995
   23004       2   22986   22995   23007       2   22980   22968   22983       1
   22977   22968   22980       2   22977   22968   22983       2   22977   22986
   22998       2   22977   22986   23001       2   22971   22956   22974       1
   22968   22956   22971       2   22968   22956   22974       2   22968   22977
   22989       2   22968   22977   22992       2   22959   22938   22962       1
   22956   22938   22959       2   22956   22938   22962       2   22956   22968
   22980       2   22956   22968   22983       2   22947   22926   22950       4
   22947   22932   22953       4   22941   22923   22944       1   22938   22923
   22941       2   22938   22923   22944       2   22938   22956   22971       2
   22938   22956   22974       2   22932   22920   22935       4   22932   22947
   22965       4   22926   22917   22929       4   22926   22947   22965       4
   22923   22938   22959       2   22923   22938   22962       2   22920   22932
   22953       4   22917   22926   22950       4   22905   22887   22908       4
   22905   22893   22911       4   22905   22923   22941       8   22905   22923
   22944       8   22899   22917   22929      10   22899   22920   22935      10
   22896   22884   22902       4   22887   22869   22890       4   22884   22896
   22914       4   22878   22863   22881      10   22878   22896   22914      10
   22872   22893   22911       4   22869   22887   22908       4   22866   22884
   22902       4   22857   22869   22890       4   22854   22863   22881       4
   23226   23217   23229       1   23223   23217   23226       1   23223   23217
   23229       1   23217   23205   23220       2   23214   23205   23217       2
   23214   23205   23220       1   23208   23202   23211       1   23205   23202
   23208       2   23205   23202   23211       2   23205   23217   23223       2
   23205   23217   23226       2   23205   23217   23229       2   23202   23205
   23214       2   23202   23205   23220       2   23199   23187   23202       2
   23196   23187   23199       1   23196   23187   23202       2   23190   23178
   23193       1   23187   23178   23190       2   23187   23178   23193       2
   23187   23202   23208       2   23187   23202   23211       2   23181   23169
   23184       1   23178   23169   23181       2   23178   23169   23184       2
   23178   23187   23196       2   23178   23187   23199       2   23172   23160
   23175       1   23169   23160   23172       2   23169   23160   23175       2
   23169   23178   23190       2   23169   23178   23193       2   23163   23148
   23166       1   23160   23148   23163       2   23160   23148   23166       2
   23160   23169   23181       2   23160   23169   23184       2   23151   23130
   23154       1   23148   23130   23151       2   23148   23130   23154       2
   23148   23160   23172       2   23148   23160   23175       2   23139   23118
   23142       4   23139   23124   23145       4   23133   23115   23136       1
   23130   23115   23133       2   23130   23115   23136       2   23130   23148
   23163       2   23130   23148   23166       2   23124   23112   23127       4
   23124   23139   23157       4   23118   23109   23121       4   23118   23139
   23157       4   23115   23130   23151       2   23115   23130   23154       2
   23112   23124   23145       4   23109   23118   23142       4   23097   23079
   23100       4   23097   23085   23103       4   23097   23115   23133       8
   23097   23115   23136       8   23091   23109   23121      10   23091   23112
   23127      10   23088   23076   23094       4   23079   23061   23082       4
   23076   23088   23106       4   23070   23055   23073      10   23070   23088
   23106      10   23064   23085   23103       4   23061   23079   23100       4
   23058   23076   23094       4   23049   23061   23082       4   23046   23055
   23073       4   23418   23409   23421       1   23415   23409   23418       1
   23415   23409   23421       1   23409   23397   23412       2   23406   23397
   23409       2   23406   23397   23412       1   23400   23394   23403       1
   23397   23394   23400       2   23397   23394   23403       2   23397   23409
   23415       2   23397   23409   23418       2   23397   23409   23421       2
   23394   23397   23406       2   23394   23397   23412       2   23391   23379
   23394       2   23388   23379   23391       1   23388   23379   23394       2
   23382   23370   23385       1   23379   23370   23382       2   23379   23370
   23385       2   23379   23394   23400       2   23379   23394   23403       2
   23373   23361   23376       1   23370   23361   23373       2   23370   23361
   23376       2   23370   23379   23388       2   23370   23379   23391       2
   23364   23352   23367       1   23361   23352   23364       2   23361   23352
   23367       2   23361   23370   23382       2   23361   23370   23385       2
   23355   23340   23358       1   23352   23340   23355       2   23352   23340
   23358       2   23352   23361   23373       2   23352   23361   23376       2
   23343   23322   23346       1   23340   23322   23343       2   23340   23322
   23346       2   23340   23352   23364       2   23340   23352   23367       2
   23331   23310   23334       4   23331   23316   23337       4   23325   23307
   23328       1   23322   23307   23325       2   23322   23307   23328       2
   23322   23340   23355       2   23322   23340   23358       2   23316   23304
   23319       4   23316   23331   23349       4   23310   23301   23313       4
   23310   23331   23349       4   23307   23322   23343       2   23307   23322
   23346       2   23304   23316   23337       4   23301   23310   23334       4
   23289   23271   23292       4   23289   23277   23295       4   23289   23307
   23325       8   23289   23307   23328       8   23283   23301   23313      10
   23283   23304   23319      10   23280   23268   23286       4   23271   23253
   23274       4   23268   23280   23298       4   23262   23247   23265      10
   23262   23280   23298      10   23256   23277   23295       4   23253   23271
   23292       4   23250   23268   23286       4   23241   23253   23274       4
   23238   23247   23265       4   23610   23601   23613       1   23607   23601
   23610       1   23607   23601   23613       1   23601   23589   23604       2
   23598   23589   23601       2   23598   23589   23604       1   23592   23586
   23595       1   23589   23586   23592       2   23589   23586   23595       2
   23589   23601   23607       2   23589   23601   23610       2   23589   23601
   23613       2   23586   23589   23598       2   23586   23589   23604       2
   23583   23571   23586       2   23580   23571   23583       1   23580   23571
   23586       2   23574   23562   23577       1   23571   23562   23574       2
   23571   23562   23577       2   23571   23586   23592       2   23571   23586
   23595       2   23565   23553   23568       1   23562   23553   23565       2
   23562   23553   23568       2   23562   23571   23580       2   23562   23571
   23583       2   23556   23544   23559       1   23553   23544   23556       2
   23553   23544   23559       2   23553   23562   23574       2   23553   23562
   23577       2   23547   23532   23550       1   23544   23532   23547       2
   23544   23532   23550       2   23544   23553   23565       2   23544   23553
   23568       2   23535   23514   23538       1   23532   23514   23535       2
   23532   23514   23538       2   23532   23544   23556       2   23532   23544
   23559       2   23523   23502   23526       4   23523   23508   23529       4
   23517   23499   23520       1   23514   23499   23517       2   23514   23499
   23520       2   23514   23532   23547       2   23514   23532   23550       2
   23508   23496   23511       4   23508   23523   23541       4   23502   23493
   23505       4   23502   23523   23541       4   23499   23514   23535       2
   23499   23514   23538       2   23496   23508   23529       4   23493   23502
   23526       4   23481   23463   23484       4   23481   23469   23487       4
   23481   23499   23517       8   23481   23499   23520       8   23475   23493
   23505      10   23475   23496   23511      10   23472   23460   23478       4
   23463   23445   23466       4   23460   23472   23490       4   23454   23439
   23457      10   23454   23472   23490      10   23448   23469   23487       4
   23445   23463   23484       4   23442   23460   23478       4   23433   23445
   23466       4   23430   23439   23457       4   23802   23793   23805       1
   23799   23793   23802       1   23799   23793   23805       1   23793   23781
   23796       2   23790   23781   23793       2   23790   23781   23796       1
   23784   23778   23787       1   23781   23778   23784       2   23781   23778
   23787       2   23781   23793   23799       2   23781   23793   23802       2
   23781   23793   23805       2   23778   23781   23790       2   23778   23781
   23796       2   23775   23763   23778       2   23772   23763   23775       1
   23772   23763   23778       2   23766   23754   23769       1   23763   23754
   23766       2   23763   23754   23769       2   23763   23778   23784       2
   23763   23778   23787       2   23757   23745   23760       1   23754   23745
   23757       2   23754   23745   23760       2   23754   23763   23772       2
   23754   23763   23775       2   23748   23736   23751       1   23745   23736
   23748       2   23745   23736   23751       2   23745   23754   23766       2
   23745   23754   23769       2   23739   23724   23742       1   23736   23724
   23739       2   23736   23724   23742       2   23736   23745   23757       2
   23736   23745   23760       2   23727   23706   23730       1   23724   23706
   23727       2   23724   23706   23730       2   23724   23736   23748       2
   23724   23736   23751       2   23715   23694   23718       4   23715   23700
   23721       4   23709   23691   23712       1   23706   23691   23709       2
   23706   23691   23712       2   23706   23724   23739       2   23706   23724
   23742       2   23700   23688   23703       4   23700   23715   23733       4
   23694   23685   23697       4   23694   23715   23733       4   23691   23706
   23727       2   23691   23706   23730       2   23688   23700   23721       4
   23685   23694   23718       4   23673   23655   23676       4   23673   23661
   23679       4   23673   23691   23709       8   23673   23691   23712       8
   23667   23685   23697      10   23667   23688   23703      10   23664   23652
   23670       4   23655   23637   23658       4   23652   23664   23682       4
   23646   23631   23649      10   23646   23664   23682      10   23640   23661
   23679       4   23637   23655   23676       4   23634   23652   23670       4
   23625   23637   23658       4   23622   23631   23649       4   23994   23985
   23997       1   23991   23985   23994       1   23991   23985   23997       1
   23985   23973   23988       2   23982   23973   23985       2   23982   23973
   23988       1   23976   23970   23979       1   23973   23970   23976       2
   23973   23970   23979       2   23973   23985   23991       2   23973   23985
   23994       2   23973   23985   23997       2   23970   23973   23982       2
   23970   23973   23988       2   23967   23955   23970       2   23964   23955
   23967       1   23964   23955   23970       2   23958   23946   23961       1
   23955   23946   23958       2   23955   23946   23961       2   23955   23970
   23976       2   23955   23970   23979       2   23949   23937   23952       1
   23946   23937   23949       2   23946   23937   23952       2   23946   23955
   23964       2   23946   23955   23967       2   23940   23928   23943       1
   23937   23928   23940       2   23937   23928   23943       2   23937   23946
   23958       2   23937   23946   23961       2   23931   23916   23934       1
   23928   23916   23931       2   23928   23916   23934       2   23928   23937
   23949       2   23928   23937   23952       2   23919   23898   23922       1
   23916   23898   23919       2   23916   23898   23922       2   23916   23928
   23940       2   23916   23928   23943       2   23907   23886   23910       4
   23907   23892   23913       4   23901   23883   23904       1   23898   23883
   23901       2   23898   23883   23904       2   23898   23916   23931       2
   23898   23916   23934       2   23892   23880   23895       4   23892   23907
   23925       4   23886   23877   23889       4   23886   23907   23925       4
   23883   23898   23919       2   23883   23898   23922       2   23880   23892
   23913       4   23877   23886   23910       4   23865   23847   23868       4
   23865   23853   23871       4   23865   23883   23901       8   23865   23883
   23904       8   23859   23877   23889      10   23859   23880   23895      10
   23856   23844   23862       4   23847   23829   23850       4   23844   23856
   23874       4   23838   23823   23841      10   23838   23856   23874      10
   23832   23853   23871       4   23829   23847   23868       4   23826   23844
   23862       4   23817   23829   23850       4   23814   23823   23841       4
   24186   24177   24189       1   24183   24177   24186       1   24183   24177
   24189       1   24177   24165   24180       2   24174   24165   24177       2
   24174   24165   24180       1   24168   24162   24171       1   24165   24162
   24168       2   24165   24162   24171       2   24165   24177   24183       2
   24165   24177   24186       2   24165   24177   24189       2   24162   24165
   24174       2   24162   24165   24180       2   24159   24147   24162       2
   24156   24147   24159       1   24156   24147   24162       2   24150   24138
   24153       1   24147   24138   24150       2   24147   24138   24153       2
   24147   24162   24168       2   24147   24162   24171       2   24141   24129
   24144       1   24138   24129   24141       2   24138   24129   24144       2
   24138   24147   24156       2   24138   24147   24159       2   24132   24120
   24135       1   24129   24120   24132       2   24129   24120   24135       2
   24129   24138   24150       2   24129   24138   24153       2   24123   24108
   24126       1   24120   24108   24123       2   24120   24108   24126       2
   24120   24129   24141       2   24120   24129   24144       2   24111   24090
   24114       1   24108   24090   24111       2   24108   24090   24114       2
   24108   24120   24132       2   24108   24120   24135       2   24099   24078
   24102       4   24099   24084   24105       4   24093   24075   24096       1
   24090   24075   24093       2   24090   24075   24096       2   24090   24108
   24123       2   24090   24108   24126       2   24084   24072   24087       4
   24084   24099   24117       4   24078   24069   24081       4   24078   24099
   24117       4   24075   24090   24111       2   24075   24090   24114       2
   24072   24084   24105       4   24069   24078   24102       4   24057   24039
   24060       4   24057   24045   24063       4   24057   24075   24093       8
   24057   24075   24096       8   24051   24069   24081      10   24051   24072
   24087      10   24048   24036   24054       4   24039   24021   24042       4
   24036   24048   24066       4   24030   24015   24033      10   24030   24048
   24066      10   24024   24045   24063       4   24021   24039   24060       4
   24018   24036   24054       4   24009   24021   24042       4   24006   24015
   24033       4   24378   24369   24381       1   24375   24369   24378       1
   24375   24369   24381       1   24369   24357   24372       2   24366   24357
   24369       2   24366   24357   24372       1   24360   24354   24363       1
   24357   24354   24360       2   24357   24354   24363       2   24357   24369
   24375       2   24357   24369   24378       2   24357   24369   24381       2
   24354   24357   24366       2   24354   24357   24372       2   24351   24339
   24354       2   24348   24339   24351       1   24348   24339   24354       2
   24342   24330   24345       1   24339   24330   24342       2   24339   24330
   24345       2   24339   24354   24360       2   24339   24354   24363       2
   24333   24321   24336       1   24330   24321   24333       2   24330   24321
   24336       2   24330   24339   24348       2   24330   24339   24351       2
   24324   24312   24327       1   24321   24312   24324       2   24321   24312
   24327       2   24321   24330   24342       2   24321   24330   24345       2
   24315   24300   24318       1   24312   24300   24315       2   24312   24300
   24318       2   24312   24321   24333       2   24312   24321   24336       2
   24303   24282   24306       1   24300   24282   24303       2   24300   24282
   24306       2   24300   24312   24324       2   24300   24312   24327       2
   24291   24270   24294       4   24291   24276   24297       4   24285   24267
   24288       1   24282   24267   24285       2   24282   24267   24288       2
   24282   24300   24315       2   24282   24300   24318       2   24276   24264
   24279       4   24276   24291   24309       4   24270   24261   24273       4
   24270   24291   24309       4   24267   24282   24303       2   24267   24282
   24306       2   24264   24276   24297       4   24261   24270   24294       4
   24249   24231   24252       4   24249   24237   24255       4   24249   24267
   24285       8   24249   24267   24288       8   24243   24261   24273      10
   24243   24264   24279      10   24240   24228   24246       4   24231   24213
   24234       4   24228   24240   24258       4   24222   24207   24225      10
   24222   24240   24258      10   24216   24237   24255       4   24213   24231
   24252       4   24210   24228   24246       4   24201   24213   24234       4
   24198   24207   24225       4   24570   24561   24573       1   24567   24561
   24570       1   24567   24561   24573       1   24561   24549   24564       2
   24558   24549   24561       2   24558   24549   24564       1   24552   24546
   24555       1   24549   24546   24552       2   24549   24546   24555       2
   24549   24561   24567       2   24549   24561   24570       2   24549   24561
   24573       2   24546   24549   24558       2   24546   24549   24564       2
   24543   24531   24546       2   24540   24531   24543       1   24540   24531
   24546       2   24534   24522   24537       1   24531   24522   24534       2
   24531   24522   24537       2   24531   24546   24552       2   24531   24546
   24555       2   24525   24513   24528       1   24522   24513   24525       2
   24522   24513   24528       2   24522   24531   24540       2   24522   24531
   24543       2   24516   24504   24519       1   24513   24504   24516       2
   24513   24504   24519       2   24513   24522   24534       2   24513   24522
   24537       2   24507   24492   24510       1   24504   24492   24507       2
   24504   24492   24510       2   24504   24513   24525       2   24504   24513
   24528       2   24495   24474   24498       1   24492   24474   24495       2
   24492   24474   24498       2   24492   24504   24516       2   24492   24504
   24519       2   24483   24462   24486       4   24483   24468   24489       4
   24477   24459   24480       1   24474   24459   24477       2   24474   24459
   24480       2   24474   24492   24507       2   24474   24492   24510       2
   24468   24456   24471       4   24468   24483   24501       4   24462   24453
   24465       4   24462   24483   24501       4   24459   24474   24495       2
   24459   24474   24498       2   24456   24468   24489       4   24453   24462
   24486       4   24441   24423   24444       4   24441   24429   24447       4
   24441   24459   24477       8   24441   24459   24480       8   24435   24453
   24465      10   24435   24456   24471      10   24432   24420   24438       4
   24423   24405   24426       4   24420   24432   24450       4   24414   24399
   24417      10   24414   24432   24450      10   24408   24429   24447       4
   24405   24423   24444       4   24402   24420   24438       4   24393   24405
   24426       4   24390   24399   24417       4   24762   24753   24765       1
   24759   24753   24762       1   24759   24753   24765       1   24753   24741
   24756       2   24750   24741   24753       2   24750   24741   24756       1
   24744   24738   24747       1   24741   24738   24744       2   24741   24738
   24747       2   24741   24753   24759       2   24741   24753   24762       2
   24741   24753   24765       2   24738   24741   24750       2   24738   24741
   24756       2   24735   24723   24738       2   24732   24723   24735       1
   24732   24723   24738       2   24726   24714   24729       1   24723   24714
   24726       2   24723   24714   24729       2   24723   24738   24744       2
   24723   24738   24747       2   24717   24705   24720       1   24714   24705
   24717       2   24714   24705   24720       2   24714   24723   24732       2
   24714   24723   24735       2   24708   24696   24711       1   24705   24696
   24708       2   24705   24696   24711       2   24705   24714   24726       2
   24705   24714   24729       2   24699   24684   24702       1   24696   24684
   24699       2   24696   24684   24702       2   24696   24705   24717       2
   24696   24705   24720       2   24687   24666   24690       1   24684   24666
   24687       2   24684   24666   24690       2   24684   24696   24708       2
   24684   24696   24711       2   24675   24654   24678       4   24675   24660
   24681       4   24669   24651   24672       1   24666   24651   24669       2
   24666   24651   24672       2   24666   24684   24699       2   24666   24684
   24702       2   24660   24648   24663       4   24660   24675   24693       4
   24654   24645   24657       4   24654   24675   24693       4   24651   24666
   24687       2   24651   24666   24690       2   24648   24660   24681       4
   24645   24654   24678       4   24633   24615   24636       4   24633   24621
   24639       4   24633   24651   24669       8   24633   24651   24672       8
   24627   24645   24657      10   24627   24648   24663      10   24624   24612
   24630       4   24615   24597   24618       4   24612   24624   24642       4
   24606   24591   24609      10   24606   24624   24642      10   24600   24621
   24639       4   24597   24615   24636       4   24594   24612   24630       4
   24585   24597   24618       4   24582   24591   24609       4   24954   24945
   24957       1   24951   24945   24954       1   24951   24945   24957       1
   24945   24933   24948       2   24942   24933   24945       2   24942   24933
   24948       1   24936   24930   24939       1   24933   24930   24936       2
   24933   24930   24939       2   24933   24945   24951       2   24933   24945
   24954       2   24933   24945   24957       2   24930   24933   24942       2
   24930   24933   24948       2   24927   24915   24930       2   24924   24915
   24927       1   24924   24915   24930       2   24918   24906   24921       1
   24915   24906   24918       2   24915   24906   24921       2   24915   24930
   24936       2   24915   24930   24939       2   24909   24897   24912       1
   24906   24897   24909       2   24906   24897   24912       2   24906   24915
   24924       2   24906   24915   24927       2   24900   24888   24903       1
   24897   24888   24900       2   24897   24888   24903       2   24897   24906
   24918       2   24897   24906   24921       2   24891   24876   24894       1
   24888   24876   24891       2   24888   24876   24894       2   24888   24897
   24909       2   24888   24897   24912       2   24879   24858   24882       1
   24876   24858   24879       2   24876   24858   24882       2   24876   24888
   24900       2   24876   24888   24903       2   24867   24846   24870       4
   24867   24852   24873       4   24861   24843   24864       1   24858   24843
   24861       2   24858   24843   24864       2   24858   24876   24891       2
   24858   24876   24894       2   24852   24840   24855       4   24852   24867
   24885       4   24846   24837   24849       4   24846   24867   24885       4
   24843   24858   24879       2   24843   24858   24882       2   24840   24852
   24873       4   24837   24846   24870       4   24825   24807   24828       4
   24825   24813   24831       4   24825   24843   24861       8   24825   24843
   24864       8   24819   24837   24849      10   24819   24840   24855      10
   24816   24804   24822       4   24807   24789   24810       4   24804   24816
   24834       4   24798   24783   24801      10   24798   24816   24834      10
   24792   24813   24831       4   24789   24807   24828       4   24786   24804
   24822       4   24777   24789   24810       4   24774   24783   24801       4
   25146   25137   25149       1   25143   25137   25146       1   25143   25137
   25149       1   25137   25125   25140       2   25134   25125   25137       2
   25134   25125   25140       1   25128   25122   25131       1   25125   25122
   25128       2   25125   25122   25131       2   25125   25137   25143       2
   25125   25137   25146       2   25125   25137   25149       2   25122   25125
   25134       2   25122   25125   25140       2   25119   25107   25122       2
   25116   25107   25119       1   25116   25107   25122       2   25110   25098
   25113       1   25107   25098   25110       2   25107   25098   25113       2
   25107   25122   25128       2   25107   25122   25131       2   25101   25089
   25104       1   25098   25089   25101       2   25098   25089   25104       2
   25098   25107   25116       2   25098   25107   25119       2   25092   25080
   25095       1   25089   25080   25092       2   25089   25080   25095       2
   25089   25098   25110       2   25089   25098   25113       2   25083   25068
   25086       1   25080   25068   25083       2   25080   25068   25086       2
   25080   25089   25101       2   25080   25089   25104       2   25071   25050
   25074       1   25068   25050   25071       2   25068   25050   25074       2
   25068   25080   25092       2   25068   25080   25095       2   25059   25038
   25062       4   25059   25044   25065       4   25053   25035   25056       1
   25050   25035   25053       2   25050   25035   25056       2   25050   25068
   25083       2   25050   25068   25086       2   25044   25032   25047       4
   25044   25059   25077       4   25038   25029   25041       4   25038   25059
   25077       4   25035   25050   25071       2   25035   25050   25074       2
   25032   25044   25065       4   25029   25038   25062       4   25017   24999
   25020       4   25017   25005   25023       4   25017   25035   25053       8
   25017   25035   25056       8   25011   25029   25041      10   25011   25032
   25047      10   25008   24996   25014       4   24999   24981   25002       4
   24996   25008   25026       4   24990   24975   24993      10   24990   25008
   25026      10   24984   25005   25023       4   24981   24999   25020       4
   24978   24996   25014       4   24969   24981   25002       4   24966   24975
   24993       4   25338   25329   25341       1   25335   25329   25338       1
   25335   25329   25341       1   25329   25317   25332       2   25326   25317
   25329       2   25326   25317   25332       1   25320   25314   25323       1
   25317   25314   25320       2   25317   25314   25323       2   25317   25329
   25335       2   25317   25329   25338       2   25317   25329   25341       2
   25314   25317   25326       2   25314   25317   25332       2   25311   25299
   25314       2   25308   25299   25311       1   25308   25299   25314       2
   25302   25290   25305       1   25299   25290   25302       2   25299   25290
   25305       2   25299   25314   25320       2   25299   25314   25323       2
   25293   25281   25296       1   25290   25281   25293       2   25290   25281
   25296       2   25290   25299   25308       2   25290   25299   25311       2
   25284   25272   25287       1   25281   25272   25284       2   25281   25272
   25287       2   25281   25290   25302       2   25281   25290   25305       2
   25275   25260   25278       1   25272   25260   25275       2   25272   25260
   25278       2   25272   25281   25293       2   25272   25281   25296       2
   25263   25242   25266       1   25260   25242   25263       2   25260   25242
   25266       2   25260   25272   25284       2   25260   25272   25287       2
   25251   25230   25254       4   25251   25236   25257       4   25245   25227
   25248       1   25242   25227   25245       2   25242   25227   25248       2
   25242   25260   25275       2   25242   25260   25278       2   25236   25224
   25239       4   25236   25251   25269       4   25230   25221   25233       4
   25230   25251   25269       4   25227   25242   25263       2   25227   25242
   25266       2   25224   25236   25257       4   25221   25230   25254       4
   25209   25191   25212       4   25209   25197   25215       4   25209   25227
   25245       8   25209   25227   25248       8   25203   25221   25233      10
   25203   25224   25239      10   25200   25188   25206       4   25191   25173
   25194       4   25188   25200   25218       4   25182   25167   25185      10
   25182   25200   25218      10   25176   25197   25215       4   25173   25191
   25212       4   25170   25188   25206       4   25161   25173   25194       4
   25158   25167   25185       4   25530   25521   25533       1   25527   25521
   25530       1   25527   25521   25533       1   25521   25509   25524       2
   25518   25509   25521       2   25518   25509   25524       1   25512   25506
   25515       1   25509   25506   25512       2   25509   25506   25515       2
   25509   25521   25527       2   25509   25521   25530       2   25509   25521
   25533       2   25506   25509   25518       2   25506   25509   25524       2
   25503   25491   25506       2   25500   25491   25503       1   25500   25491
   25506       2   25494   25482   25497       1   25491   25482   25494       2
   25491   25482   25497       2   25491   25506   25512       2   25491   25506
   25515       2   25485   25473   25488       1   25482   25473   25485       2
   25482   25473   25488       2   25482   25491   25500       2   25482   25491
   25503       2   25476   25464   25479       1   25473   25464   25476       2
   25473   25464   25479       2   25473   25482   25494       2   25473   25482
   25497       2   25467   25452   25470       1   25464   25452   25467       2
   25464   25452   25470       2   25464   25473   25485       2   25464   25473
   25488       2   25455   25434   25458       1   25452   25434   25455       2
   25452   25434   25458       2   25452   25464   25476       2   25452   25464
   25479       2   25443   25422   25446       4   25443   25428   25449       4
   25437   25419   25440       1   25434   25419   25437       2   25434   25419
   25440       2   25434   25452   25467       2   25434   25452   25470       2
   25428   25416   25431       4   25428   25443   25461       4   25422   25413
   25425       4   25422   25443   25461       4   25419   25434   25455       2
   25419   25434   25458       2   25416   25428   25449       4   25413   25422
   25446       4   25401   25383   25404       4   25401   25389   25407       4
   25401   25419   25437       8   25401   25419   25440       8   25395   25413
   25425      10   25395   25416   25431      10   25392   25380   25398       4
   25383   25365   25386       4   25380   25392   25410       4   25374   25359
   25377      10   25374   25392   25410      10   25368   25389   25407       4
   25365   25383   25404       4   25362   25380   25398       4   25353   25365
   25386       4   25350   25359   25377       4   25722   25713   25725       1
   25719   25713   25722       1   25719   25713   25725       1   25713   25701
   25716       2   25710   25701   25713       2   25710   25701   25716       1
   25704   25698   25707       1   25701   25698   25704       2   25701   25698
   25707       2   25701   25713   25719       2   25701   25713   25722       2
   25701   25713   25725       2   25698   25701   25710       2   25698   25701
   25716       2   25695   25683   25698       2   25692   25683   25695       1
   25692   25683   25698       2   25686   25674   25689       1   25683   25674
   25686       2   25683   25674   25689       2   25683   25698   25704       2
   25683   25698   25707       2   25677   25665   25680       1   25674   25665
   25677       2   25674   25665   25680       2   25674   25683   25692       2
   25674   25683   25695       2   25668   25656   25671       1   25665   25656
   25668       2   25665   25656   25671       2   25665   25674   25686       2
   25665   25674   25689       2   25659   25644   25662       1   25656   25644
   25659       2   25656   25644   25662       2   25656   25665   25677       2
   25656   25665   25680       2   25647   25626   25650       1   25644   25626
   25647       2   25644   25626   25650       2   25644   25656   25668       2
   25644   25656   25671       2   25635   25614   25638       4   25635   25620
   25641       4   25629   25611   25632       1   25626   25611   25629       2
   25626   25611   25632       2   25626   25644   25659       2   25626   25644
   25662       2   25620   25608   25623       4   25620   25635   25653       4
   25614   25605   25617       4   25614   25635   25653       4   25611   25626
   25647       2   25611   25626   25650       2   25608   25620   25641       4
   25605   25614   25638       4   25593   25575   25596       4   25593   25581
   25599       4   25593   25611   25629       8   25593   25611   25632       8
   25587   25605   25617      10   25587   25608   25623      10   25584   25572
   25590       4   25575   25557   25578       4   25572   25584   25602       4
   25566   25551   25569      10   25566   25584   25602      10   25560   25581
   25599       4   25557   25575   25596       4   25554   25572   25590       4
   25545   25557   25578       4   25542   25551   25569       4   25914   25905
   25917       1   25911   25905   25914       1   25911   25905   25917       1
   25905   25893   25908       2   25902   25893   25905       2   25902   25893
   25908       1   25896   25890   25899       1   25893   25890   25896       2
   25893   25890   25899       2   25893   25905   25911       2   25893   25905
   25914       2   25893   25905   25917       2   25890   25893   25902       2
   25890   25893   25908       2   25887   25875   25890       2   25884   25875
   25887       1   25884   25875   25890       2   25878   25866   25881       1
   25875   25866   25878       2   25875   25866   25881       2   25875   25890
   25896       2   25875   25890   25899       2   25869   25857   25872       1
   25866   25857   25869       2   25866   25857   25872       2   25866   25875
   25884       2   25866   25875   25887       2   25860   25848   25863       1
   25857   25848   25860       2   25857   25848   25863       2   25857   25866
   25878       2   25857   25866   25881       2   25851   25836   25854       1
   25848   25836   25851       2   25848   25836   25854       2   25848   25857
   25869       2   25848   25857   25872       2   25839   25818   25842       1
   25836   25818   25839       2   25836   25818   25842       2   25836   25848
   25860       2   25836   25848   25863       2   25827   25806   25830       4
   25827   25812   25833       4   25821   25803   25824       1   25818   25803
   25821       2   25818   25803   25824       2   25818   25836   25851       2
   25818   25836   25854       2   25812   25800   25815       4   25812   25827
   25845       4   25806   25797   25809       4   25806   25827   25845       4
   25803   25818   25839       2   25803   25818   25842       2   25800   25812
   25833       4   25797   25806   25830       4   25785   25767   25788       4
   25785   25773   25791       4   25785   25803   25821       8   25785   25803
   25824       8   25779   25797   25809      10   25779   25800   25815      10
   25776   25764   25782       4   25767   25749   25770       4   25764   25776
   25794       4   25758   25743   25761      10   25758   25776   25794      10
   25752   25773   25791       4   25749   25767   25788       4   25746   25764
   25782       4   25737   25749   25770       4   25734   25743   25761       4
   26106   26097   26109       1   26103   26097   26106       1   26103   26097
   26109       1   26097   26085   26100       2   26094   26085   26097       2
   26094   26085   26100       1   26088   26082   26091       1   26085   26082
   26088       2   26085   26082   26091       2   26085   26097   26103       2
   26085   26097   26106       2   26085   26097   26109       2   26082   26085
   26094       2   26082   26085   26100       2   26079   26067   26082       2
   26076   26067   26079       1   26076   26067   26082       2   26070   26058
   26073       1   26067   26058   26070       2   26067   26058   26073       2
   26067   26082   26088       2   26067   26082   26091       2   26061   26049
   26064       1   26058   26049   26061       2   26058   26049   26064       2
   26058   26067   26076       2   26058   26067   26079       2   26052   26040
   26055       1   26049   26040   26052       2   26049   26040   26055       2
   26049   26058   26070       2   26049   26058   26073       2   26043   26028
   26046       1   26040   26028   26043       2   26040   26028   26046       2
   26040   26049   26061       2   26040   26049   26064       2   26031   26010
   26034       1   26028   26010   26031       2   26028   26010   26034       2
   26028   26040   26052       2   26028   26040   26055       2   26019   25998
   26022       4   26019   26004   26025       4   26013   25995   26016       1
   26010   25995   26013       2   26010   25995   26016       2   26010   26028
   26043       2   26010   26028   26046       2   26004   25992   26007       4
   26004   26019   26037       4   25998   25989   26001       4   25998   26019
   26037       4   25995   26010   26031       2   25995   26010   26034       2
   25992   26004   26025       4   25989   25998   26022       4   25977   25959
   25980       4   25977   25965   25983       4   25977   25995   26013       8
   25977   25995   26016       8   25971   25989   26001      10   25971   25992
   26007      10   25968   25956   25974       4   25959   25941   25962       4
   25956   25968   25986       4   25950   25935   25953      10   25950   25968
   25986      10   25944   25965   25983       4   25941   25959   25980       4
   25938   25956   25974       4   25929   25941   25962       4   25926   25935
   25953       4   26298   26289   26301       1   26295   26289   26298       1
   26295   26289   26301       1   26289   26277   26292       2   26286   26277
   26289       2   26286   26277   26292       1   26280   26274   26283       1
   26277   26274   26280       2   26277   26274   26283       2   26277   26289
   26295       2   26277   26289   26298       2   26277   26289   26301       2
   26274   26277   26286       2   26274   26277   26292       2   26271   26259
   26274       2   26268   26259   26271       1   26268   26259   26274       2
   26262   26250   26265       1   26259   26250   26262       2   26259   26250
   26265       2   26259   26274   26280       2   26259   26274   26283       2
   26253   26241   26256       1   26250   26241   26253       2   26250   26241
   26256       2   26250   26259   26268       2   26250   26259   26271       2
   26244   26232   26247       1   26241   26232   26244       2   26241   26232
   26247       2   26241   26250   26262       2   26241   26250   26265       2
   26235   26220   26238       1   26232   26220   26235       2   26232   26220
   26238       2   26232   26241   26253       2   26232   26241   26256       2
   26223   26202   26226       1   26220   26202   26223       2   26220   26202
   26226       2   26220   26232   26244       2   26220   26232   26247       2
   26211   26190   26214       4   26211   26196   26217       4   26205   26187
   26208       1   26202   26187   26205       2   26202   26187   26208       2
   26202   26220   26235       2   26202   26220   26238       2   26196   26184
   26199       4   26196   26211   26229       4   26190   26181   26193       4
   26190   26211   26229       4   26187   26202   26223       2   26187   26202
   26226       2   26184   26196   26217       4   26181   26190   26214       4
   26169   26151   26172       4   26169   26157   26175       4   26169   26187
   26205       8   26169   26187   26208       8   26163   26181   26193      10
   26163   26184   26199      10   26160   26148   26166       4   26151   26133
   26154       4   26148   26160   26178       4   26142   26127   26145      10
   26142   26160   26178      10   26136   26157   26175       4   26133   26151
   26172       4   26130   26148   26166       4   26121   26133   26154       4
   26118   26127   26145       4   26490   26481   26493       1   26487   26481
   26490       1   26487   26481   26493       1   26481   26469   26484       2
   26478   26469   26481       2   26478   26469   26484       1   26472   26466
   26475       1   26469   26466   26472       2   26469   26466   26475       2
   26469   26481   26487       2   26469   26481   26490       2   26469   26481
   26493       2   26466   26469   26478       2   26466   26469   26484       2
   26463   26451   26466       2   26460   26451   26463       1   26460   26451
   26466       2   26454   26442   26457       1   26451   26442   26454       2
   26451   26442   26457       2   26451   26466   26472       2   26451   26466
   26475       2   26445   26433   26448       1   26442   26433   26445       2
   26442   26433   26448       2   26442   26451   26460       2   26442   26451
   26463       2   26436   26424   26439       1   26433   26424   26436       2
   26433   26424   26439       2   26433   26442   26454       2   26433   26442
   26457       2   26427   26412   26430       1   26424   26412   26427       2
   26424   26412   26430       2   26424   26433   26445       2   26424   26433
   26448       2   26415   26394   26418       1   26412   26394   26415       2
   26412   26394   26418       2   26412   26424   26436       2   26412   26424
   26439       2   26403   26382   26406       4   26403   26388   26409       4
   26397   26379   26400       1   26394   26379   26397       2   26394   26379
   26400       2   26394   26412   26427       2   26394   26412   26430       2
   26388   26376   26391       4   26388   26403   26421       4   26382   26373
   26385       4   26382   26403   26421       4   26379   26394   26415       2
   26379   26394   26418       2   26376   26388   26409       4   26373   26382
   26406       4   26361   26343   26364       4   26361   26349   26367       4
   26361   26379   26397       8   26361   26379   26400       8   26355   26373
   26385      10   26355   26376   26391      10   26352   26340   26358       4
   26343   26325   26346       4   26340   26352   26370       4   26334   26319
   26337      10   26334   26352   26370      10   26328   26349   26367       4
   26325   26343   26364       4   26322   26340   26358       4   26313   26325
   26346       4   26310   26319   26337       4   26682   26673   26685       1
   26679   26673   26682       1   26679   26673   26685       1   26673   26661
   26676       2   26670   26661   26673       2   26670   26661   26676       1
   26664   26658   26667       1   26661   26658   26664       2   26661   26658
   26667       2   26661   26673   26679       2   26661   26673   26682       2
   26661   26673   26685       2   26658   26661   26670       2   26658   26661
   26676       2   26655   26643   26658       2   26652   26643   26655       1
   26652   26643   26658       2   26646   26634   26649       1   26643   26634
   26646       2   26643   26634   26649       2   26643   26658   26664       2
   26643   26658   26667       2   26637   26625   26640       1   26634   26625
   26637       2   26634   26625   26640       2   26634   26643   26652       2
   26634   26643   26655       2   26628   26616   26631       1   26625   26616
   26628       2   26625   26616   26631       2   26625   26634   26646       2
   26625   26634   26649       2   26619   26604   26622       1   26616   26604
   26619       2   26616   26604   26622       2   26616   26625   26637       2
   26616   26625   26640       2   26607   26586   26610       1   26604   26586
   26607       2   26604   26586   26610       2   26604   26616   26628       2
   26604   26616   26631       2   26595   26574   26598       4   26595   26580
   26601       4   26589   26571   26592       1   26586   26571   26589       2
   26586   26571   26592       2   26586   26604   26619       2   26586   26604
   26622       2   26580   26568   26583       4   26580   26595   26613       4
   26574   26565   26577       4   26574   26595   26613       4   26571   26586
   26607       2   26571   26586   26610       2   26568   26580   26601       4
   26565   26574   26598       4   26553   26535   26556       4   26553   26541
   26559       4   26553   26571   26589       8   26553   26571   26592       8
   26547   26565   26577      10   26547   26568   26583      10   26544   26532
   26550       4   26535   26517   26538       4   26532   26544   26562       4
   26526   26511   26529      10   26526   26544   26562      10   26520   26541
   26559       4   26517   26535   26556       4   26514   26532   26550       4
   26505   26517   26538       4   26502   26511   26529       4   26874   26865
   26877       1   26871   26865   26874       1   26871   26865   26877       1
   26865   26853   26868       2   26862   26853   26865       2   26862   26853
   26868       1   26856   26850   26859       1   26853   26850   26856       2
   26853   26850   26859       2   26853   26865   26871       2   26853   26865
   26874       2   26853   26865   26877       2   26850   26853   26862       2
   26850   26853   26868       2   26847   26835   26850       2   26844   26835
   26847       1   26844   26835   26850       2   26838   26826   26841       1
   26835   26826   26838       2   26835   26826   26841       2   26835   26850
   26856       2   26835   26850   26859       2   26829   26817   26832       1
   26826   26817   26829       2   26826   26817   26832       2   26826   26835
   26844       2   26826   26835   26847       2   26820   26808   26823       1
   26817   26808   26820       2   26817   26808   26823       2   26817   26826
   26838       2   26817   26826   26841       2   26811   26796   26814       1
   26808   26796   26811       2   26808   26796   26814       2   26808   26817
   26829       2   26808   26817   26832       2   26799   26778   26802       1
   26796   26778   26799       2   26796   26778   26802       2   26796   26808
   26820       2   26796   26808   26823       2   26787   26766   26790       4
   26787   26772   26793       4   26781   26763   26784       1   26778   26763
   26781       2   26778   26763   26784       2   26778   26796   26811       2
   26778   26796   26814       2   26772   26760   26775       4   26772   26787
   26805       4   26766   26757   26769       4   26766   26787   26805       4
   26763   26778   26799       2   26763   26778   26802       2   26760   26772
   26793       4   26757   26766   26790       4   26745   26727   26748       4
   26745   26733   26751       4   26745   26763   26781       8   26745   26763
   26784       8   26739   26757   26769      10   26739   26760   26775      10
   26736   26724   26742       4   26727   26709   26730       4   26724   26736
   26754       4   26718   26703   26721      10   26718   26736   26754      10
   26712   26733   26751       4   26709   26727   26748       4   26706   26724
   26742       4   26697   26709   26730       4   26694   26703   26721       4
   27066   27057   27069       1   27063   27057   27066       1   27063   27057
   27069       1   27057   27045   27060       2   27054   27045   27057       2
   27054   27045   27060       1   27048   27042   27051       1   27045   27042
   27048       2   27045   27042   27051       2   27045   27057   27063       2
   27045   27057   27066       2   27045   27057   27069       2   27042   27045
   27054       2   27042   27045   27060       2   27039   27027   27042       2
   27036   27027   27039       1   27036   27027   27042       2   27030   27018
   27033       1   27027   27018   27030       2   27027   27018   27033       2
   27027   27042   27048       2   27027   27042   27051       2   27021   27009
   27024       1   27018   27009   27021       2   27018   27009   27024       2
   27018   27027   27036       2   27018   27027   27039       2   27012   27000
   27015       1   27009   27000   27012       2   27009   27000   27015       2
   27009   27018   27030       2   27009   27018   27033       2   27003   26988
   27006       1   27000   26988   27003       2   27000   26988   27006       2
   27000   27009   27021       2   27000   27009   27024       2   26991   26970
   26994       1   26988   26970   26991       2   26988   26970   26994       2
   26988   27000   27012       2   26988   27000   27015       2   26979   26958
   26982       4   26979   26964   26985       4   26973   26955   26976       1
   26970   26955   26973       2   26970   26955   26976       2   26970   26988
   27003       2   26970   26988   27006       2   26964   26952   26967       4
   26964   26979   26997       4   26958   26949   26961       4   26958   26979
   26997       4   26955   26970   26991       2   26955   26970   26994       2
   26952   26964   26985       4   26949   26958   26982       4   26937   26919
   26940       4   26937   26925   26943       4   26937   26955   26973       8
   26937   26955   26976       8   26931   26949   26961      10   26931   26952
   26967      10   26928   26916   26934       4   26919   26901   26922       4
   26916   26928   26946       4   26910   26895   26913      10   26910   26928
   26946      10   26904   26925   26943       4   26901   26919   26940       4
   26898   26916   26934       4   26889   26901   26922       4   26886   26895
   26913       4   27258   27249   27261       1   27255   27249   27258       1
   27255   27249   27261       1   27249   27237   27252       2   27246   27237
   27249       2   27246   27237   27252       1   27240   27234   27243       1
   27237   27234   27240       2   27237   27234   27243       2   27237   27249
   27255       2   27237   27249   27258       2   27237   27249   27261       2
   27234   27237   27246       2   27234   27237   27252       2   27231   27219
   27234       2   27228   27219   27231       1   27228   27219   27234       2
   27222   27210   27225       1   27219   27210   27222       2   27219   27210
   27225       2   27219   27234   27240       2   27219   27234   27243       2
   27213   27201   27216       1   27210   27201   27213       2   27210   27201
   27216       2   27210   27219   27228       2   27210   27219   27231       2
   27204   27192   27207       1   27201   27192   27204       2   27201   27192
   27207       2   27201   27210   27222       2   27201   27210   27225       2
   27195   27180   27198       1   27192   27180   27195       2   27192   27180
   27198       2   27192   27201   27213       2   27192   27201   27216       2
   27183   27162   27186       1   27180   27162   27183       2   27180   27162
   27186       2   27180   27192   27204       2   27180   27192   27207       2
   27171   27150   27174       4   27171   27156   27177       4   27165   27147
   27168       1   27162   27147   27165       2   27162   27147   27168       2
   27162   27180   27195       2   27162   27180   27198       2   27156   27144
   27159       4   27156   27171   27189       4   27150   27141   27153       4
   27150   27171   27189       4   27147   27162   27183       2   27147   27162
   27186       2   27144   27156   27177       4   27141   27150   27174       4
   27129   27111   27132       4   27129   27117   27135       4   27129   27147
   27165       8   27129   27147   27168       8   27123   27141   27153      10
   27123   27144   27159      10   27120   27108   27126       4   27111   27093
   27114       4   27108   27120   27138       4   27102   27087   27105      10
   27102   27120   27138      10   27096   27117   27135       4   27093   27111
   27132       4   27090   27108   27126       4   27081   27093   27114       4
   27078   27087   27105       4   27450   27441   27453       1   27447   27441
   27450       1   27447   27441   27453       1   27441   27429   27444       2
   27438   27429   27441       2   27438   27429   27444       1   27432   27426
   27435       1   27429   27426   27432       2   27429   27426   27435       2
   27429   27441   27447       2   27429   27441   27450       2   27429   27441
   27453       2   27426   27429   27438       2   27426   27429   27444       2
   27423   27411   27426       2   27420   27411   27423       1   27420   27411
   27426       2   27414   27402   27417       1   27411   27402   27414       2
   27411   27402   27417       2   27411   27426   27432       2   27411   27426
   27435       2   27405   27393   27408       1   27402   27393   27405       2
   27402   27393   27408       2   27402   27411   27420       2   27402   27411
   27423       2   27396   27384   27399       1   27393   27384   27396       2
   27393   27384   27399       2   27393   27402   27414       2   27393   27402
   27417       2   27387   27372   27390       1   27384   27372   27387       2
   27384   27372   27390       2   27384   27393   27405       2   27384   27393
   27408       2   27375   27354   27378       1   27372   27354   27375       2
   27372   27354   27378       2   27372   27384   27396       2   27372   27384
   27399       2   27363   27342   27366       4   27363   27348   27369       4
   27357   27339   27360       1   27354   27339   27357       2   27354   27339
   27360       2   27354   27372   27387       2   27354   27372   27390       2
   27348   27336   27351       4   27348   27363   27381       4   27342   27333
   27345       4   27342   27363   27381       4   27339   27354   27375       2
   27339   27354   27378       2   27336   27348   27369       4   27333   27342
   27366       4   27321   27303   27324       4   27321   27309   27327       4
   27321   27339   27357       8   27321   27339   27360       8   27315   27333
   27345      10   27315   27336   27351      10   27312   27300   27318       4
   27303   27285   27306       4   27300   27312   27330       4   27294   27279
   27297      10   27294   27312   27330      10   27288   27309   27327       4
   27285   27303   27324       4   27282   27300   27318       4   27273   27285
   27306       4   27270   27279   27297       4   27642   27633   27645       1
   27639   27633   27642       1   27639   27633   27645       1   27633   27621
   27636       2   27630   27621   27633       2   27630   27621   27636       1
   27624   27618   27627       1   27621   27618   27624       2   27621   27618
   27627       2   27621   27633   27639       2   27621   27633   27642       2
   27621   27633   27645       2   27618   27621   27630       2   27618   27621
   27636       2   27615   27603   27618       2   27612   27603   27615       1
   27612   27603   27618       2   27606   27594   27609       1   27603   27594
   27606       2   27603   27594   27609       2   27603   27618   27624       2
   27603   27618   27627       2   27597   27585   27600       1   27594   27585
   27597       2   27594   27585   27600       2   27594   27603   27612       2
   27594   27603   27615       2   27588   27576   27591       1   27585   27576
   27588       2   27585   27576   27591       2   27585   27594   27606       2
   27585   27594   27609       2   27579   27564   27582       1   27576   27564
   27579       2   27576   27564   27582       2   27576   27585   27597       2
   27576   27585   27600       2   27567   27546   27570       1   27564   27546
   27567       2   27564   27546   27570       2   27564   27576   27588       2
   27564   27576   27591       2   27555   27534   27558       4   27555   27540
   27561       4   27549   27531   27552       1   27546   27531   27549       2
   27546   27531   27552       2   27546   27564   27579       2   27546   27564
   27582       2   27540   27528   27543       4   27540   27555   27573       4
   27534   27525   27537       4   27534   27555   27573       4   27531   27546
   27567       2   27531   27546   27570       2   27528   27540   27561       4
   27525   27534   27558       4   27513   27495   27516       4   27513   27501
   27519       4   27513   27531   27549       8   27513   27531   27552       8
   27507   27525   27537      10   27507   27528   27543      10   27504   27492
   27510       4   27495   27477   27498       4   27492   27504   27522       4
   27486   27471   27489      10   27486   27504   27522      10   27480   27501
   27519       4   27477   27495   27516       4   27474   27492   27510       4
   27465   27477   27498       4   27462   27471   27489       4   27834   27825
   27837       1   27831   27825   27834       1   27831   27825   27837       1
   27825   27813   27828       2   27822   27813   27825       2   27822   27813
   27828       1   27816   27810   27819       1   27813   27810   27816       2
   27813   27810   27819       2   27813   27825   27831       2   27813   27825
   27834       2   27813   27825   27837       2   27810   27813   27822       2
   27810   27813   27828       2   27807   27795   27810       2   27804   27795
   27807       1   27804   27795   27810       2   27798   27786   27801       1
   27795   27786   27798       2   27795   27786   27801       2   27795   27810
   27816       2   27795   27810   27819       2   27789   27777   27792       1
   27786   27777   27789       2   27786   27777   27792       2   27786   27795
   27804       2   27786   27795   27807       2   27780   27768   27783       1
   27777   27768   27780       2   27777   27768   27783       2   27777   27786
   27798       2   27777   27786   27801       2   27771   27756   27774       1
   27768   27756   27771       2   27768   27756   27774       2   27768   27777
   27789       2   27768   27777   27792       2   27759   27738   27762       1
   27756   27738   27759       2   27756   27738   27762       2   27756   27768
   27780       2   27756   27768   27783       2   27747   27726   27750       4
   27747   27732   27753       4   27741   27723   27744       1   27738   27723
   27741       2   27738   27723   27744       2   27738   27756   27771       2
   27738   27756   27774       2   27732   27720   27735       4   27732   27747
   27765       4   27726   27717   27729       4   27726   27747   27765       4
   27723   27738   27759       2   27723   27738   27762       2   27720   27732
   27753       4   27717   27726   27750       4   27705   27687   27708       4
   27705   27693   27711       4   27705   27723   27741       8   27705   27723
   27744       8   27699   27717   27729      10   27699   27720   27735      10
   27696   27684   27702       4   27687   27669   27690       4   27684   27696
   27714       4   27678   27663   27681      10   27678   27696   27714      10
   27672   27693   27711       4   27669   27687   27708       4   27666   27684
   27702       4   27657   27669   27690       4   27654   27663   27681       4
   28026   28017   28029       1   28023   28017   28026       1   28023   28017
   28029       1   28017   28005   28020       2   28014   28005   28017       2
   28014   28005   28020       1   28008   28002   28011       1   28005   28002
   28008       2   28005   28002   28011       2   28005   28017   28023       2
   28005   28017   28026       2   28005   28017   28029       2   28002   28005
   28014       2   28002   28005   28020       2   27999   27987   28002       2
   27996   27987   27999       1   27996   27987   28002       2   27990   27978
   27993       1   27987   27978   27990       2   27987   27978   27993       2
   27987   28002   28008       2   27987   28002   28011       2   27981   27969
   27984       1   27978   27969   27981       2   27978   27969   27984       2
   27978   27987   27996       2   27978   27987   27999       2   27972   27960
   27975       1   27969   27960   27972       2   27969   27960   27975       2
   27969   27978   27990       2   27969   27978   27993       2   27963   27948
   27966       1   27960   27948   27963       2   27960   27948   27966       2
   27960   27969   27981       2   27960   27969   27984       2   27951   27930
   27954       1   27948   27930   27951       2   27948   27930   27954       2
   27948   27960   27972       2   27948   27960   27975       2   27939   27918
   27942       4   27939   27924   27945       4   27933   27915   27936       1
   27930   27915   27933       2   27930   27915   27936       2   27930   27948
   27963       2   27930   27948   27966       2   27924   27912   27927       4
   27924   27939   27957       4   27918   27909   27921       4   27918   27939
   27957       4   27915   27930   27951       2   27915   27930   27954       2
   27912   27924   27945       4   27909   27918   27942       4   27897   27879
   27900       4   27897   27885   27903       4   27897   27915   27933       8
   27897   27915   27936       8   27891   27909   27921      10   27891   27912
   27927      10   27888   27876   27894       4   27879   27861   27882       4
   27876   27888   27906       4   27870   27855   27873      10   27870   27888
   27906      10   27864   27885   27903       4   27861   27879   27900       4
   27858   27876   27894       4   27849   27861   27882       4   27846   27855
   27873       4   28218   28209   28221       1   28215   28209   28218       1
   28215   28209   28221       1   28209   28197   28212       2   28206   28197
   28209       2   28206   28197   28212       1   28200   28194   28203       1
   28197   28194   28200       2   28197   28194   28203       2   28197   28209
   28215       2   28197   28209   28218       2   28197   28209   28221       2
   28194   28197   28206       2   28194   28197   28212       2   28191   28179
   28194       2   28188   28179   28191       1   28188   28179   28194       2
   28182   28170   28185       1   28179   28170   28182       2   28179   28170
   28185       2   28179   28194   28200       2   28179   28194   28203       2
   28173   28161   28176       1   28170   28161   28173       2   28170   28161
   28176       2   28170   28179   28188       2   28170   28179   28191       2
   28164   28152   28167       1   28161   28152   28164       2   28161   28152
   28167       2   28161   28170   28182       2   28161   28170   28185       2
   28155   28140   28158       1   28152   28140   28155       2   28152   28140
   28158       2   28152   28161   28173       2   28152   28161   28176       2
   28143   28122   28146       1   28140   28122   28143       2   28140   28122
   28146       2   28140   28152   28164       2   28140   28152   28167       2
   28131   28110   28134       4   28131   28116   28137       4   28125   28107
   28128       1   28122   28107   28125       2   28122   28107   28128       2
   28122   28140   28155       2   28122   28140   28158       2   28116   28104
   28119       4   28116   28131   28149       4   28110   28101   28113       4
   28110   28131   28149       4   28107   28122   28143       2   28107   28122
   28146       2   28104   28116   28137       4   28101   28110   28134       4
   28089   28071   28092       4   28089   28077   28095       4   28089   28107
   28125       8   28089   28107   28128       8   28083   28101   28113      10
   28083   28104   28119      10   28080   28068   28086       4   28071   28053
   28074       4   28068   28080   28098       4   28062   28047   28065      10
   28062   28080   28098      10   28056   28077   28095       4   28053   28071
   28092       4   28050   28068   28086       4   28041   28053   28074       4
   28038   28047   28065       4   28410   28401   28413       1   28407   28401
   28410       1   28407   28401   28413       1   28401   28389   28404       2
   28398   28389   28401       2   28398   28389   28404       1   28392   28386
   28395       1   28389   28386   28392       2   28389   28386   28395       2
   28389   28401   28407       2   28389   28401   28410       2   28389   28401
   28413       2   28386   28389   28398       2   28386   28389   28404       2
   28383   28371   28386       2   28380   28371   28383       1   28380   28371
   28386       2   28374   28362   28377       1   28371   28362   28374       2
   28371   28362   28377       2   28371   28386   28392       2   28371   28386
   28395       2   28365   28353   28368       1   28362   28353   28365       2
   28362   28353   28368       2   28362   28371   28380       2   28362   28371
   28383       2   28356   28344   28359       1   28353   28344   28356       2
   28353   28344   28359       2   28353   28362   28374       2   28353   28362
   28377       2   28347   28332   28350       1   28344   28332   28347       2
   28344   28332   28350       2   28344   28353   28365       2   28344   28353
   28368       2   28335   28314   28338       1   28332   28314   28335       2
   28332   28314   28338       2   28332   28344   28356       2   28332   28344
   28359       2   28323   28302   28326       4   28323   28308   28329       4
   28317   28299   28320       1   28314   28299   28317       2   28314   28299
   28320       2   28314   28332   28347       2   28314   28332   28350       2
   28308   28296   28311       4   28308   28323   28341       4   28302   28293
   28305       4   28302   28323   28341       4   28299   28314   28335       2
   28299   28314   28338       2   28296   28308   28329       4   28293   28302
   28326       4   28281   28263   28284       4   28281   28269   28287       4
   28281   28299   28317       8   28281   28299   28320       8   28275   28293
   28305      10   28275   28296   28311      10   28272   28260   28278       4
   28263   28245   28266       4   28260   28272   28290       4   28254   28239
   28257      10   28254   28272   28290      10   28248   28269   28287       4
   28245   28263   28284       4   28242   28260   28278       4   28233   28245
   28266       4   28230   28239   28257       4   28602   28593   28605       1
   28599   28593   28602       1   28599   28593   28605       1   28593   28581
   28596       2   28590   28581   28593       2   28590   28581   28596       1
   28584   28578   28587       1   28581   28578   28584       2   28581   28578
   28587       2   28581   28593   28599       2   28581   28593   28602       2
   28581   28593   28605       2   28578   28581   28590       2   28578   28581
   28596       2   28575   28563   28578       2   28572   28563   28575       1
   28572   28563   28578       2   28566   28554   28569       1   28563   28554
   28566       2   28563   28554   28569       2   28563   28578   28584       2
   28563   28578   28587       2   28557   28545   28560       1   28554   28545
   28557       2   28554   28545   28560       2   28554   28563   28572       2
   28554   28563   28575       2   28548   28536   28551       1   28545   28536
   28548       2   28545   28536   28551       2   28545   28554   28566       2
   28545   28554   28569       2   28539   28524   28542       1   28536   28524
   28539       2   28536   28524   28542       2   28536   28545   28557       2
   28536   28545   28560       2   28527   28506   28530       1   28524   28506
   28527       2   28524   28506   28530       2   28524   28536   28548       2
   28524   28536   28551       2   28515   28494   28518       4   28515   28500
   28521       4   28509   28491   28512       1   28506   28491   28509       2
   28506   28491   28512       2   28506   28524   28539       2   28506   28524
   28542       2   28500   28488   28503       4   28500   28515   28533       4
   28494   28485   28497       4   28494   28515   28533       4   28491   28506
   28527       2   28491   28506   28530       2   28488   28500   28521       4
   28485   28494   28518       4   28473   28455   28476       4   28473   28461
   28479       4   28473   28491   28509       8   28473   28491   28512       8
   28467   28485   28497      10   28467   28488   28503      10   28464   28452
   28470       4   28455   28437   28458       4   28452   28464   28482       4
   28446   28431   28449      10   28446   28464   28482      10   28440   28461
   28479       4   28437   28455   28476       4   28434   28452   28470       4
   28425   28437   28458       4   28422   28431   28449       4   28794   28785
   28797       1   28791   28785   28794       1   28791   28785   28797       1
   28785   28773   28788       2   28782   28773   28785       2   28782   28773
   28788       1   28776   28770   28779       1   28773   28770   28776       2
   28773   28770   28779       2   28773   28785   28791       2   28773   28785
   28794       2   28773   28785   28797       2   28770   28773   28782       2
   28770   28773   28788       2   28767   28755   28770       2   28764   28755
   28767       1   28764   28755   28770       2   28758   28746   28761       1
   28755   28746   28758       2   28755   28746   28761       2   28755   28770
   28776       2   28755   28770   28779       2   28749   28737   28752       1
   28746   28737   28749       2   28746   28737   28752       2   28746   28755
   28764       2   28746   28755   28767       2   28740   28728   28743       1
   28737   28728   28740       2   28737   28728   28743       2   28737   28746
   28758       2   28737   28746   28761       2   28731   28716   28734       1
   28728   28716   28731       2   28728   28716   28734       2   28728   28737
   28749       2   28728   28737   28752       2   28719   28698   28722       1
   28716   28698   28719       2   28716   28698   28722       2   28716   28728
   28740       2   28716   28728   28743       2   28707   28686   28710       4
   28707   28692   28713       4   28701   28683   28704       1   28698   28683
   28701       2   28698   28683   28704       2   28698   28716   28731       2
   28698   28716   28734       2   28692   28680   28695       4   28692   28707
   28725       4   28686   28677   28689       4   28686   28707   28725       4
   28683   28698   28719       2   28683   28698   28722       2   28680   28692
   28713       4   28677   28686   28710       4   28665   28647   28668       4
   28665   28653   28671       4   28665   28683   28701       8   28665   28683
   28704       8   28659   28677   28689      10   28659   28680   28695      10
   28656   28644   28662       4   28647   28629   28650       4   28644   28656
   28674       4   28638   28623   28641      10   28638   28656   28674      10
   28632   28653   28671       4   28629   28647   28668       4   28626   28644
   28662       4   28617   28629   28650       4   28614   28623   28641       4
   28986   28977   28989       1   28983   28977   28986       1   28983   28977
   28989       1   28977   28965   28980       2   28974   28965   28977       2
   28974   28965   28980       1   28968   28962   28971       1   28965   28962
   28968       2   28965   28962   28971       2   28965   28977   28983       2
   28965   28977   28986       2   28965   28977   28989       2   28962   28965
   28974       2   28962   28965   28980       2   28959   28947   28962       2
   28956   28947   28959       1   28956   28947   28962       2   28950   28938
   28953       1   28947   28938   28950       2   28947   28938   28953       2
   28947   28962   28968       2   28947   28962   28971       2   28941   28929
   28944       1   28938   28929   28941       2   28938   28929   28944       2
   28938   28947   28956       2   28938   28947   28959       2   28932   28920
   28935       1   28929   28920   28932       2   28929   28920   28935       2
   28929   28938   28950       2   28929   28938   28953       2   28923   28908
   28926       1   28920   28908   28923       2   28920   28908   28926       2
   28920   28929   28941       2   28920   28929   28944       2   28911   28890
   28914       1   28908   28890   28911       2   28908   28890   28914       2
   28908   28920   28932       2   28908   28920   28935       2   28899   28878
   28902       4   28899   28884   28905       4   28893   28875   28896       1
   28890   28875   28893       2   28890   28875   28896       2   28890   28908
   28923       2   28890   28908   28926       2   28884   28872   28887       4
   28884   28899   28917       4   28878   28869   28881       4   28878   28899
   28917       4   28875   28890   28911       2   28875   28890   28914       2
   28872   28884   28905       4   28869   28878   28902       4   28857   28839
   28860       4   28857   28845   28863       4   28857   28875   28893       8
   28857   28875   28896       8   28851   28869   28881      10   28851   28872
   28887      10   28848   28836   28854       4   28839   28821   28842       4
   28836   28848   28866       4   28830   28815   28833      10   28830   28848
   28866      10   28824   28845   28863       4   28821   28839   28860       4
   28818   28836   28854       4   28809   28821   28842       4   28806   28815
   28833       4   29178   29169   29181       1   29175   29169   29178       1
   29175   29169   29181       1   29169   29157   29172       2   29166   29157
   29169       2   29166   29157   29172       1   29160   29154   29163       1
   29157   29154   29160       2   29157   29154   29163       2   29157   29169
   29175       2   29157   29169   29178       2   29157   29169   29181       2
   29154   29157   29166       2   29154   29157   29172       2   29151   29139
   29154       2   29148   29139   29151       1   29148   29139   29154       2
   29142   29130   29145       1   29139   29130   29142       2   29139   29130
   29145       2   29139   29154   29160       2   29139   29154   29163       2
   29133   29121   29136       1   29130   29121   29133       2   29130   29121
   29136       2   29130   29139   29148       2   29130   29139   29151       2
   29124   29112   29127       1   29121   29112   29124       2   29121   29112
   29127       2   29121   29130   29142       2   29121   29130   29145       2
   29115   29100   29118       1   29112   29100   29115       2   29112   29100
   29118       2   29112   29121   29133       2   29112   29121   29136       2
   29103   29082   29106       1   29100   29082   29103       2   29100   29082
   29106       2   29100   29112   29124       2   29100   29112   29127       2
   29091   29070   29094       4   29091   29076   29097       4   29085   29067
   29088       1   29082   29067   29085       2   29082   29067   29088       2
   29082   29100   29115       2   29082   29100   29118       2   29076   29064
   29079       4   29076   29091   29109       4   29070   29061   29073       4
   29070   29091   29109       4   29067   29082   29103       2   29067   29082
   29106       2   29064   29076   29097       4   29061   29070   29094       4
   29049   29031   29052       4   29049   29037   29055       4   29049   29067
   29085       8   29049   29067   29088       8   29043   29061   29073      10
   29043   29064   29079      10   29040   29028   29046       4   29031   29013
   29034       4   29028   29040   29058       4   29022   29007   29025      10
   29022   29040   29058      10   29016   29037   29055       4   29013   29031
   29052       4   29010   29028   29046       4   29001   29013   29034       4
   28998   29007   29025       4   29370   29361   29373       1   29367   29361
   29370       1   29367   29361   29373       1   29361   29349   29364       2
   29358   29349   29361       2   29358   29349   29364       1   29352   29346
   29355       1   29349   29346   29352       2   29349   29346   29355       2
   29349   29361   29367       2   29349   29361   29370       2   29349   29361
   29373       2   29346   29349   29358       2   29346   29349   29364       2
   29343   29331   29346       2   29340   29331   29343       1   29340   29331
   29346       2   29334   29322   29337       1   29331   29322   29334       2
   29331   29322   29337       2   29331   29346   29352       2   29331   29346
   29355       2   29325   29313   29328       1   29322   29313   29325       2
   29322   29313   29328       2   29322   29331   29340       2   29322   29331
   29343       2   29316   29304   29319       1   29313   29304   29316       2
   29313   29304   29319       2   29313   29322   29334       2   29313   29322
   29337       2   29307   29292   29310       1   29304   29292   29307       2
   29304   29292   29310       2   29304   29313   29325       2   29304   29313
   29328       2   29295   29274   29298       1   29292   29274   29295       2
   29292   29274   29298       2   29292   29304   29316       2   29292   29304
   29319       2   29283   29262   29286       4   29283   29268   29289       4
   29277   29259   29280       1   29274   29259   29277       2   29274   29259
   29280       2   29274   29292   29307       2   29274   29292   29310       2
   29268   29256   29271       4   29268   29283   29301       4   29262   29253
   29265       4   29262   29283   29301       4   29259   29274   29295       2
   29259   29274   29298       2   29256   29268   29289       4   29253   29262
   29286       4   29241   29223   29244       4   29241   29229   29247       4
   29241   29259   29277       8   29241   29259   29280       8   29235   29253
   29265      10   29235   29256   29271      10   29232   29220   29238       4
   29223   29205   29226       4   29220   29232   29250       4   29214   29199
   29217      10   29214   29232   29250      10   29208   29229   29247       4
   29205   29223   29244       4   29202   29220   29238       4   29193   29205
   29226       4   29190   29199   29217       4   29562   29553   29565       1
   29559   29553   29562       1   29559   29553   29565       1   29553   29541
   29556       2   29550   29541   29553       2   29550   29541   29556       1
   29544   29538   29547       1   29541   29538   29544       2   29541   29538
   29547       2   29541   29553   29559       2   29541   29553   29562       2
   29541   29553   29565       2   29538   29541   29550       2   29538   29541
   29556       2   29535   29523   29538       2   29532   29523   29535       1
   29532   29523   29538       2   29526   29514   29529       1   29523   29514
   29526       2   29523   29514   29529       2   29523   29538   29544       2
   29523   29538   29547       2   29517   29505   29520       1   29514   29505
   29517       2   29514   29505   29520       2   29514   29523   29532       2
   29514   29523   29535       2   29508   29496   29511       1   29505   29496
   29508       2   29505   29496   29511       2   29505   29514   29526       2
   29505   29514   29529       2   29499   29484   29502       1   29496   29484
   29499       2   29496   29484   29502       2   29496   29505   29517       2
   29496   29505   29520       2   29487   29466   29490       1   29484   29466
   29487       2   29484   29466   29490       2   29484   29496   29508       2
   29484   29496   29511       2   29475   29454   29478       4   29475   29460
   29481       4   29469   29451   29472       1   29466   29451   29469       2
   29466   29451   29472       2   29466   29484   29499       2   29466   29484
   29502       2   29460   29448   29463       4   29460   29475   29493       4
   29454   29445   29457       4   29454   29475   29493       4   29451   29466
   29487       2   29451   29466   29490       2   29448   29460   29481       4
   29445   29454   29478       4   29433   29415   29436       4   29433   29421
   29439       4   29433   29451   29469       8   29433   29451   29472       8
   29427   29445   29457      10   29427   29448   29463      10   29424   29412
   29430       4   29415   29397   29418       4   29412   29424   29442       4
   29406   29391   29409      10   29406   29424   29442      10   29400   29421
   29439       4   29397   29415   29436       4   29394   29412   29430       4
   29385   29397   29418       4   29382   29391   29409       4   29754   29745
   29757       1   29751   29745   29754       1   29751   29745   29757       1
   29745   29733   29748       2   29742   29733   29745       2   29742   29733
   29748       1   29736   29730   29739       1   29733   29730   29736       2
   29733   29730   29739       2   29733   29745   29751       2   29733   29745
   29754       2   29733   29745   29757       2   29730   29733   29742       2
   29730   29733   29748       2   29727   29715   29730       2   29724   29715
   29727       1   29724   29715   29730       2   29718   29706   29721       1
   29715   29706   29718       2   29715   29706   29721       2   29715   29730
   29736       2   29715   29730   29739       2   29709   29697   29712       1
   29706   29697   29709       2   29706   29697   29712       2   29706   29715
   29724       2   29706   29715   29727       2   29700   29688   29703       1
   29697   29688   29700       2   29697   29688   29703       2   29697   29706
   29718       2   29697   29706   29721       2   29691   29676   29694       1
   29688   29676   29691       2   29688   29676   29694       2   29688   29697
   29709       2   29688   29697   29712       2   29679   29658   29682       1
   29676   29658   29679       2   29676   29658   29682       2   29676   29688
   29700       2   29676   29688   29703       2   29667   29646   29670       4
   29667   29652   29673       4   29661   29643   29664       1   29658   29643
   29661       2   29658   29643   29664       2   29658   29676   29691       2
   29658   29676   29694       2   29652   29640   29655       4   29652   29667
   29685       4   29646   29637   29649       4   29646   29667   29685       4
   29643   29658   29679       2   29643   29658   29682       2   29640   29652
   29673       4   29637   29646   29670       4   29625   29607   29628       4
   29625   29613   29631       4   29625   29643   29661       8   29625   29643
   29664       8   29619   29637   29649      10   29619   29640   29655      10
   29616   29604   29622       4   29607   29589   29610       4   29604   29616
   29634       4   29598   29583   29601      10   29598   29616   29634      10
   29592   29613   29631       4   29589   29607   29628       4   29586   29604
   29622       4   29577   29589   29610       4   29574   29583   29601       4
   29946   29937   29949       1   29943   29937   29946       1   29943   29937
   29949       1   29937   29925   29940       2   29934   29925   29937       2
   29934   29925   29940       1   29928   29922   29931       1   29925   29922
   29928       2   29925   29922   29931       2   29925   29937   29943       2
   29925   29937   29946       2   29925   29937   29949       2   29922   29925
   29934       2   29922   29925   29940       2   29919   29907   29922       2
   29916   29907   29919       1   29916   29907   29922       2   29910   29898
   29913       1   29907   29898   29910       2   29907   29898   29913       2
   29907   29922   29928       2   29907   29922   29931       2   29901   29889
   29904       1   29898   29889   29901       2   29898   29889   29904       2
   29898   29907   29916       2   29898   29907   29919       2   29892   29880
   29895       1   29889   29880   29892       2   29889   29880   29895       2
   29889   29898   29910       2   29889   29898   29913       2   29883   29868
   29886       1   29880   29868   29883       2   29880   29868   29886       2
   29880   29889   29901       2   29880   29889   29904       2   29871   29850
   29874       1   29868   29850   29871       2   29868   29850   29874       2
   29868   29880   29892       2   29868   29880   29895       2   29859   29838
   29862       4   29859   29844   29865       4   29853   29835   29856       1
   29850   29835   29853       2   29850   29835   29856       2   29850   29868
   29883       2   29850   29868   29886       2   29844   29832   29847       4
   29844   29859   29877       4   29838   29829   29841       4   29838   29859
   29877       4   29835   29850   29871       2   29835   29850   29874       2
   29832   29844   29865       4   29829   29838   29862       4   29817   29799
   29820       4   29817   29805   29823       4   29817   29835   29853       8
   29817   29835   29856       8   29811   29829   29841      10   29811   29832
   29847      10   29808   29796   29814       4   29799   29781   29802       4
   29796   29808   29826       4   29790   29775   29793      10   29790   29808
   29826      10   29784   29805   29823       4   29781   29799   29820       4
   29778   29796   29814       4   29769   29781   29802       4   29766   29775
   29793       4   30138   30129   30141       1   30135   30129   30138       1
   30135   30129   30141       1   30129   30117   30132       2   30126   30117
   30129       2   30126   30117   30132       1   30120   30114   30123       1
   30117   30114   30120       2   30117   30114   30123       2   30117   30129
   30135       2   30117   30129   30138       2   30117   30129   30141       2
   30114   30117   30126       2   30114   30117   30132       2   30111   30099
   30114       2   30108   30099   30111       1   30108   30099   30114       2
   30102   30090   30105       1   30099   30090   30102       2   30099   30090
   30105       2   30099   30114   30120       2   30099   30114   30123       2
   30093   30081   30096       1   30090   30081   30093       2   30090   30081
   30096       2   30090   30099   30108       2   30090   30099   30111       2
   30084   30072   30087       1   30081   30072   30084       2   30081   30072
   30087       2   30081   30090   30102       2   30081   30090   30105       2
   30075   30060   30078       1   30072   30060   30075       2   30072   30060
   30078       2   30072   30081   30093       2   30072   30081   30096       2
   30063   30042   30066       1   30060   30042   30063       2   30060   30042
   30066       2   30060   30072   30084       2   30060   30072   30087       2
   30051   30030   30054       4   30051   30036   30057       4   30045   30027
   30048       1   30042   30027   30045       2   30042   30027   30048       2
   30042   30060   30075       2   30042   30060   30078       2   30036   30024
   30039       4   30036   30051   30069       4   30030   30021   30033       4
   30030   30051   30069       4   30027   30042   30063       2   30027   30042
   30066       2   30024   30036   30057       4   30021   30030   30054       4
   30009   29991   30012       4   30009   29997   30015       4   30009   30027
   30045       8   30009   30027   30048       8   30003   30021   30033      10
   30003   30024   30039      10   30000   29988   30006       4   29991   29973
   29994       4   29988   30000   30018       4   29982   29967   29985      10
   29982   30000   30018      10   29976   29997   30015       4   29973   29991
   30012       4   29970   29988   30006       4   29961   29973   29994       4
   29958   29967   29985       4   30330   30321   30333       1   30327   30321
   30330       1   30327   30321   30333       1   30321   30309   30324       2
   30318   30309   30321       2   30318   30309   30324       1   30312   30306
   30315       1   30309   30306   30312       2   30309   30306   30315       2
   30309   30321   30327       2   30309   30321   30330       2   30309   30321
   30333       2   30306   30309   30318       2   30306   30309   30324       2
   30303   30291   30306       2   30300   30291   30303       1   30300   30291
   30306       2   30294   30282   30297       1   30291   30282   30294       2
   30291   30282   30297       2   30291   30306   30312       2   30291   30306
   30315       2   30285   30273   30288       1   30282   30273   30285       2
   30282   30273   30288       2   30282   30291   30300       2   30282   30291
   30303       2   30276   30264   30279       1   30273   30264   30276       2
   30273   30264   30279       2   30273   30282   30294       2   30273   30282
   30297       2   30267   30252   30270       1   30264   30252   30267       2
   30264   30252   30270       2   30264   30273   30285       2   30264   30273
   30288       2   30255   30234   30258       1   30252   30234   30255       2
   30252   30234   30258       2   30252   30264   30276       2   30252   30264
   30279       2   30243   30222   30246       4   30243   30228   30249       4
   30237   30219   30240       1   30234   30219   30237       2   30234   30219
   30240       2   30234   30252   30267       2   30234   30252   30270       2
   30228   30216   30231       4   30228   30243   30261       4   30222   30213
   30225       4   30222   30243   30261       4   30219   30234   30255       2
   30219   30234   30258       2   30216   30228   30249       4   30213   30222
   30246       4   30201   30183   30204       4   30201   30189   30207       4
   30201   30219   30237       8   30201   30219   30240       8   30195   30213
   30225      10   30195   30216   30231      10   30192   30180   30198       4
   30183   30165   30186       4   30180   30192   30210       4   30174   30159
   30177      10   30174   30192   30210      10   30168   30189   30207       4
   30165   30183   30204       4   30162   30180   30198       4   30153   30165
   30186       4   30150   30159   30177       4   30522   30513   30525       1
   30519   30513   30522       1   30519   30513   30525       1   30513   30501
   30516       2   30510   30501   30513       2   30510   30501   30516       1
   30504   30498   30507       1   30501   30498   30504       2   30501   30498
   30507       2   30501   30513   30519       2   30501   30513   30522       2
   30501   30513   30525       2   30498   30501   30510       2   30498   30501
   30516       2   30495   30483   30498       2   30492   30483   30495       1
   30492   30483   30498       2   30486   30474   30489       1   30483   30474
   30486       2   30483   30474   30489       2   30483   30498   30504       2
   30483   30498   30507       2   30477   30465   30480       1   30474   30465
   30477       2   30474   30465   30480       2   30474   30483   30492       2
   30474   30483   30495       2   30468   30456   30471       1   30465   30456
   30468       2   30465   30456   30471       2   30465   30474   30486       2
   30465   30474   30489       2   30459   30444   30462       1   30456   30444
   30459       2   30456   30444   30462       2   30456   30465   30477       2
   30456   30465   30480       2   30447   30426   30450       1   30444   30426
   30447       2   30444   30426   30450       2   30444   30456   30468       2
   30444   30456   30471       2   30435   30414   30438       4   30435   30420
   30441       4   30429   30411   30432       1   30426   30411   30429       2
   30426   30411   30432       2   30426   30444   30459       2   30426   30444
   30462       2   30420   30408   30423       4   30420   30435   30453       4
   30414   30405   30417       4   30414   30435   30453       4   30411   30426
   30447       2   30411   30426   30450       2   30408   30420   30441       4
   30405   30414   30438       4   30393   30375   30396       4   30393   30381
   30399       4   30393   30411   30429       8   30393   30411   30432       8
   30387   30405   30417      10   30387   30408   30423      10   30384   30372
   30390       4   30375   30357   30378       4   30372   30384   30402       4
   30366   30351   30369      10   30366   30384   30402      10   30360   30381
   30399       4   30357   30375   30396       4   30354   30372   30390       4
   30345   30357   30378       4   30342   30351   30369       4   30714   30705
   30717       1   30711   30705   30714       1   30711   30705   30717       1
   30705   30693   30708       2   30702   30693   30705       2   30702   30693
   30708       1   30696   30690   30699       1   30693   30690   30696       2
   30693   30690   30699       2   30693   30705   30711       2   30693   30705
   30714       2   30693   30705   30717       2   30690   30693   30702       2
   30690   30693   30708       2   30687   30675   30690       2   30684   30675
   30687       1   30684   30675   30690       2   30678   30666   30681       1
   30675   30666   30678       2   30675   30666   30681       2   30675   30690
   30696       2   30675   30690   30699       2   30669   30657   30672       1
   30666   30657   30669       2   30666   30657   30672       2   30666   30675
   30684       2   30666   30675   30687       2   30660   30648   30663       1
   30657   30648   30660       2   30657   30648   30663       2   30657   30666
   30678       2   30657   30666   30681       2   30651   30636   30654       1
   30648   30636   30651       2   30648   30636   30654       2   30648   30657
   30669       2   30648   30657   30672       2   30639   30618   30642       1
   30636   30618   30639       2   30636   30618   30642       2   30636   30648
   30660       2   30636   30648   30663       2   30627   30606   30630       4
   30627   30612   30633       4   30621   30603   30624       1   30618   30603
   30621       2   30618   30603   30624       2   30618   30636   30651       2
   30618   30636   30654       2   30612   30600   30615       4   30612   30627
   30645       4   30606   30597   30609       4   30606   30627   30645       4
   30603   30618   30639       2   30603   30618   30642       2   30600   30612
   30633       4   30597   30606   30630       4   30585   30567   30588       4
   30585   30573   30591       4   30585   30603   30621       8   30585   30603
   30624       8   30579   30597   30609      10   30579   30600   30615      10
   30576   30564   30582       4   30567   30549   30570       4   30564   30576
   30594       4   30558   30543   30561      10   30558   30576   30594      10
   30552   30573   30591       4   30549   30567   30588       4   30546   30564
   30582       4   30537   30549   30570       4   30534   30543   30561       4
   30906   30897   30909       1   30903   30897   30906       1   30903   30897
   30909       1   30897   30885   30900       2   30894   30885   30897       2
   30894   30885   30900       1   30888   30882   30891       1   30885   30882
   30888       2   30885   30882   30891       2   30885   30897   30903       2
   30885   30897   30906       2   30885   30897   30909       2   30882   30885
   30894       2   30882   30885   30900       2   30879   30867   30882       2
   30876   30867   30879       1   30876   30867   30882       2   30870   30858
   30873       1   30867   30858   30870       2   30867   30858   30873       2
   30867   30882   30888       2   30867   30882   30891       2   30861   30849
   30864       1   30858   30849   30861       2   30858   30849   30864       2
   30858   30867   30876       2   30858   30867   30879       2   30852   30840
   30855       1   30849   30840   30852       2   30849   30840   30855       2
   30849   30858   30870       2   30849   30858   30873       2   30843   30828
   30846       1   30840   30828   30843       2   30840   30828   30846       2
   30840   30849   30861       2   30840   30849   30864       2   30831   30810
   30834       1   30828   30810   30831       2   30828   30810   30834       2
   30828   30840   30852       2   30828   30840   30855       2   30819   30798
   30822       4   30819   30804   30825       4   30813   30795   30816       1
   30810   30795   30813       2   30810   30795   30816       2   30810   30828
   30843       2   30810   30828   30846       2   30804   30792   30807       4
   30804   30819   30837       4   30798   30789   30801       4   30798   30819
   30837       4   30795   30810   30831       2   30795   30810   30834       2
   30792   30804   30825       4   30789   30798   30822       4   30777   30759
   30780       4   30777   30765   30783       4   30777   30795   30813       8
   30777   30795   30816       8   30771   30789   30801      10   30771   30792
   30807      10   30768   30756   30774       4   30759   30741   30762       4
   30756   30768   30786       4   30750   30735   30753      10   30750   30768
   30786      10   30744   30765   30783       4   30741   30759   30780       4
   30738   30756   30774       4   30729   30741   30762       4   30726   30735
   30753       4   31098   31089   31101       1   31095   31089   31098       1
   31095   31089   31101       1   31089   31077   31092       2   31086   31077
   31089       2   31086   31077   31092       1   31080   31074   31083       1
   31077   31074   31080       2   31077   31074   31083       2   31077   31089
   31095       2   31077   31089   31098       2   31077   31089   31101       2
   31074   31077   31086       2   31074   31077   31092       2   31071   31059
   31074       2   31068   31059   31071       1   31068   31059   31074       2
   31062   31050   31065       1   31059   31050   31062       2   31059   31050
   31065       2   31059   31074   31080       2   31059   31074   31083       2
   31053   31041   31056       1   31050   31041   31053       2   31050   31041
   31056       2   31050   31059   31068       2   31050   31059   31071       2
   31044   31032   31047       1   31041   31032   31044       2   31041   31032
   31047       2   31041   31050   31062       2   31041   31050   31065       2
   31035   31020   31038       1   31032   31020   31035       2   31032   31020
   31038       2   31032   31041   31053       2   31032   31041   31056       2
   31023   31002   31026       1   31020   31002   31023       2   31020   31002
   31026       2   31020   31032   31044       2   31020   31032   31047       2
   31011   30990   31014       4   31011   30996   31017       4   31005   30987
   31008       1   31002   30987   31005       2   31002   30987   31008       2
   31002   31020   31035       2   31002   31020   31038       2   30996   30984
   30999       4   30996   31011   31029       4   30990   30981   30993       4
   30990   31011   31029       4   30987   31002   31023       2   30987   31002
   31026       2   30984   30996   31017       4   30981   30990   31014       4
   30969   30951   30972       4   30969   30957   30975       4   30969   30987
   31005       8   30969   30987   31008       8   30963   30981   30993      10
   30963   30984   30999      10   30960   30948   30966       4   30951   30933
   30954       4   30948   30960   30978       4   30942   30927   30945      10
   30942   30960   30978      10   30936   30957   30975       4   30933   30951
   30972       4   30930   30948   30966       4   30921   30933   30954       4
   30918   30927   30945       4   31290   31281   31293       1   31287   31281
   31290       1   31287   31281   31293       1   31281   31269   31284       2
   31278   31269   31281       2   31278   31269   31284       1   31272   31266
   31275       1   31269   31266   31272       2   31269   31266   31275       2
   31269   31281   31287       2   31269   31281   31290       2   31269   31281
   31293       2   31266   31269   31278       2   31266   31269   31284       2
   31263   31251   31266       2   31260   31251   31263       1   31260   31251
   31266       2   31254   31242   31257       1   31251   31242   31254       2
   31251   31242   31257       2   31251   31266   31272       2   31251   31266
   31275       2   31245   31233   31248       1   31242   31233   31245       2
   31242   31233   31248       2   31242   31251   31260       2   31242   31251
   31263       2   31236   31224   31239       1   31233   31224   31236       2
   31233   31224   31239       2   31233   31242   31254       2   31233   31242
   31257       2   31227   31212   31230       1   31224   31212   31227       2
   31224   31212   31230       2   31224   31233   31245       2   31224   31233
   31248       2   31215   31194   31218       1   31212   31194   31215       2
   31212   31194   31218       2   31212   31224   31236       2   31212   31224
   31239       2   31203   31182   31206       4   31203   31188   31209       4
   31197   31179   31200       1   31194   31179   31197       2   31194   31179
   31200       2   31194   31212   31227       2   31194   31212   31230       2
   31188   31176   31191       4   31188   31203   31221       4   31182   31173
   31185       4   31182   31203   31221       4   31179   31194   31215       2
   31179   31194   31218       2   31176   31188   31209       4   31173   31182
   31206       4   31161   31143   31164       4   31161   31149   31167       4
   31161   31179   31197       8   31161   31179   31200       8   31155   31173
   31185      10   31155   31176   31191      10   31152   31140   31158       4
   31143   31125   31146       4   31140   31152   31170       4   31134   31119
   31137      10   31134   31152   31170      10   31128   31149   31167       4
   31125   31143   31164       4   31122   31140   31158       4   31113   31125
   31146       4   31110   31119   31137       4   31482   31473   31485       1
   31479   31473   31482       1   31479   31473   31485       1   31473   31461
   31476       2   31470   31461   31473       2   31470   31461   31476       1
   31464   31458   31467       1   31461   31458   31464       2   31461   31458
   31467       2   31461   31473   31479       2   31461   31473   31482       2
   31461   31473   31485       2   31458   31461   31470       2   31458   31461
   31476       2   31455   31443   31458       2   31452   31443   31455       1
   31452   31443   31458       2   31446   31434   31449       1   31443   31434
   31446       2   31443   31434   31449       2   31443   31458   31464       2
   31443   31458   31467       2   31437   31425   31440       1   31434   31425
   31437       2   31434   31425   31440       2   31434   31443   31452       2
   31434   31443   31455       2   31428   31416   31431       1   31425   31416
   31428       2   31425   31416   31431       2   31425   31434   31446       2
   31425   31434   31449       2   31419   31404   31422       1   31416   31404
   31419       2   31416   31404   31422       2   31416   31425   31437       2
   31416   31425   31440       2   31407   31386   31410       1   31404   31386
   31407       2   31404   31386   31410       2   31404   31416   31428       2
   31404   31416   31431       2   31395   31374   31398       4   31395   31380
   31401       4   31389   31371   31392       1   31386   31371   31389       2
   31386   31371   31392       2   31386   31404   31419       2   31386   31404
   31422       2   31380   31368   31383       4   31380   31395   31413       4
   31374   31365   31377       4   31374   31395   31413       4   31371   31386
   31407       2   31371   31386   31410       2   31368   31380   31401       4
   31365   31374   31398       4   31353   31335   31356       4   31353   31341
   31359       4   31353   31371   31389       8   31353   31371   31392       8
   31347   31365   31377      10   31347   31368   31383      10   31344   31332
   31350       4   31335   31317   31338       4   31332   31344   31362       4
   31326   31311   31329      10   31326   31344   31362      10   31320   31341
   31359       4   31317   31335   31356       4   31314   31332   31350       4
   31305   31317   31338       4   31302   31311   31329       4   31674   31665
   31677       1   31671   31665   31674       1   31671   31665   31677       1
   31665   31653   31668       2   31662   31653   31665       2   31662   31653
   31668       1   31656   31650   31659       1   31653   31650   31656       2
   31653   31650   31659       2   31653   31665   31671       2   31653   31665
   31674       2   31653   31665   31677       2   31650   31653   31662       2
   31650   31653   31668       2   31647   31635   31650       2   31644   31635
   31647       1   31644   31635   31650       2   31638   31626   31641       1
   31635   31626   31638       2   31635   31626   31641       2   31635   31650
   31656       2   31635   31650   31659       2   31629   31617   31632       1
   31626   31617   31629       2   31626   31617   31632       2   31626   31635
   31644       2   31626   31635   31647       2   31620   31608   31623       1
   31617   31608   31620       2   31617   31608   31623       2   31617   31626
   31638       2   31617   31626   31641       2   31611   31596   31614       1
   31608   31596   31611       2   31608   31596   31614       2   31608   31617
   31629       2   31608   31617   31632       2   31599   31578   31602       1
   31596   31578   31599       2   31596   31578   31602       2   31596   31608
   31620       2   31596   31608   31623       2   31587   31566   31590       4
   31587   31572   31593       4   31581   31563   31584       1   31578   31563
   31581       2   31578   31563   31584       2   31578   31596   31611       2
   31578   31596   31614       2   31572   31560   31575       4   31572   31587
   31605       4   31566   31557   31569       4   31566   31587   31605       4
   31563   31578   31599       2   31563   31578   31602       2   31560   31572
   31593       4   31557   31566   31590       4   31545   31527   31548       4
   31545   31533   31551       4   31545   31563   31581       8   31545   31563
   31584       8   31539   31557   31569      10   31539   31560   31575      10
   31536   31524   31542       4   31527   31509   31530       4   31524   31536
   31554       4   31518   31503   31521      10   31518   31536   31554      10
   31512   31533   31551       4   31509   31527   31548       4   31506   31524
   31542       4   31497   31509   31530       4   31494   31503   31521       4
   31866   31857   31869       1   31863   31857   31866       1   31863   31857
   31869       1   31857   31845   31860       2   31854   31845   31857       2
   31854   31845   31860       1   31848   31842   31851       1   31845   31842
   31848       2   31845   31842   31851       2   31845   31857   31863       2
   31845   31857   31866       2   31845   31857   31869       2   31842   31845
   31854       2   31842   31845   31860       2   31839   31827   31842       2
   31836   31827   31839       1   31836   31827   31842       2   31830   31818
   31833       1   31827   31818   31830       2   31827   31818   31833       2
   31827   31842   31848       2   31827   31842   31851       2   31821   31809
   31824       1   31818   31809   31821       2   31818   31809   31824       2
   31818   31827   31836       2   31818   31827   31839       2   31812   31800
   31815       1   31809   31800   31812       2   31809   31800   31815       2
   31809   31818   31830       2   31809   31818   31833       2   31803   31788
   31806       1   31800   31788   31803       2   31800   31788   31806       2
   31800   31809   31821       2   31800   31809   31824       2   31791   31770
   31794       1   31788   31770   31791       2   31788   31770   31794       2
   31788   31800   31812       2   31788   31800   31815       2   31779   31758
   31782       4   31779   31764   31785       4   31773   31755   31776       1
   31770   31755   31773       2   31770   31755   31776       2   31770   31788
   31803       2   31770   31788   31806       2   31764   31752   31767       4
   31764   31779   31797       4   31758   31749   31761       4   31758   31779
   31797       4   31755   31770   31791       2   31755   31770   31794       2
   31752   31764   31785       4   31749   31758   31782       4   31737   31719
   31740       4   31737   31725   31743       4   31737   31755   31773       8
   31737   31755   31776       8   31731   31749   31761      10   31731   31752
   31767      10   31728   31716   31734       4   31719   31701   31722       4
   31716   31728   31746       4   31710   31695   31713      10   31710   31728
   31746      10   31704   31725   31743       4   31701   31719   31740       4
   31698   31716   31734       4   31689   31701   31722       4   31686   31695
   31713       4   32058   32049   32061       1   32055   32049   32058       1
   32055   32049   32061       1   32049   32037   32052       2   32046   32037
   32049       2   32046   32037   32052       1   32040   32034   32043       1
   32037   32034   32040       2   32037   32034   32043       2   32037   32049
   32055       2   32037   32049   32058       2   32037   32049   32061       2
   32034   32037   32046       2   32034   32037   32052       2   32031   32019
   32034       2   32028   32019   32031       1   32028   32019   32034       2
   32022   32010   32025       1   32019   32010   32022       2   32019   32010
   32025       2   32019   32034   32040       2   32019   32034   32043       2
   32013   32001   32016       1   32010   32001   32013       2   32010   32001
   32016       2   32010   32019   32028       2   32010   32019   32031       2
   32004   31992   32007       1   32001   31992   32004       2   32001   31992
   32007       2   32001   32010   32022       2   32001   32010   32025       2
   31995   31980   31998       1   31992   31980   31995       2   31992   31980
   31998       2   31992   32001   32013       2   31992   32001   32016       2
   31983   31962   31986       1   31980   31962   31983       2   31980   31962
   31986       2   31980   31992   32004       2   31980   31992   32007       2
   31971   31950   31974       4   31971   31956   31977       4   31965   31947
   31968       1   31962   31947   31965       2   31962   31947   31968       2
   31962   31980   31995       2   31962   31980   31998       2   31956   31944
   31959       4   31956   31971   31989       4   31950   31941   31953       4
   31950   31971   31989       4   31947   31962   31983       2   31947   31962
   31986       2   31944   31956   31977       4   31941   31950   31974       4
   31929   31911   31932       4   31929   31917   31935       4   31929   31947
   31965       8   31929   31947   31968       8   31923   31941   31953      10
   31923   31944   31959      10   31920   31908   31926       4   31911   31893
   31914       4   31908   31920   31938       4   31902   31887   31905      10
   31902   31920   31938      10   31896   31917   31935       4   31893   31911
   31932       4   31890   31908   31926       4   31881   31893   31914       4
   31878   31887   31905       4   32250   32241   32253       1   32247   32241
   32250       1   32247   32241   32253       1   32241   32229   32244       2
   32238   32229   32241       2   32238   32229   32244       1   32232   32226
   32235       1   32229   32226   32232       2   32229   32226   32235       2
   32229   32241   32247       2   32229   32241   32250       2   32229   32241
   32253       2   32226   32229   32238       2   32226   32229   32244       2
   32223   32211   32226       2   32220   32211   32223       1   32220   32211
   32226       2   32214   32202   32217       1   32211   32202   32214       2
   32211   32202   32217       2   32211   32226   32232       2   32211   32226
   32235       2   32205   32193   32208       1   32202   32193   32205       2
   32202   32193   32208       2   32202   32211   32220       2   32202   32211
   32223       2   32196   32184   32199       1   32193   32184   32196       2
   32193   32184   32199       2   32193   32202   32214       2   32193   32202
   32217       2   32187   32172   32190       1   32184   32172   32187       2
   32184   32172   32190       2   32184   32193   32205       2   32184   32193
   32208       2   32175   32154   32178       1   32172   32154   32175       2
   32172   32154   32178       2   32172   32184   32196       2   32172   32184
   32199       2   32163   32142   32166       4   32163   32148   32169       4
   32157   32139   32160       1   32154   32139   32157       2   32154   32139
   32160       2   32154   32172   32187       2   32154   32172   32190       2
   32148   32136   32151       4   32148   32163   32181       4   32142   32133
   32145       4   32142   32163   32181       4   32139   32154   32175       2
   32139   32154   32178       2   32136   32148   32169       4   32133   32142
   32166       4   32121   32103   32124       4   32121   32109   32127       4
   32121   32139   32157       8   32121   32139   32160       8   32115   32133
   32145      10   32115   32136   32151      10   32112   32100   32118       4
   32103   32085   32106       4   32100   32112   32130       4   32094   32079
   32097      10   32094   32112   32130      10   32088   32109   32127       4
   32085   32103   32124       4   32082   32100   32118       4   32073   32085
   32106       4   32070   32079   32097       4   32442   32433   32445       1
   32439   32433   32442       1   32439   32433   32445       1   32433   32421
   32436       2   32430   32421   32433       2   32430   32421   32436       1
   32424   32418   32427       1   32421   32418   32424       2   32421   32418
   32427       2   32421   32433   32439       2   32421   32433   32442       2
   32421   32433   32445       2   32418   32421   32430       2   32418   32421
   32436       2   32415   32403   32418       2   32412   32403   32415       1
   32412   32403   32418       2   32406   32394   32409       1   32403   32394
   32406       2   32403   32394   32409       2   32403   32418   32424       2
   32403   32418   32427       2   32397   32385   32400       1   32394   32385
   32397       2   32394   32385   32400       2   32394   32403   32412       2
   32394   32403   32415       2   32388   32376   32391       1   32385   32376
   32388       2   32385   32376   32391       2   32385   32394   32406       2
   32385   32394   32409       2   32379   32364   32382       1   32376   32364
   32379       2   32376   32364   32382       2   32376   32385   32397       2
   32376   32385   32400       2   32367   32346   32370       1   32364   32346
   32367       2   32364   32346   32370       2   32364   32376   32388       2
   32364   32376   32391       2   32355   32334   32358       4   32355   32340
   32361       4   32349   32331   32352       1   32346   32331   32349       2
   32346   32331   32352       2   32346   32364   32379       2   32346   32364
   32382       2   32340   32328   32343       4   32340   32355   32373       4
   32334   32325   32337       4   32334   32355   32373       4   32331   32346
   32367       2   32331   32346   32370       2   32328   32340   32361       4
   32325   32334   32358       4   32313   32295   32316       4   32313   32301
   32319       4   32313   32331   32349       8   32313   32331   32352       8
   32307   32325   32337      10   32307   32328   32343      10   32304   32292
   32310       4   32295   32277   32298       4   32292   32304   32322       4
   32286   32271   32289      10   32286   32304   32322      10   32280   32301
   32319       4   32277   32295   32316       4   32274   32292   32310       4
   32265   32277   32298       4   32262   32271   32289       4   32634   32625
   32637       1   32631   32625   32634       1   32631   32625   32637       1
   32625   32613   32628       2   32622   32613   32625       2   32622   32613
   32628       1   32616   32610   32619       1   32613   32610   32616       2
   32613   32610   32619       2   32613   32625   32631       2   32613   32625
   32634       2   32613   32625   32637       2   32610   32613   32622       2
   32610   32613   32628       2   32607   32595   32610       2   32604   32595
   32607       1   32604   32595   32610       2   32598   32586   32601       1
   32595   32586   32598       2   32595   32586   32601       2   32595   32610
   32616       2   32595   32610   32619       2   32589   32577   32592       1
   32586   32577   32589       2   32586   32577   32592       2   32586   32595
   32604       2   32586   32595   32607       2   32580   32568   32583       1
   32577   32568   32580       2   32577   32568   32583       2   32577   32586
   32598       2   32577   32586   32601       2   32571   32556   32574       1
   32568   32556   32571       2   32568   32556   32574       2   32568   32577
   32589       2   32568   32577   32592       2   32559   32538   32562       1
   32556   32538   32559       2   32556   32538   32562       2   32556   32568
   32580       2   32556   32568   32583       2   32547   32526   32550       4
   32547   32532   32553       4   32541   32523   32544       1   32538   32523
   32541       2   32538   32523   32544       2   32538   32556   32571       2
   32538   32556   32574       2   32532   32520   32535       4   32532   32547
   32565       4   32526   32517   32529       4   32526   32547   32565       4
   32523   32538   32559       2   32523   32538   32562       2   32520   32532
   32553       4   32517   32526   32550       4   32505   32487   32508       4
   32505   32493   32511       4   32505   32523   32541       8   32505   32523
   32544       8   32499   32517   32529      10   32499   32520   32535      10
   32496   32484   32502       4   32487   32469   32490       4   32484   32496
   32514       4   32478   32463   32481      10   32478   32496   32514      10
   32472   32493   32511       4   32469   32487   32508       4   32466   32484
   32502       4   32457   32469   32490       4   32454   32463   32481       4
   32826   32817   32829       1   32823   32817   32826       1   32823   32817
   32829       1   32817   32805   32820       2   32814   32805   32817       2
   32814   32805   32820       1   32808   32802   32811       1   32805   32802
   32808       2   32805   32802   32811       2   32805   32817   32823       2
   32805   32817   32826       2   32805   32817   32829       2   32802   32805
   32814       2   32802   32805   32820       2   32799   32787   32802       2
   32796   32787   32799       1   32796   32787   32802       2   32790   32778
   32793       1   32787   32778   32790       2   32787   32778   32793       2
   32787   32802   32808       2   32787   32802   32811       2   32781   32769
   32784       1   32778   32769   32781       2   32778   32769   32784       2
   32778   32787   32796       2   32778   32787   32799       2   32772   32760
   32775       1   32769   32760   32772       2   32769   32760   32775       2
   32769   32778   32790       2   32769   32778   32793       2   32763   32748
   32766       1   32760   32748   32763       2   32760   32748   32766       2
   32760   32769   32781       2   32760   32769   32784       2   32751   32730
   32754       1   32748   32730   32751       2   32748   32730   32754       2
   32748   32760   32772       2   32748   32760   32775       2   32739   32718
   32742       4   32739   32724   32745       4   32733   32715   32736       1
   32730   32715   32733       2   32730   32715   32736       2   32730   32748
   32763       2   32730   32748   32766       2   32724   32712   32727       4
   32724   32739   32757       4   32718   32709   32721       4   32718   32739
   32757       4   32715   32730   32751       2   32715   32730   32754       2
   32712   32724   32745       4   32709   32718   32742       4   32697   32679
   32700       4   32697   32685   32703       4   32697   32715   32733       8
   32697   32715   32736       8   32691   32709   32721      10   32691   32712
   32727      10   32688   32676   32694       4   32679   32661   32682       4
   32676   32688   32706       4   32670   32655   32673      10   32670   32688
   32706      10   32664   32685   32703       4   32661   32679   32700       4
   32658   32676   32694       4   32649   32661   32682       4   32646   32655
   32673       4   33018   33009   33021       1   33015   33009   33018       1
   33015   33009   33021       1   33009   32997   33012       2   33006   32997
   33009       2   33006   32997   33012       1   33000   32994   33003       1
   32997   32994   33000       2   32997   32994   33003       2   32997   33009
   33015       2   32997   33009   33018       2   32997   33009   33021       2
   32994   32997   33006       2   32994   32997   33012       2   32991   32979
   32994       2   32988   32979   32991       1   32988   32979   32994       2
   32982   32970   32985       1   32979   32970   32982       2   32979   32970
   32985       2   32979   32994   33000       2   32979   32994   33003       2
   32973   32961   32976       1   32970   32961   32973       2   32970   32961
   32976       2   32970   32979   32988       2   32970   32979   32991       2
   32964   32952   32967       1   32961   32952   32964       2   32961   32952
   32967       2   32961   32970   32982       2   32961   32970   32985       2
   32955   32940   32958       1   32952   32940   32955       2   32952   32940
   32958       2   32952   32961   32973       2   32952   32961   32976       2
   32943   32922   32946       1   32940   32922   32943       2   32940   32922
   32946       2   32940   32952   32964       2   32940   32952   32967       2
   32931   32910   32934       4   32931   32916   32937       4   32925   32907
   32928       1   32922   32907   32925       2   32922   32907   32928       2
   32922   32940   32955       2   32922   32940   32958       2   32916   32904
   32919       4   32916   32931   32949       4   32910   32901   32913       4
   32910   32931   32949       4   32907   32922   32943       2   32907   32922
   32946       2   32904   32916   32937       4   32901   32910   32934       4
   32889   32871   32892       4   32889   32877   32895       4   32889   32907
   32925       8   32889   32907   32928       8   32883   32901   32913      10
   32883   32904   32919      10   32880   32868   32886       4   32871   32853
   32874       4   32868   32880   32898       4   32862   32847   32865      10
   32862   32880   32898      10   32856   32877   32895       4   32853   32871
   32892       4   32850   32868   32886       4   32841   32853   32874       4
   32838   32847   32865       4   33210   33201   33213       1   33207   33201
   33210       1   33207   33201   33213       1   33201   33189   33204       2
   33198   33189   33201       2   33198   33189   33204       1   33192   33186
   33195       1   33189   33186   33192       2   33189   33186   33195       2
   33189   33201   33207       2   33189   33201   33210       2   33189   33201
   33213       2   33186   33189   33198       2   33186   33189   33204       2
   33183   33171   33186       2   33180   33171   33183       1   33180   33171
   33186       2   33174   33162   33177       1   33171   33162   33174       2
   33171   33162   33177       2   33171   33186   33192       2   33171   33186
   33195       2   33165   33153   33168       1   33162   33153   33165       2
   33162   33153   33168       2   33162   33171   33180       2   33162   33171
   33183       2   33156   33144   33159       1   33153   33144   33156       2
   33153   33144   33159       2   33153   33162   33174       2   33153   33162
   33177       2   33147   33132   33150       1   33144   33132   33147       2
   33144   33132   33150       2   33144   33153   33165       2   33144   33153
   33168       2   33135   33114   33138       1   33132   33114   33135       2
   33132   33114   33138       2   33132   33144   33156       2   33132   33144
   33159       2   33123   33102   33126       4   33123   33108   33129       4
   33117   33099   33120       1   33114   33099   33117       2   33114   33099
   33120       2   33114   33132   33147       2   33114   33132   33150       2
   33108   33096   33111       4   33108   33123   33141       4   33102   33093
   33105       4   33102   33123   33141       4   33099   33114   33135       2
   33099   33114   33138       2   33096   33108   33129       4   33093   33102
   33126       4   33081   33063   33084       4   33081   33069   33087       4
   33081   33099   33117       8   33081   33099   33120       8   33075   33093
   33105      10   33075   33096   33111      10   33072   33060   33078       4
   33063   33045   33066       4   33060   33072   33090       4   33054   33039
   33057      10   33054   33072   33090      10   33048   33069   33087       4
   33045   33063   33084       4   33042   33060   33078       4   33033   33045
   33066       4   33030   33039   33057       4   33402   33393   33405       1
   33399   33393   33402       1   33399   33393   33405       1   33393   33381
   33396       2   33390   33381   33393       2   33390   33381   33396       1
   33384   33378   33387       1   33381   33378   33384       2   33381   33378
   33387       2   33381   33393   33399       2   33381   33393   33402       2
   33381   33393   33405       2   33378   33381   33390       2   33378   33381
   33396       2   33375   33363   33378       2   33372   33363   33375       1
   33372   33363   33378       2   33366   33354   33369       1   33363   33354
   33366       2   33363   33354   33369       2   33363   33378   33384       2
   33363   33378   33387       2   33357   33345   33360       1   33354   33345
   33357       2   33354   33345   33360       2   33354   33363   33372       2
   33354   33363   33375       2   33348   33336   33351       1   33345   33336
   33348       2   33345   33336   33351       2   33345   33354   33366       2
   33345   33354   33369       2   33339   33324   33342       1   33336   33324
   33339       2   33336   33324   33342       2   33336   33345   33357       2
   33336   33345   33360       2   33327   33306   33330       1   33324   33306
   33327       2   33324   33306   33330       2   33324   33336   33348       2
   33324   33336   33351       2   33315   33294   33318       4   33315   33300
   33321       4   33309   33291   33312       1   33306   33291   33309       2
   33306   33291   33312       2   33306   33324   33339       2   33306   33324
   33342       2   33300   33288   33303       4   33300   33315   33333       4
   33294   33285   33297       4   33294   33315   33333       4   33291   33306
   33327       2   33291   33306   33330       2   33288   33300   33321       4
   33285   33294   33318       4   33273   33255   33276       4   33273   33261
   33279       4   33273   33291   33309       8   33273   33291   33312       8
   33267   33285   33297      10   33267   33288   33303      10   33264   33252
   33270       4   33255   33237   33258       4   33252   33264   33282       4
   33246   33231   33249      10   33246   33264   33282      10   33240   33261
   33279       4   33237   33255   33276       4   33234   33252   33270       4
   33225   33237   33258       4   33222   33231   33249       4   33594   33585
   33597       1   33591   33585   33594       1   33591   33585   33597       1
   33585   33573   33588       2   33582   33573   33585       2   33582   33573
   33588       1   33576   33570   33579       1   33573   33570   33576       2
   33573   33570   33579       2   33573   33585   33591       2   33573   33585
   33594       2   33573   33585   33597       2   33570   33573   33582       2
   33570   33573   33588       2   33567   33555   33570       2   33564   33555
   33567       1   33564   33555   33570       2   33558   33546   33561       1
   33555   33546   33558       2   33555   33546   33561       2   33555   33570
   33576       2   33555   33570   33579       2   33549   33537   33552       1
   33546   33537   33549       2   33546   33537   33552       2   33546   33555
   33564       2   33546   33555   33567       2   33540   33528   33543       1
   33537   33528   33540       2   33537   33528   33543       2   33537   33546
   33558       2   33537   33546   33561       2   33531   33516   33534       1
   33528   33516   33531       2   33528   33516   33534       2   33528   33537
   33549       2   33528   33537   33552       2   33519   33498   33522       1
   33516   33498   33519       2   33516   33498   33522       2   33516   33528
   33540       2   33516   33528   33543       2   33507   33486   33510       4
   33507   33492   33513       4   33501   33483   33504       1   33498   33483
   33501       2   33498   33483   33504       2   33498   33516   33531       2
   33498   33516   33534       2   33492   33480   33495       4   33492   33507
   33525       4   33486   33477   33489       4   33486   33507   33525       4
   33483   33498   33519       2   33483   33498   33522       2   33480   33492
   33513       4   33477   33486   33510       4   33465   33447   33468       4
   33465   33453   33471       4   33465   33483   33501       8   33465   33483
   33504       8   33459   33477   33489      10   33459   33480   33495      10
   33456   33444   33462       4   33447   33429   33450       4   33444   33456
   33474       4   33438   33423   33441      10   33438   33456   33474      10
   33432   33453   33471       4   33429   33447   33468       4   33426   33444
   33462       4   33417   33429   33450       4   33414   33423   33441       4
   33786   33777   33789       1   33783   33777   33786       1   33783   33777
   33789       1   33777   33765   33780       2   33774   33765   33777       2
   33774   33765   33780       1   33768   33762   33771       1   33765   33762
   33768       2   33765   33762   33771       2   33765   33777   33783       2
   33765   33777   33786       2   33765   33777   33789       2   33762   33765
   33774       2   33762   33765   33780       2   33759   33747   33762       2
   33756   33747   33759       1   33756   33747   33762       2   33750   33738
   33753       1   33747   33738   33750       2   33747   33738   33753       2
   33747   33762   33768       2   33747   33762   33771       2   33741   33729
   33744       1   33738   33729   33741       2   33738   33729   33744       2
   33738   33747   33756       2   33738   33747   33759       2   33732   33720
   33735       1   33729   33720   33732       2   33729   33720   33735       2
   33729   33738   33750       2   33729   33738   33753       2   33723   33708
   33726       1   33720   33708   33723       2   33720   33708   33726       2
   33720   33729   33741       2   33720   33729   33744       2   33711   33690
   33714       1   33708   33690   33711       2   33708   33690   33714       2
   33708   33720   33732       2   33708   33720   33735       2   33699   33678
   33702       4   33699   33684   33705       4   33693   33675   33696       1
   33690   33675   33693       2   33690   33675   33696       2   33690   33708
   33723       2   33690   33708   33726       2   33684   33672   33687       4
   33684   33699   33717       4   33678   33669   33681       4   33678   33699
   33717       4   33675   33690   33711       2   33675   33690   33714       2
   33672   33684   33705       4   33669   33678   33702       4   33657   33639
   33660       4   33657   33645   33663       4   33657   33675   33693       8
   33657   33675   33696       8   33651   33669   33681      10   33651   33672
   33687      10   33648   33636   33654       4   33639   33621   33642       4
   33636   33648   33666       4   33630   33615   33633      10   33630   33648
   33666      10   33624   33645   33663       4   33621   33639   33660       4
   33618   33636   33654       4   33609   33621   33642       4   33606   33615
   33633       4   33978   33969   33981       1   33975   33969   33978       1
   33975   33969   33981       1   33969   33957   33972       2   33966   33957
   33969       2   33966   33957   33972       1   33960   33954   33963       1
   33957   33954   33960       2   33957   33954   33963       2   33957   33969
   33975       2   33957   33969   33978       2   33957   33969   33981       2
   33954   33957   33966       2   33954   33957   33972       2   33951   33939
   33954       2   33948   33939   33951       1   33948   33939   33954       2
   33942   33930   33945       1   33939   33930   33942       2   33939   33930
   33945       2   33939   33954   33960       2   33939   33954   33963       2
   33933   33921   33936       1   33930   33921   33933       2   33930   33921
   33936       2   33930   33939   33948       2   33930   33939   33951       2
   33924   33912   33927       1   33921   33912   33924       2   33921   33912
   33927       2   33921   33930   33942       2   33921   33930   33945       2
   33915   33900   33918       1   33912   33900   33915       2   33912   33900
   33918       2   33912   33921   33933       2   33912   33921   33936       2
   33903   33882   33906       1   33900   33882   33903       2   33900   33882
   33906       2   33900   33912   33924       2   33900   33912   33927       2
   33891   33870   33894       4   33891   33876   33897       4   33885   33867
   33888       1   33882   33867   33885       2   33882   33867   33888       2
   33882   33900   33915       2   33882   33900   33918       2   33876   33864
   33879       4   33876   33891   33909       4   33870   33861   33873       4
   33870   33891   33909       4   33867   33882   33903       2   33867   33882
   33906       2   33864   33876   33897       4   33861   33870   33894       4
   33849   33831   33852       4   33849   33837   33855       4   33849   33867
   33885       8   33849   33867   33888       8   33843   33861   33873      10
   33843   33864   33879      10   33840   33828   33846       4   33831   33813
   33834       4   33828   33840   33858       4   33822   33807   33825      10
   33822   33840   33858      10   33816   33837   33855       4   33813   33831
   33852       4   33810   33828   33846       4   33801   33813   33834       4
   33798   33807   33825       4   34170   34161   34173       1   34167   34161
   34170       1   34167   34161   34173       1   34161   34149   34164       2
   34158   34149   34161       2   34158   34149   34164       1   34152   34146
   34155       1   34149   34146   34152       2   34149   34146   34155       2
   34149   34161   34167       2   34149   34161   34170       2   34149   34161
   34173       2   34146   34149   34158       2   34146   34149   34164       2
   34143   34131   34146       2   34140   34131   34143       1   34140   34131
   34146       2   34134   34122   34137       1   34131   34122   34134       2
   34131   34122   34137       2   34131   34146   34152       2   34131   34146
   34155       2   34125   34113   34128       1   34122   34113   34125       2
   34122   34113   34128       2   34122   34131   34140       2   34122   34131
   34143       2   34116   34104   34119       1   34113   34104   34116       2
   34113   34104   34119       2   34113   34122   34134       2   34113   34122
   34137       2   34107   34092   34110       1   34104   34092   34107       2
   34104   34092   34110       2   34104   34113   34125       2   34104   34113
   34128       2   34095   34074   34098       1   34092   34074   34095       2
   34092   34074   34098       2   34092   34104   34116       2   34092   34104
   34119       2   34083   34062   34086       4   34083   34068   34089       4
   34077   34059   34080       1   34074   34059   34077       2   34074   34059
   34080       2   34074   34092   34107       2   34074   34092   34110       2
   34068   34056   34071       4   34068   34083   34101       4   34062   34053
   34065       4   34062   34083   34101       4   34059   34074   34095       2
   34059   34074   34098       2   34056   34068   34089       4   34053   34062
   34086       4   34041   34023   34044       4   34041   34029   34047       4
   34041   34059   34077       8   34041   34059   34080       8   34035   34053
   34065      10   34035   34056   34071      10   34032   34020   34038       4
   34023   34005   34026       4   34020   34032   34050       4   34014   33999
   34017      10   34014   34032   34050      10   34008   34029   34047       4
   34005   34023   34044       4   34002   34020   34038       4   33993   34005
   34026       4   33990   33999   34017       4   34362   34353   34365       1
   34359   34353   34362       1   34359   34353   34365       1   34353   34341
   34356       2   34350   34341   34353       2   34350   34341   34356       1
   34344   34338   34347       1   34341   34338   34344       2   34341   34338
   34347       2   34341   34353   34359       2   34341   34353   34362       2
   34341   34353   34365       2   34338   34341   34350       2   34338   34341
   34356       2   34335   34323   34338       2   34332   34323   34335       1
   34332   34323   34338       2   34326   34314   34329       1   34323   34314
   34326       2   34323   34314   34329       2   34323   34338   34344       2
   34323   34338   34347       2   34317   34305   34320       1   34314   34305
   34317       2   34314   34305   34320       2   34314   34323   34332       2
   34314   34323   34335       2   34308   34296   34311       1   34305   34296
   34308       2   34305   34296   34311       2   34305   34314   34326       2
   34305   34314   34329       2   34299   34284   34302       1   34296   34284
   34299       2   34296   34284   34302       2   34296   34305   34317       2
   34296   34305   34320       2   34287   34266   34290       1   34284   34266
   34287       2   34284   34266   34290       2   34284   34296   34308       2
   34284   34296   34311       2   34275   34254   34278       4   34275   34260
   34281       4   34269   34251   34272       1   34266   34251   34269       2
   34266   34251   34272       2   34266   34284   34299       2   34266   34284
   34302       2   34260   34248   34263       4   34260   34275   34293       4
   34254   34245   34257       4   34254   34275   34293       4   34251   34266
   34287       2   34251   34266   34290       2   34248   34260   34281       4
   34245   34254   34278       4   34233   34215   34236       4   34233   34221
   34239       4   34233   34251   34269       8   34233   34251   34272       8
   34227   34245   34257      10   34227   34248   34263      10   34224   34212
   34230       4   34215   34197   34218       4   34212   34224   34242       4
   34206   34191   34209      10   34206   34224   34242      10   34200   34221
   34239       4   34197   34215   34236       4   34194   34212   34230       4
   34185   34197   34218       4   34182   34191   34209       4   34554   34545
   34557       1   34551   34545   34554       1   34551   34545   34557       1
   34545   34533   34548       2   34542   34533   34545       2   34542   34533
   34548       1   34536   34530   34539       1   34533   34530   34536       2
   34533   34530   34539       2   34533   34545   34551       2   34533   34545
   34554       2   34533   34545   34557       2   34530   34533   34542       2
   34530   34533   34548       2   34527   34515   34530       2   34524   34515
   34527       1   34524   34515   34530       2   34518   34506   34521       1
   34515   34506   34518       2   34515   34506   34521       2   34515   34530
   34536       2   34515   34530   34539       2   34509   34497   34512       1
   34506   34497   34509       2   34506   34497   34512       2   34506   34515
   34524       2   34506   34515   34527       2   34500   34488   34503       1
   34497   34488   34500       2   34497   34488   34503       2   34497   34506
   34518       2   34497   34506   34521       2   34491   34476   34494       1
   34488   34476   34491       2   34488   34476   34494       2   34488   34497
   34509       2   34488   34497   34512       2   34479   34458   34482       1
   34476   34458   34479       2   34476   34458   34482       2   34476   34488
   34500       2   34476   34488   34503       2   34467   34446   34470       4
   34467   34452   34473       4   34461   34443   34464       1   34458   34443
   34461       2   34458   34443   34464       2   34458   34476   34491       2
   34458   34476   34494       2   34452   34440   34455       4   34452   34467
   34485       4   34446   34437   34449       4   34446   34467   34485       4
   34443   34458   34479       2   34443   34458   34482       2   34440   34452
   34473       4   34437   34446   34470       4   34425   34407   34428       4
   34425   34413   34431       4   34425   34443   34461       8   34425   34443
   34464       8   34419   34437   34449      10   34419   34440   34455      10
   34416   34404   34422       4   34407   34389   34410       4   34404   34416
   34434       4   34398   34383   34401      10   34398   34416   34434      10
   34392   34413   34431       4   34389   34407   34428       4   34386   34404
   34422       4   34377   34389   34410       4   34374   34383   34401       4
   34746   34737   34749       1   34743   34737   34746       1   34743   34737
   34749       1   34737   34725   34740       2   34734   34725   34737       2
   34734   34725   34740       1   34728   34722   34731       1   34725   34722
   34728       2   34725   34722   34731       2   34725   34737   34743       2
   34725   34737   34746       2   34725   34737   34749       2   34722   34725
   34734       2   34722   34725   34740       2   34719   34707   34722       2
   34716   34707   34719       1   34716   34707   34722       2   34710   34698
   34713       1   34707   34698   34710       2   34707   34698   34713       2
   34707   34722   34728       2   34707   34722   34731       2   34701   34689
   34704       1   34698   34689   34701       2   34698   34689   34704       2
   34698   34707   34716       2   34698   34707   34719       2   34692   34680
   34695       1   34689   34680   34692       2   34689   34680   34695       2
   34689   34698   34710       2   34689   34698   34713       2   34683   34668
   34686       1   34680   34668   34683       2   34680   34668   34686       2
   34680   34689   34701       2   34680   34689   34704       2   34671   34650
   34674       1   34668   34650   34671       2   34668   34650   34674       2
   34668   34680   34692       2   34668   34680   34695       2   34659   34638
   34662       4   34659   34644   34665       4   34653   34635   34656       1
   34650   34635   34653       2   34650   34635   34656       2   34650   34668
   34683       2   34650   34668   34686       2   34644   34632   34647       4
   34644   34659   34677       4   34638   34629   34641       4   34638   34659
   34677       4   34635   34650   34671       2   34635   34650   34674       2
   34632   34644   34665       4   34629   34638   34662       4   34617   34599
   34620       4   34617   34605   34623       4   34617   34635   34653       8
   34617   34635   34656       8   34611   34629   34641      10   34611   34632
   34647      10   34608   34596   34614       4   34599   34581   34602       4
   34596   34608   34626       4   34590   34575   34593      10   34590   34608
   34626      10   34584   34605   34623       4   34581   34599   34620       4
   34578   34596   34614       4   34569   34581   34602       4   34566   34575
   34593       4   34938   34929   34941       1   34935   34929   34938       1
   34935   34929   34941       1   34929   34917   34932       2   34926   34917
   34929       2   34926   34917   34932       1   34920   34914   34923       1
   34917   34914   34920       2   34917   34914   34923       2   34917   34929
   34935       2   34917   34929   34938       2   34917   34929   34941       2
   34914   34917   34926       2   34914   34917   34932       2   34911   34899
   34914       2   34908   34899   34911       1   34908   34899   34914       2
   34902   34890   34905       1   34899   34890   34902       2   34899   34890
   34905       2   34899   34914   34920       2   34899   34914   34923       2
   34893   34881   34896       1   34890   34881   34893       2   34890   34881
   34896       2   34890   34899   34908       2   34890   34899   34911       2
   34884   34872   34887       1   34881   34872   34884       2   34881   34872
   34887       2   34881   34890   34902       2   34881   34890   34905       2
   34875   34860   34878       1   34872   34860   34875       2   34872   34860
   34878       2   34872   34881   34893       2   34872   34881   34896       2
   34863   34842   34866       1   34860   34842   34863       2   34860   34842
   34866       2   34860   34872   34884       2   34860   34872   34887       2
   34851   34830   34854       4   34851   34836   34857       4   34845   34827
   34848       1   34842   34827   34845       2   34842   34827   34848       2
   34842   34860   34875       2   34842   34860   34878       2   34836   34824
   34839       4   34836   34851   34869       4   34830   34821   34833       4
   34830   34851   34869       4   34827   34842   34863       2   34827   34842
   34866       2   34824   34836   34857       4   34821   34830   34854       4
   34809   34791   34812       4   34809   34797   34815       4   34809   34827
   34845       8   34809   34827   34848       8   34803   34821   34833      10
   34803   34824   34839      10   34800   34788   34806       4   34791   34773
   34794       4   34788   34800   34818       4   34782   34767   34785      10
   34782   34800   34818      10   34776   34797   34815       4   34773   34791
   34812       4   34770   34788   34806       4   34761   34773   34794       4
   34758   34767   34785       4   35130   35121   35133       1   35127   35121
   35130       1   35127   35121   35133       1   35121   35109   35124       2
   35118   35109   35121       2   35118   35109   35124       1   35112   35106
   35115       1   35109   35106   35112       2   35109   35106   35115       2
   35109   35121   35127       2   35109   35121   35130       2   35109   35121
   35133       2   35106   35109   35118       2   35106   35109   35124       2
   35103   35091   35106       2   35100   35091   35103       1   35100   35091
   35106       2   35094   35082   35097       1   35091   35082   35094       2
   35091   35082   35097       2   35091   35106   35112       2   35091   35106
   35115       2   35085   35073   35088       1   35082   35073   35085       2
   35082   35073   35088       2   35082   35091   35100       2   35082   35091
   35103       2   35076   35064   35079       1   35073   35064   35076       2
   35073   35064   35079       2   35073   35082   35094       2   35073   35082
   35097       2   35067   35052   35070       1   35064   35052   35067       2
   35064   35052   35070       2   35064   35073   35085       2   35064   35073
   35088       2   35055   35034   35058       1   35052   35034   35055       2
   35052   35034   35058       2   35052   35064   35076       2   35052   35064
   35079       2   35043   35022   35046       4   35043   35028   35049       4
   35037   35019   35040       1   35034   35019   35037       2   35034   35019
   35040       2   35034   35052   35067       2   35034   35052   35070       2
   35028   35016   35031       4   35028   35043   35061       4   35022   35013
   35025       4   35022   35043   35061       4   35019   35034   35055       2
   35019   35034   35058       2   35016   35028   35049       4   35013   35022
   35046       4   35001   34983   35004       4   35001   34989   35007       4
   35001   35019   35037       8   35001   35019   35040       8   34995   35013
   35025      10   34995   35016   35031      10   34992   34980   34998       4
   34983   34965   34986       4   34980   34992   35010       4   34974   34959
   34977      10   34974   34992   35010      10   34968   34989   35007       4
   34965   34983   35004       4   34962   34980   34998       4   34953   34965
   34986       4   34950   34959   34977       4   35322   35313   35325       1
   35319   35313   35322       1   35319   35313   35325       1   35313   35301
   35316       2   35310   35301   35313       2   35310   35301   35316       1
   35304   35298   35307       1   35301   35298   35304       2   35301   35298
   35307       2   35301   35313   35319       2   35301   35313   35322       2
   35301   35313   35325       2   35298   35301   35310       2   35298   35301
   35316       2   35295   35283   35298       2   35292   35283   35295       1
   35292   35283   35298       2   35286   35274   35289       1   35283   35274
   35286       2   35283   35274   35289       2   35283   35298   35304       2
   35283   35298   35307       2   35277   35265   35280       1   35274   35265
   35277       2   35274   35265   35280       2   35274   35283   35292       2
   35274   35283   35295       2   35268   35256   35271       1   35265   35256
   35268       2   35265   35256   35271       2   35265   35274   35286       2
   35265   35274   35289       2   35259   35244   35262       1   35256   35244
   35259       2   35256   35244   35262       2   35256   35265   35277       2
   35256   35265   35280       2   35247   35226   35250       1   35244   35226
   35247       2   35244   35226   35250       2   35244   35256   35268       2
   35244   35256   35271       2   35235   35214   35238       4   35235   35220
   35241       4   35229   35211   35232       1   35226   35211   35229       2
   35226   35211   35232       2   35226   35244   35259       2   35226   35244
   35262       2   35220   35208   35223       4   35220   35235   35253       4
   35214   35205   35217       4   35214   35235   35253       4   35211   35226
   35247       2   35211   35226   35250       2   35208   35220   35241       4
   35205   35214   35238       4   35193   35175   35196       4   35193   35181
   35199       4   35193   35211   35229       8   35193   35211   35232       8
   35187   35205   35217      10   35187   35208   35223      10   35184   35172
   35190       4   35175   35157   35178       4   35172   35184   35202       4
   35166   35151   35169      10   35166   35184   35202      10   35160   35181
   35199       4   35157   35175   35196       4   35154   35172   35190       4
   35145   35157   35178       4   35142   35151   35169       4   35514   35505
   35517       1   35511   35505   35514       1   35511   35505   35517       1
   35505   35493   35508       2   35502   35493   35505       2   35502   35493
   35508       1   35496   35490   35499       1   35493   35490   35496       2
   35493   35490   35499       2   35493   35505   35511       2   35493   35505
   35514       2   35493   35505   35517       2   35490   35493   35502       2
   35490   35493   35508       2   35487   35475   35490       2   35484   35475
   35487       1   35484   35475   35490       2   35478   35466   35481       1
   35475   35466   35478       2   35475   35466   35481       2   35475   35490
   35496       2   35475   35490   35499       2   35469   35457   35472       1
   35466   35457   35469       2   35466   35457   35472       2   35466   35475
   35484       2   35466   35475   35487       2   35460   35448   35463       1
   35457   35448   35460       2   35457   35448   35463       2   35457   35466
   35478       2   35457   35466   35481       2   35451   35436   35454       1
   35448   35436   35451       2   35448   35436   35454       2   35448   35457
   35469       2   35448   35457   35472       2   35439   35418   35442       1
   35436   35418   35439       2   35436   35418   35442       2   35436   35448
   35460       2   35436   35448   35463       2   35427   35406   35430       4
   35427   35412   35433       4   35421   35403   35424       1   35418   35403
   35421       2   35418   35403   35424       2   35418   35436   35451       2
   35418   35436   35454       2   35412   35400   35415       4   35412   35427
   35445       4   35406   35397   35409       4   35406   35427   35445       4
   35403   35418   35439       2   35403   35418   35442       2   35400   35412
   35433       4   35397   35406   35430       4   35385   35367   35388       4
   35385   35373   35391       4   35385   35403   35421       8   35385   35403
   35424       8   35379   35397   35409      10   35379   35400   35415      10
   35376   35364   35382       4   35367   35349   35370       4   35364   35376
   35394       4   35358   35343   35361      10   35358   35376   35394      10
   35352   35373   35391       4   35349   35367   35388       4   35346   35364
   35382       4   35337   35349   35370       4   35334   35343   35361       4
   35706   35697   35709       1   35703   35697   35706       1   35703   35697
   35709       1   35697   35685   35700       2   35694   35685   35697       2
   35694   35685   35700       1   35688   35682   35691       1   35685   35682
   35688       2   35685   35682   35691       2   35685   35697   35703       2
   35685   35697   35706       2   35685   35697   35709       2   35682   35685
   35694       2   35682   35685   35700       2   35679   35667   35682       2
   35676   35667   35679       1   35676   35667   35682       2   35670   35658
   35673       1   35667   35658   35670       2   35667   35658   35673       2
   35667   35682   35688       2   35667   35682   35691       2   35661   35649
   35664       1   35658   35649   35661       2   35658   35649   35664       2
   35658   35667   35676       2   35658   35667   35679       2   35652   35640
   35655       1   35649   35640   35652       2   35649   35640   35655       2
   35649   35658   35670       2   35649   35658   35673       2   35643   35628
   35646       1   35640   35628   35643       2   35640   35628   35646       2
   35640   35649   35661       2   35640   35649   35664       2   35631   35610
   35634       1   35628   35610   35631       2   35628   35610   35634       2
   35628   35640   35652       2   35628   35640   35655       2   35619   35598
   35622       4   35619   35604   35625       4   35613   35595   35616       1
   35610   35595   35613       2   35610   35595   35616       2   35610   35628
   35643       2   35610   35628   35646       2   35604   35592   35607       4
   35604   35619   35637       4   35598   35589   35601       4   35598   35619
   35637       4   35595   35610   35631       2   35595   35610   35634       2
   35592   35604   35625       4   35589   35598   35622       4   35577   35559
   35580       4   35577   35565   35583       4   35577   35595   35613       8
   35577   35595   35616       8   35571   35589   35601      10   35571   35592
   35607      10   35568   35556   35574       4   35559   35541   35562       4
   35556   35568   35586       4   35550   35535   35553      10   35550   35568
   35586      10   35544   35565   35583       4   35541   35559   35580       4
   35538   35556   35574       4   35529   35541   35562       4   35526   35535
   35553       4   35898   35889   35901       1   35895   35889   35898       1
   35895   35889   35901       1   35889   35877   35892       2   35886   35877
   35889       2   35886   35877   35892       1   35880   35874   35883       1
   35877   35874   35880       2   35877   35874   35883       2   35877   35889
   35895       2   35877   35889   35898       2   35877   35889   35901       2
   35874   35877   35886       2   35874   35877   35892       2   35871   35859
   35874       2   35868   35859   35871       1   35868   35859   35874       2
   35862   35850   35865       1   35859   35850   35862       2   35859   35850
   35865       2   35859   35874   35880       2   35859   35874   35883       2
   35853   35841   35856       1   35850   35841   35853       2   35850   35841
   35856       2   35850   35859   35868       2   35850   35859   35871       2
   35844   35832   35847       1   35841   35832   35844       2   35841   35832
   35847       2   35841   35850   35862       2   35841   35850   35865       2
   35835   35820   35838       1   35832   35820   35835       2   35832   35820
   35838       2   35832   35841   35853       2   35832   35841   35856       2
   35823   35802   35826       1   35820   35802   35823       2   35820   35802
   35826       2   35820   35832   35844       2   35820   35832   35847       2
   35811   35790   35814       4   35811   35796   35817       4   35805   35787
   35808       1   35802   35787   35805       2   35802   35787   35808       2
   35802   35820   35835       2   35802   35820   35838       2   35796   35784
   35799       4   35796   35811   35829       4   35790   35781   35793       4
   35790   35811   35829       4   35787   35802   35823       2   35787   35802
   35826       2   35784   35796   35817       4   35781   35790   35814       4
   35769   35751   35772       4   35769   35757   35775       4   35769   35787
   35805       8   35769   35787   35808       8   35763   35781   35793      10
   35763   35784   35799      10   35760   35748   35766       4   35751   35733
   35754       4   35748   35760   35778       4   35742   35727   35745      10
   35742   35760   35778      10   35736   35757   35775       4   35733   35751
   35772       4   35730   35748   35766       4   35721   35733   35754       4
   35718   35727   35745       4   36090   36081   36093       1   36087   36081
   36090       1   36087   36081   36093       1   36081   36069   36084       2
   36078   36069   36081       2   36078   36069   36084       1   36072   36066
   36075       1   36069   36066   36072       2   36069   36066   36075       2
   36069   36081   36087       2   36069   36081   36090       2   36069   36081
   36093       2   36066   36069   36078       2   36066   36069   36084       2
   36063   36051   36066       2   36060   36051   36063       1   36060   36051
   36066       2   36054   36042   36057       1   36051   36042   36054       2
   36051   36042   36057       2   36051   36066   36072       2   36051   36066
   36075       2   36045   36033   36048       1   36042   36033   36045       2
   36042   36033   36048       2   36042   36051   36060       2   36042   36051
   36063       2   36036   36024   36039       1   36033   36024   36036       2
   36033   36024   36039       2   36033   36042   36054       2   36033   36042
   36057       2   36027   36012   36030       1   36024   36012   36027       2
   36024   36012   36030       2   36024   36033   36045       2   36024   36033
   36048       2   36015   35994   36018       1   36012   35994   36015       2
   36012   35994   36018       2   36012   36024   36036       2   36012   36024
   36039       2   36003   35982   36006       4   36003   35988   36009       4
   35997   35979   36000       1   35994   35979   35997       2   35994   35979
   36000       2   35994   36012   36027       2   35994   36012   36030       2
   35988   35976   35991       4   35988   36003   36021       4   35982   35973
   35985       4   35982   36003   36021       4   35979   35994   36015       2
   35979   35994   36018       2   35976   35988   36009       4   35973   35982
   36006       4   35961   35943   35964       4   35961   35949   35967       4
   35961   35979   35997       8   35961   35979   36000       8   35955   35973
   35985      10   35955   35976   35991      10   35952   35940   35958       4
   35943   35925   35946       4   35940   35952   35970       4   35934   35919
   35937      10   35934   35952   35970      10   35928   35949   35967       4
   35925   35943   35964       4   35922   35940   35958       4   35913   35925
   35946       4   35910   35919   35937       4   36282   36273   36285       1
   36279   36273   36282       1   36279   36273   36285       1   36273   36261
   36276       2   36270   36261   36273       2   36270   36261   36276       1
   36264   36258   36267       1   36261   36258   36264       2   36261   36258
   36267       2   36261   36273   36279       2   36261   36273   36282       2
   36261   36273   36285       2   36258   36261   36270       2   36258   36261
   36276       2   36255   36243   36258       2   36252   36243   36255       1
   36252   36243   36258       2   36246   36234   36249       1   36243   36234
   36246       2   36243   36234   36249       2   36243   36258   36264       2
   36243   36258   36267       2   36237   36225   36240       1   36234   36225
   36237       2   36234   36225   36240       2   36234   36243   36252       2
   36234   36243   36255       2   36228   36216   36231       1   36225   36216
   36228       2   36225   36216   36231       2   36225   36234   36246       2
   36225   36234   36249       2   36219   36204   36222       1   36216   36204
   36219       2   36216   36204   36222       2   36216   36225   36237       2
   36216   36225   36240       2   36207   36186   36210       1   36204   36186
   36207       2   36204   36186   36210       2   36204   36216   36228       2
   36204   36216   36231       2   36195   36174   36198       4   36195   36180
   36201       4   36189   36171   36192       1   36186   36171   36189       2
   36186   36171   36192       2   36186   36204   36219       2   36186   36204
   36222       2   36180   36168   36183       4   36180   36195   36213       4
   36174   36165   36177       4   36174   36195   36213       4   36171   36186
   36207       2   36171   36186   36210       2   36168   36180   36201       4
   36165   36174   36198       4   36153   36135   36156       4   36153   36141
   36159       4   36153   36171   36189       8   36153   36171   36192       8
   36147   36165   36177      10   36147   36168   36183      10   36144   36132
   36150       4   36135   36117   36138       4   36132   36144   36162       4
   36126   36111   36129      10   36126   36144   36162      10   36120   36141
   36159       4   36117   36135   36156       4   36114   36132   36150       4
   36105   36117   36138       4   36102   36111   36129       4   36474   36465
   36477       1   36471   36465   36474       1   36471   36465   36477       1
   36465   36453   36468       2   36462   36453   36465       2   36462   36453
   36468       1   36456   36450   36459       1   36453   36450   36456       2
   36453   36450   36459       2   36453   36465   36471       2   36453   36465
   36474       2   36453   36465   36477       2   36450   36453   36462       2
   36450   36453   36468       2   36447   36435   36450       2   36444   36435
   36447       1   36444   36435   36450       2   36438   36426   36441       1
   36435   36426   36438       2   36435   36426   36441       2   36435   36450
   36456       2   36435   36450   36459       2   36429   36417   36432       1
   36426   36417   36429       2   36426   36417   36432       2   36426   36435
   36444       2   36426   36435   36447       2   36420   36408   36423       1
   36417   36408   36420       2   36417   36408   36423       2   36417   36426
   36438       2   36417   36426   36441       2   36411   36396   36414       1
   36408   36396   36411       2   36408   36396   36414       2   36408   36417
   36429       2   36408   36417   36432       2   36399   36378   36402       1
   36396   36378   36399       2   36396   36378   36402       2   36396   36408
   36420       2   36396   36408   36423       2   36387   36366   36390       4
   36387   36372   36393       4   36381   36363   36384       1   36378   36363
   36381       2   36378   36363   36384       2   36378   36396   36411       2
   36378   36396   36414       2   36372   36360   36375       4   36372   36387
   36405       4   36366   36357   36369       4   36366   36387   36405       4
   36363   36378   36399       2   36363   36378   36402       2   36360   36372
   36393       4   36357   36366   36390       4   36345   36327   36348       4
   36345   36333   36351       4   36345   36363   36381       8   36345   36363
   36384       8   36339   36357   36369      10   36339   36360   36375      10
   36336   36324   36342       4   36327   36309   36330       4   36324   36336
   36354       4   36318   36303   36321      10   36318   36336   36354      10
   36312   36333   36351       4   36309   36327   36348       4   36306   36324
   36342       4   36297   36309   36330       4   36294   36303   36321       4
   36666   36657   36669       1   36663   36657   36666       1   36663   36657
   36669       1   36657   36645   36660       2   36654   36645   36657       2
   36654   36645   36660       1   36648   36642   36651       1   36645   36642
   36648       2   36645   36642   36651       2   36645   36657   36663       2
   36645   36657   36666       2   36645   36657   36669       2   36642   36645
   36654       2   36642   36645   36660       2   36639   36627   36642       2
   36636   36627   36639       1   36636   36627   36642       2   36630   36618
   36633       1   36627   36618   36630       2   36627   36618   36633       2
   36627   36642   36648       2   36627   36642   36651       2   36621   36609
   36624       1   36618   36609   36621       2   36618   36609   36624       2
   36618   36627   36636       2   36618   36627   36639       2   36612   36600
   36615       1   36609   36600   36612       2   36609   36600   36615       2
   36609   36618   36630       2   36609   36618   36633       2   36603   36588
   36606       1   36600   36588   36603       2   36600   36588   36606       2
   36600   36609   36621       2   36600   36609   36624       2   36591   36570
   36594       1   36588   36570   36591       2   36588   36570   36594       2
   36588   36600   36612       2   36588   36600   36615       2   36579   36558
   36582       4   36579   36564   36585       4   36573   36555   36576       1
   36570   36555   36573       2   36570   36555   36576       2   36570   36588
   36603       2   36570   36588   36606       2   36564   36552   36567       4
   36564   36579   36597       4   36558   36549   36561       4   36558   36579
   36597       4   36555   36570   36591       2   36555   36570   36594       2
   36552   36564   36585       4   36549   36558   36582       4   36537   36519
   36540       4   36537   36525   36543       4   36537   36555   36573       8
   36537   36555   36576       8   36531   36549   36561      10   36531   36552
   36567      10   36528   36516   36534       4   36519   36501   36522       4
   36516   36528   36546       4   36510   36495   36513      10   36510   36528
   36546      10   36504   36525   36543       4   36501   36519   36540       4
   36498   36516   36534       4   36489   36501   36522       4   36486   36495
   36513       4   36858   36849   36861       1   36855   36849   36858       1
   36855   36849   36861       1   36849   36837   36852       2   36846   36837
   36849       2   36846   36837   36852       1   36840   36834   36843       1
   36837   36834   36840       2   36837   36834   36843       2   36837   36849
   36855       2   36837   36849   36858       2   36837   36849   36861       2
   36834   36837   36846       2   36834   36837   36852       2   36831   36819
   36834       2   36828   36819   36831       1   36828   36819   36834       2
   36822   36810   36825       1   36819   36810   36822       2   36819   36810
   36825       2   36819   36834   36840       2   36819   36834   36843       2
   36813   36801   36816       1   36810   36801   36813       2   36810   36801
   36816       2   36810   36819   36828       2   36810   36819   36831       2
   36804   36792   36807       1   36801   36792   36804       2   36801   36792
   36807       2   36801   36810   36822       2   36801   36810   36825       2
   36795   36780   36798       1   36792   36780   36795       2   36792   36780
   36798       2   36792   36801   36813       2   36792   36801   36816       2
   36783   36762   36786       1   36780   36762   36783       2   36780   36762
   36786       2   36780   36792   36804       2   36780   36792   36807       2
   36771   36750   36774       4   36771   36756   36777       4   36765   36747
   36768       1   36762   36747   36765       2   36762   36747   36768       2
   36762   36780   36795       2   36762   36780   36798       2   36756   36744
   36759       4   36756   36771   36789       4   36750   36741   36753       4
   36750   36771   36789       4   36747   36762   36783       2   36747   36762
   36786       2   36744   36756   36777       4   36741   36750   36774       4
   36729   36711   36732       4   36729   36717   36735       4   36729   36747
   36765       8   36729   36747   36768       8   36723   36741   36753      10
   36723   36744   36759      10   36720   36708   36726       4   36711   36693
   36714       4   36708   36720   36738       4   36702   36687   36705      10
   36702   36720   36738      10   36696   36717   36735       4   36693   36711
   36732       4   36690   36708   36726       4   36681   36693   36714       4
   36678   36687   36705       4   37050   37041   37053       1   37047   37041
   37050       1   37047   37041   37053       1   37041   37029   37044       2
   37038   37029   37041       2   37038   37029   37044       1   37032   37026
   37035       1   37029   37026   37032       2   37029   37026   37035       2
   37029   37041   37047       2   37029   37041   37050       2   37029   37041
   37053       2   37026   37029   37038       2   37026   37029   37044       2
   37023   37011   37026       2   37020   37011   37023       1   37020   37011
   37026       2   37014   37002   37017       1   37011   37002   37014       2
   37011   37002   37017       2   37011   37026   37032       2   37011   37026
   37035       2   37005   36993   37008       1   37002   36993   37005       2
   37002   36993   37008       2   37002   37011   37020       2   37002   37011
   37023       2   36996   36984   36999       1   36993   36984   36996       2
   36993   36984   36999       2   36993   37002   37014       2   36993   37002
   37017       2   36987   36972   36990       1   36984   36972   36987       2
   36984   36972   36990       2   36984   36993   37005       2   36984   36993
   37008       2   36975   36954   36978       1   36972   36954   36975       2
   36972   36954   36978       2   36972   36984   36996       2   36972   36984
   36999       2   36963   36942   36966       4   36963   36948   36969       4
   36957   36939   36960       1   36954   36939   36957       2   36954   36939
   36960       2   36954   36972   36987       2   36954   36972   36990       2
   36948   36936   36951       4   36948   36963   36981       4   36942   36933
   36945       4   36942   36963   36981       4   36939   36954   36975       2
   36939   36954   36978       2   36936   36948   36969       4   36933   36942
   36966       4   36921   36903   36924       4   36921   36909   36927       4
   36921   36939   36957       8   36921   36939   36960       8   36915   36933
   36945      10   36915   36936   36951      10   36912   36900   36918       4
   36903   36885   36906       4   36900   36912   36930       4   36894   36879
   36897      10   36894   36912   36930      10   36888   36909   36927       4
   36885   36903   36924       4   36882   36900   36918       4   36873   36885
   36906       4   36870   36879   36897       4   37242   37233   37245       1
   37239   37233   37242       1   37239   37233   37245       1   37233   37221
   37236       2   37230   37221   37233       2   37230   37221   37236       1
   37224   37218   37227       1   37221   37218   37224       2   37221   37218
   37227       2   37221   37233   37239       2   37221   37233   37242       2
   37221   37233   37245       2   37218   37221   37230       2   37218   37221
   37236       2   37215   37203   37218       2   37212   37203   37215       1
   37212   37203   37218       2   37206   37194   37209       1   37203   37194
   37206       2   37203   37194   37209       2   37203   37218   37224       2
   37203   37218   37227       2   37197   37185   37200       1   37194   37185
   37197       2   37194   37185   37200       2   37194   37203   37212       2
   37194   37203   37215       2   37188   37176   37191       1   37185   37176
   37188       2   37185   37176   37191       2   37185   37194   37206       2
   37185   37194   37209       2   37179   37164   37182       1   37176   37164
   37179       2   37176   37164   37182       2   37176   37185   37197       2
   37176   37185   37200       2   37167   37146   37170       1   37164   37146
   37167       2   37164   37146   37170       2   37164   37176   37188       2
   37164   37176   37191       2   37155   37134   37158       4   37155   37140
   37161       4   37149   37131   37152       1   37146   37131   37149       2
   37146   37131   37152       2   37146   37164   37179       2   37146   37164
   37182       2   37140   37128   37143       4   37140   37155   37173       4
   37134   37125   37137       4   37134   37155   37173       4   37131   37146
   37167       2   37131   37146   37170       2   37128   37140   37161       4
   37125   37134   37158       4   37113   37095   37116       4   37113   37101
   37119       4   37113   37131   37149       8   37113   37131   37152       8
   37107   37125   37137      10   37107   37128   37143      10   37104   37092
   37110       4   37095   37077   37098       4   37092   37104   37122       4
   37086   37071   37089      10   37086   37104   37122      10   37080   37101
   37119       4   37077   37095   37116       4   37074   37092   37110       4
   37065   37077   37098       4   37062   37071   37089       4   37434   37425
   37437       1   37431   37425   37434       1   37431   37425   37437       1
   37425   37413   37428       2   37422   37413   37425       2   37422   37413
   37428       1   37416   37410   37419       1   37413   37410   37416       2
   37413   37410   37419       2   37413   37425   37431       2   37413   37425
   37434       2   37413   37425   37437       2   37410   37413   37422       2
   37410   37413   37428       2   37407   37395   37410       2   37404   37395
   37407       1   37404   37395   37410       2   37398   37386   37401       1
   37395   37386   37398       2   37395   37386   37401       2   37395   37410
   37416       2   37395   37410   37419       2   37389   37377   37392       1
   37386   37377   37389       2   37386   37377   37392       2   37386   37395
   37404       2   37386   37395   37407       2   37380   37368   37383       1
   37377   37368   37380       2   37377   37368   37383       2   37377   37386
   37398       2   37377   37386   37401       2   37371   37356   37374       1
   37368   37356   37371       2   37368   37356   37374       2   37368   37377
   37389       2   37368   37377   37392       2   37359   37338   37362       1
   37356   37338   37359       2   37356   37338   37362       2   37356   37368
   37380       2   37356   37368   37383       2   37347   37326   37350       4
   37347   37332   37353       4   37341   37323   37344       1   37338   37323
   37341       2   37338   37323   37344       2   37338   37356   37371       2
   37338   37356   37374       2   37332   37320   37335       4   37332   37347
   37365       4   37326   37317   37329       4   37326   37347   37365       4
   37323   37338   37359       2   37323   37338   37362       2   37320   37332
   37353       4   37317   37326   37350       4   37305   37287   37308       4
   37305   37293   37311       4   37305   37323   37341       8   37305   37323
   37344       8   37299   37317   37329      10   37299   37320   37335      10
   37296   37284   37302       4   37287   37269   37290       4   37284   37296
   37314       4   37278   37263   37281      10   37278   37296   37314      10
   37272   37293   37311       4   37269   37287   37308       4   37266   37284
   37302       4   37257   37269   37290       4   37254   37263   37281       4
   37626   37617   37629       1   37623   37617   37626       1   37623   37617
   37629       1   37617   37605   37620       2   37614   37605   37617       2
   37614   37605   37620       1   37608   37602   37611       1   37605   37602
   37608       2   37605   37602   37611       2   37605   37617   37623       2
   37605   37617   37626       2   37605   37617   37629       2   37602   37605
   37614       2   37602   37605   37620       2   37599   37587   37602       2
   37596   37587   37599       1   37596   37587   37602       2   37590   37578
   37593       1   37587   37578   37590       2   37587   37578   37593       2
   37587   37602   37608       2   37587   37602   37611       2   37581   37569
   37584       1   37578   37569   37581       2   37578   37569   37584       2
   37578   37587   37596       2   37578   37587   37599       2   37572   37560
   37575       1   37569   37560   37572       2   37569   37560   37575       2
   37569   37578   37590       2   37569   37578   37593       2   37563   37548
   37566       1   37560   37548   37563       2   37560   37548   37566       2
   37560   37569   37581       2   37560   37569   37584       2   37551   37530
   37554       1   37548   37530   37551       2   37548   37530   37554       2
   37548   37560   37572       2   37548   37560   37575       2   37539   37518
   37542       4   37539   37524   37545       4   37533   37515   37536       1
   37530   37515   37533       2   37530   37515   37536       2   37530   37548
   37563       2   37530   37548   37566       2   37524   37512   37527       4
   37524   37539   37557       4   37518   37509   37521       4   37518   37539
   37557       4   37515   37530   37551       2   37515   37530   37554       2
   37512   37524   37545       4   37509   37518   37542       4   37497   37479
   37500       4   37497   37485   37503       4   37497   37515   37533       8
   37497   37515   37536       8   37491   37509   37521      10   37491   37512
   37527      10   37488   37476   37494       4   37479   37461   37482       4
   37476   37488   37506       4   37470   37455   37473      10   37470   37488
   37506      10   37464   37485   37503       4   37461   37479   37500       4
   37458   37476   37494       4   37449   37461   37482       4   37446   37455
   37473       4   37818   37809   37821       1   37815   37809   37818       1
   37815   37809   37821       1   37809   37797   37812       2   37806   37797
   37809       2   37806   37797   37812       1   37800   37794   37803       1
   37797   37794   37800       2   37797   37794   37803       2   37797   37809
   37815       2   37797   37809   37818       2   37797   37809   37821       2
   37794   37797   37806       2   37794   37797   37812       2   37791   37779
   37794       2   37788   37779   37791       1   37788   37779   37794       2
   37782   37770   37785       1   37779   37770   37782       2   37779   37770
   37785       2   37779   37794   37800       2   37779   37794   37803       2
   37773   37761   37776       1   37770   37761   37773       2   37770   37761
   37776       2   37770   37779   37788       2   37770   37779   37791       2
   37764   37752   37767       1   37761   37752   37764       2   37761   37752
   37767       2   37761   37770   37782       2   37761   37770   37785       2
   37755   37740   37758       1   37752   37740   37755       2   37752   37740
   37758       2   37752   37761   37773       2   37752   37761   37776       2
   37743   37722   37746       1   37740   37722   37743       2   37740   37722
   37746       2   37740   37752   37764       2   37740   37752   37767       2
   37731   37710   37734       4   37731   37716   37737       4   37725   37707
   37728       1   37722   37707   37725       2   37722   37707   37728       2
   37722   37740   37755       2   37722   37740   37758       2   37716   37704
   37719       4   37716   37731   37749       4   37710   37701   37713       4
   37710   37731   37749       4   37707   37722   37743       2   37707   37722
   37746       2   37704   37716   37737       4   37701   37710   37734       4
   37689   37671   37692       4   37689   37677   37695       4   37689   37707
   37725       8   37689   37707   37728       8   37683   37701   37713      10
   37683   37704   37719      10   37680   37668   37686       4   37671   37653
   37674       4   37668   37680   37698       4   37662   37647   37665      10
   37662   37680   37698      10   37656   37677   37695       4   37653   37671
   37692       4   37650   37668   37686       4   37641   37653   37674       4
   37638   37647   37665       4   38010   38001   38013       1   38007   38001
   38010       1   38007   38001   38013       1   38001   37989   38004       2
   37998   37989   38001       2   37998   37989   38004       1   37992   37986
   37995       1   37989   37986   37992       2   37989   37986   37995       2
   37989   38001   38007       2   37989   38001   38010       2   37989   38001
   38013       2   37986   37989   37998       2   37986   37989   38004       2
   37983   37971   37986       2   37980   37971   37983       1   37980   37971
   37986       2   37974   37962   37977       1   37971   37962   37974       2
   37971   37962   37977       2   37971   37986   37992       2   37971   37986
   37995       2   37965   37953   37968       1   37962   37953   37965       2
   37962   37953   37968       2   37962   37971   37980       2   37962   37971
   37983       2   37956   37944   37959       1   37953   37944   37956       2
   37953   37944   37959       2   37953   37962   37974       2   37953   37962
   37977       2   37947   37932   37950       1   37944   37932   37947       2
   37944   37932   37950       2   37944   37953   37965       2   37944   37953
   37968       2   37935   37914   37938       1   37932   37914   37935       2
   37932   37914   37938       2   37932   37944   37956       2   37932   37944
   37959       2   37923   37902   37926       4   37923   37908   37929       4
   37917   37899   37920       1   37914   37899   37917       2   37914   37899
   37920       2   37914   37932   37947       2   37914   37932   37950       2
   37908   37896   37911       4   37908   37923   37941       4   37902   37893
   37905       4   37902   37923   37941       4   37899   37914   37935       2
   37899   37914   37938       2   37896   37908   37929       4   37893   37902
   37926       4   37881   37863   37884       4   37881   37869   37887       4
   37881   37899   37917       8   37881   37899   37920       8   37875   37893
   37905      10   37875   37896   37911      10   37872   37860   37878       4
   37863   37845   37866       4   37860   37872   37890       4   37854   37839
   37857      10   37854   37872   37890      10   37848   37869   37887       4
   37845   37863   37884       4   37842   37860   37878       4   37833   37845
   37866       4   37830   37839   37857       4   38202   38193   38205       1
   38199   38193   38202       1   38199   38193   38205       1   38193   38181
   38196       2   38190   38181   38193       2   38190   38181   38196       1
   38184   38178   38187       1   38181   38178   38184       2   38181   38178
   38187       2   38181   38193   38199       2   38181   38193   38202       2
   38181   38193   38205       2   38178   38181   38190       2   38178   38181
   38196       2   38175   38163   38178       2   38172   38163   38175       1
   38172   38163   38178       2   38166   38154   38169       1   38163   38154
   38166       2   38163   38154   38169       2   38163   38178   38184       2
   38163   38178   38187       2   38157   38145   38160       1   38154   38145
   38157       2   38154   38145   38160       2   38154   38163   38172       2
   38154   38163   38175       2   38148   38136   38151       1   38145   38136
   38148       2   38145   38136   38151       2   38145   38154   38166       2
   38145   38154   38169       2   38139   38124   38142       1   38136   38124
   38139       2   38136   38124   38142       2   38136   38145   38157       2
   38136   38145   38160       2   38127   38106   38130       1   38124   38106
   38127       2   38124   38106   38130       2   38124   38136   38148       2
   38124   38136   38151       2   38115   38094   38118       4   38115   38100
   38121       4   38109   38091   38112       1   38106   38091   38109       2
   38106   38091   38112       2   38106   38124   38139       2   38106   38124
   38142       2   38100   38088   38103       4   38100   38115   38133       4
   38094   38085   38097       4   38094   38115   38133       4   38091   38106
   38127       2   38091   38106   38130       2   38088   38100   38121       4
   38085   38094   38118       4   38073   38055   38076       4   38073   38061
   38079       4   38073   38091   38109       8   38073   38091   38112       8
   38067   38085   38097      10   38067   38088   38103      10   38064   38052
   38070       4   38055   38037   38058       4   38052   38064   38082       4
   38046   38031   38049      10   38046   38064   38082      10   38040   38061
   38079       4   38037   38055   38076       4   38034   38052   38070       4
   38025   38037   38058       4   38022   38031   38049       4   38394   38385
   38397       1   38391   38385   38394       1   38391   38385   38397       1
   38385   38373   38388       2   38382   38373   38385       2   38382   38373
   38388       1   38376   38370   38379       1   38373   38370   38376       2
   38373   38370   38379       2   38373   38385   38391       2   38373   38385
   38394       2   38373   38385   38397       2   38370   38373   38382       2
   38370   38373   38388       2   38367   38355   38370       2   38364   38355
   38367       1   38364   38355   38370       2   38358   38346   38361       1
   38355   38346   38358       2   38355   38346   38361       2   38355   38370
   38376       2   38355   38370   38379       2   38349   38337   38352       1
   38346   38337   38349       2   38346   38337   38352       2   38346   38355
   38364       2   38346   38355   38367       2   38340   38328   38343       1
   38337   38328   38340       2   38337   38328   38343       2   38337   38346
   38358       2   38337   38346   38361       2   38331   38316   38334       1
   38328   38316   38331       2   38328   38316   38334       2   38328   38337
   38349       2   38328   38337   38352       2   38319   38298   38322       1
   38316   38298   38319       2   38316   38298   38322       2   38316   38328
   38340       2   38316   38328   38343       2   38307   38286   38310       4
   38307   38292   38313       4   38301   38283   38304       1   38298   38283
   38301       2   38298   38283   38304       2   38298   38316   38331       2
   38298   38316   38334       2   38292   38280   38295       4   38292   38307
   38325       4   38286   38277   38289       4   38286   38307   38325       4
   38283   38298   38319       2   38283   38298   38322       2   38280   38292
   38313       4   38277   38286   38310       4   38265   38247   38268       4
   38265   38253   38271       4   38265   38283   38301       8   38265   38283
   38304       8   38259   38277   38289      10   38259   38280   38295      10
   38256   38244   38262       4   38247   38229   38250       4   38244   38256
   38274       4   38238   38223   38241      10   38238   38256   38274      10
   38232   38253   38271       4   38229   38247   38268       4   38226   38244
   38262       4   38217   38229   38250       4   38214   38223   38241       4
   38586   38577   38589       1   38583   38577   38586       1   38583   38577
   38589       1   38577   38565   38580       2   38574   38565   38577       2
   38574   38565   38580       1   38568   38562   38571       1   38565   38562
   38568       2   38565   38562   38571       2   38565   38577   38583       2
   38565   38577   38586       2   38565   38577   38589       2   38562   38565
   38574       2   38562   38565   38580       2   38559   38547   38562       2
   38556   38547   38559       1   38556   38547   38562       2   38550   38538
   38553       1   38547   38538   38550       2   38547   38538   38553       2
   38547   38562   38568       2   38547   38562   38571       2   38541   38529
   38544       1   38538   38529   38541       2   38538   38529   38544       2
   38538   38547   38556       2   38538   38547   38559       2   38532   38520
   38535       1   38529   38520   38532       2   38529   38520   38535       2
   38529   38538   38550       2   38529   38538   38553       2   38523   38508
   38526       1   38520   38508   38523       2   38520   38508   38526       2
   38520   38529   38541       2   38520   38529   38544       2   38511   38490
   38514       1   38508   38490   38511       2   38508   38490   38514       2
   38508   38520   38532       2   38508   38520   38535       2   38499   38478
   38502       4   38499   38484   38505       4   38493   38475   38496       1
   38490   38475   38493       2   38490   38475   38496       2   38490   38508
   38523       2   38490   38508   38526       2   38484   38472   38487       4
   38484   38499   38517       4   38478   38469   38481       4   38478   38499
   38517       4   38475   38490   38511       2   38475   38490   38514       2
   38472   38484   38505       4   38469   38478   38502       4   38457   38439
   38460       4   38457   38445   38463       4   38457   38475   38493       8
   38457   38475   38496       8   38451   38469   38481      10   38451   38472
   38487      10   38448   38436   38454       4   38439   38421   38442       4
   38436   38448   38466       4   38430   38415   38433      10   38430   38448
   38466      10   38424   38445   38463       4   38421   38439   38460       4
   38418   38436   38454       4   38409   38421   38442       4   38406   38415
   38433       4   38778   38769   38781       1   38775   38769   38778       1
   38775   38769   38781       1   38769   38757   38772       2   38766   38757
   38769       2   38766   38757   38772       1   38760   38754   38763       1
   38757   38754   38760       2   38757   38754   38763       2   38757   38769
   38775       2   38757   38769   38778       2   38757   38769   38781       2
   38754   38757   38766       2   38754   38757   38772       2   38751   38739
   38754       2   38748   38739   38751       1   38748   38739   38754       2
   38742   38730   38745       1   38739   38730   38742       2   38739   38730
   38745       2   38739   38754   38760       2   38739   38754   38763       2
   38733   38721   38736       1   38730   38721   38733       2   38730   38721
   38736       2   38730   38739   38748       2   38730   38739   38751       2
   38724   38712   38727       1   38721   38712   38724       2   38721   38712
   38727       2   38721   38730   38742       2   38721   38730   38745       2
   38715   38700   38718       1   38712   38700   38715       2   38712   38700
   38718       2   38712   38721   38733       2   38712   38721   38736       2
   38703   38682   38706       1   38700   38682   38703       2   38700   38682
   38706       2   38700   38712   38724       2   38700   38712   38727       2
   38691   38670   38694       4   38691   38676   38697       4   38685   38667
   38688       1   38682   38667   38685       2   38682   38667   38688       2
   38682   38700   38715       2   38682   38700   38718       2   38676   38664
   38679       4   38676   38691   38709       4   38670   38661   38673       4
   38670   38691   38709       4   38667   38682   38703       2   38667   38682
   38706       2   38664   38676   38697       4   38661   38670   38694       4
   38649   38631   38652       4   38649   38637   38655       4   38649   38667
   38685       8   38649   38667   38688       8   38643   38661   38673      10
   38643   38664   38679      10   38640   38628   38646       4   38631   38613
   38634       4   38628   38640   38658       4   38622   38607   38625      10
   38622   38640   38658      10   38616   38637   38655       4   38613   38631
   38652       4   38610   38628   38646       4   38601   38613   38634       4
   38598   38607   38625       4   38970   38961   38973       1   38967   38961
   38970       1   38967   38961   38973       1   38961   38949   38964       2
   38958   38949   38961       2   38958   38949   38964       1   38952   38946
   38955       1   38949   38946   38952       2   38949   38946   38955       2
   38949   38961   38967       2   38949   38961   38970       2   38949   38961
   38973       2   38946   38949   38958       2   38946   38949   38964       2
   38943   38931   38946       2   38940   38931   38943       1   38940   38931
   38946       2   38934   38922   38937       1   38931   38922   38934       2
   38931   38922   38937       2   38931   38946   38952       2   38931   38946
   38955       2   38925   38913   38928       1   38922   38913   38925       2
   38922   38913   38928       2   38922   38931   38940       2   38922   38931
   38943       2   38916   38904   38919       1   38913   38904   38916       2
   38913   38904   38919       2   38913   38922   38934       2   38913   38922
   38937       2   38907   38892   38910       1   38904   38892   38907       2
   38904   38892   38910       2   38904   38913   38925       2   38904   38913
   38928       2   38895   38874   38898       1   38892   38874   38895       2
   38892   38874   38898       2   38892   38904   38916       2   38892   38904
   38919       2   38883   38862   38886       4   38883   38868   38889       4
   38877   38859   38880       1   38874   38859   38877       2   38874   38859
   38880       2   38874   38892   38907       2   38874   38892   38910       2
   38868   38856   38871       4   38868   38883   38901       4   38862   38853
   38865       4   38862   38883   38901       4   38859   38874   38895       2
   38859   38874   38898       2   38856   38868   38889       4   38853   38862
   38886       4   38841   38823   38844       4   38841   38829   38847       4
   38841   38859   38877       8   38841   38859   38880       8   38835   38853
   38865      10   38835   38856   38871      10   38832   38820   38838       4
   38823   38805   38826       4   38820   38832   38850       4   38814   38799
   38817      10   38814   38832   38850      10   38808   38829   38847       4
   38805   38823   38844       4   38802   38820   38838       4   38793   38805
   38826       4   38790   38799   38817       4   39162   39153   39165       1
   39159   39153   39162       1   39159   39153   39165       1   39153   39141
   39156       2   39150   39141   39153       2   39150   39141   39156       1
   39144   39138   39147       1   39141   39138   39144       2   39141   39138
   39147       2   39141   39153   39159       2   39141   39153   39162       2
   39141   39153   39165       2   39138   39141   39150       2   39138   39141
   39156       2   39135   39123   39138       2   39132   39123   39135       1
   39132   39123   39138       2   39126   39114   39129       1   39123   39114
   39126       2   39123   39114   39129       2   39123   39138   39144       2
   39123   39138   39147       2   39117   39105   39120       1   39114   39105
   39117       2   39114   39105   39120       2   39114   39123   39132       2
   39114   39123   39135       2   39108   39096   39111       1   39105   39096
   39108       2   39105   39096   39111       2   39105   39114   39126       2
   39105   39114   39129       2   39099   39084   39102       1   39096   39084
   39099       2   39096   39084   39102       2   39096   39105   39117       2
   39096   39105   39120       2   39087   39066   39090       1   39084   39066
   39087       2   39084   39066   39090       2   39084   39096   39108       2
   39084   39096   39111       2   39075   39054   39078       4   39075   39060
   39081       4   39069   39051   39072       1   39066   39051   39069       2
   39066   39051   39072       2   39066   39084   39099       2   39066   39084
   39102       2   39060   39048   39063       4   39060   39075   39093       4
   39054   39045   39057       4   39054   39075   39093       4   39051   39066
   39087       2   39051   39066   39090       2   39048   39060   39081       4
   39045   39054   39078       4   39033   39015   39036       4   39033   39021
   39039       4   39033   39051   39069       8   39033   39051   39072       8
   39027   39045   39057      10   39027   39048   39063      10   39024   39012
   39030       4   39015   38997   39018       4   39012   39024   39042       4
   39006   38991   39009      10   39006   39024   39042      10   39000   39021
   39039       4   38997   39015   39036       4   38994   39012   39030       4
   38985   38997   39018       4   38982   38991   39009       4   39354   39345
   39357       1   39351   39345   39354       1   39351   39345   39357       1
   39345   39333   39348       2   39342   39333   39345       2   39342   39333
   39348       1   39336   39330   39339       1   39333   39330   39336       2
   39333   39330   39339       2   39333   39345   39351       2   39333   39345
   39354       2   39333   39345   39357       2   39330   39333   39342       2
   39330   39333   39348       2   39327   39315   39330       2   39324   39315
   39327       1   39324   39315   39330       2   39318   39306   39321       1
   39315   39306   39318       2   39315   39306   39321       2   39315   39330
   39336       2   39315   39330   39339       2   39309   39297   39312       1
   39306   39297   39309       2   39306   39297   39312       2   39306   39315
   39324       2   39306   39315   39327       2   39300   39288   39303       1
   39297   39288   39300       2   39297   39288   39303       2   39297   39306
   39318       2   39297   39306   39321       2   39291   39276   39294       1
   39288   39276   39291       2   39288   39276   39294       2   39288   39297
   39309       2   39288   39297   39312       2   39279   39258   39282       1
   39276   39258   39279       2   39276   39258   39282       2   39276   39288
   39300       2   39276   39288   39303       2   39267   39246   39270       4
   39267   39252   39273       4   39261   39243   39264       1   39258   39243
   39261       2   39258   39243   39264       2   39258   39276   39291       2
   39258   39276   39294       2   39252   39240   39255       4   39252   39267
   39285       4   39246   39237   39249       4   39246   39267   39285       4
   39243   39258   39279       2   39243   39258   39282       2   39240   39252
   39273       4   39237   39246   39270       4   39225   39207   39228       4
   39225   39213   39231       4   39225   39243   39261       8   39225   39243
   39264       8   39219   39237   39249      10   39219   39240   39255      10
   39216   39204   39222       4   39207   39189   39210       4   39204   39216
   39234       4   39198   39183   39201      10   39198   39216   39234      10
   39192   39213   39231       4   39189   39207   39228       4   39186   39204
   39222       4   39177   39189   39210       4   39174   39183   39201       4
   39546   39537   39549       1   39543   39537   39546       1   39543   39537
   39549       1   39537   39525   39540       2   39534   39525   39537       2
   39534   39525   39540       1   39528   39522   39531       1   39525   39522
   39528       2   39525   39522   39531       2   39525   39537   39543       2
   39525   39537   39546       2   39525   39537   39549       2   39522   39525
   39534       2   39522   39525   39540       2   39519   39507   39522       2
   39516   39507   39519       1   39516   39507   39522       2   39510   39498
   39513       1   39507   39498   39510       2   39507   39498   39513       2
   39507   39522   39528       2   39507   39522   39531       2   39501   39489
   39504       1   39498   39489   39501       2   39498   39489   39504       2
   39498   39507   39516       2   39498   39507   39519       2   39492   39480
   39495       1   39489   39480   39492       2   39489   39480   39495       2
   39489   39498   39510       2   39489   39498   39513       2   39483   39468
   39486       1   39480   39468   39483       2   39480   39468   39486       2
   39480   39489   39501       2   39480   39489   39504       2   39471   39450
   39474       1   39468   39450   39471       2   39468   39450   39474       2
   39468   39480   39492       2   39468   39480   39495       2   39459   39438
   39462       4   39459   39444   39465       4   39453   39435   39456       1
   39450   39435   39453       2   39450   39435   39456       2   39450   39468
   39483       2   39450   39468   39486       2   39444   39432   39447       4
   39444   39459   39477       4   39438   39429   39441       4   39438   39459
   39477       4   39435   39450   39471       2   39435   39450   39474       2
   39432   39444   39465       4   39429   39438   39462       4   39417   39399
   39420       4   39417   39405   39423       4   39417   39435   39453       8
   39417   39435   39456       8   39411   39429   39441      10   39411   39432
   39447      10   39408   39396   39414       4   39399   39381   39402       4
   39396   39408   39426       4   39390   39375   39393      10   39390   39408
   39426      10   39384   39405   39423       4   39381   39399   39420       4
   39378   39396   39414       4   39369   39381   39402       4   39366   39375
   39393       4   39738   39729   39741       1   39735   39729   39738       1
   39735   39729   39741       1   39729   39717   39732       2   39726   39717
   39729       2   39726   39717   39732       1   39720   39714   39723       1
   39717   39714   39720       2   39717   39714   39723       2   39717   39729
   39735       2   39717   39729   39738       2   39717   39729   39741       2
   39714   39717   39726       2   39714   39717   39732       2   39711   39699
   39714       2   39708   39699   39711       1   39708   39699   39714       2
   39702   39690   39705       1   39699   39690   39702       2   39699   39690
   39705       2   39699   39714   39720       2   39699   39714   39723       2
   39693   39681   39696       1   39690   39681   39693       2   39690   39681
   39696       2   39690   39699   39708       2   39690   39699   39711       2
   39684   39672   39687       1   39681   39672   39684       2   39681   39672
   39687       2   39681   39690   39702       2   39681   39690   39705       2
   39675   39660   39678       1   39672   39660   39675       2   39672   39660
   39678       2   39672   39681   39693       2   39672   39681   39696       2
   39663   39642   39666       1   39660   39642   39663       2   39660   39642
   39666       2   39660   39672   39684       2   39660   39672   39687       2
   39651   39630   39654       4   39651   39636   39657       4   39645   39627
   39648       1   39642   39627   39645       2   39642   39627   39648       2
   39642   39660   39675       2   39642   39660   39678       2   39636   39624
   39639       4   39636   39651   39669       4   39630   39621   39633       4
   39630   39651   39669       4   39627   39642   39663       2   39627   39642
   39666       2   39624   39636   39657       4   39621   39630   39654       4
   39609   39591   39612       4   39609   39597   39615       4   39609   39627
   39645       8   39609   39627   39648       8   39603   39621   39633      10
   39603   39624   39639      10   39600   39588   39606       4   39591   39573
   39594       4   39588   39600   39618       4   39582   39567   39585      10
   39582   39600   39618      10   39576   39597   39615       4   39573   39591
   39612       4   39570   39588   39606       4   39561   39573   39594       4
   39558   39567   39585       4   39930   39921   39933       1   39927   39921
   39930       1   39927   39921   39933       1   39921   39909   39924       2
   39918   39909   39921       2   39918   39909   39924       1   39912   39906
   39915       1   39909   39906   39912       2   39909   39906   39915       2
   39909   39921   39927       2   39909   39921   39930       2   39909   39921
   39933       2   39906   39909   39918       2   39906   39909   39924       2
   39903   39891   39906       2   39900   39891   39903       1   39900   39891
   39906       2   39894   39882   39897       1   39891   39882   39894       2
   39891   39882   39897       2   39891   39906   39912       2   39891   39906
   39915       2   39885   39873   39888       1   39882   39873   39885       2
   39882   39873   39888       2   39882   39891   39900       2   39882   39891
   39903       2   39876   39864   39879       1   39873   39864   39876       2
   39873   39864   39879       2   39873   39882   39894       2   39873   39882
   39897       2   39867   39852   39870       1   39864   39852   39867       2
   39864   39852   39870       2   39864   39873   39885       2   39864   39873
   39888       2   39855   39834   39858       1   39852   39834   39855       2
   39852   39834   39858       2   39852   39864   39876       2   39852   39864
   39879       2   39843   39822   39846       4   39843   39828   39849       4
   39837   39819   39840       1   39834   39819   39837       2   39834   39819
   39840       2   39834   39852   39867       2   39834   39852   39870       2
   39828   39816   39831       4   39828   39843   39861       4   39822   39813
   39825       4   39822   39843   39861       4   39819   39834   39855       2
   39819   39834   39858       2   39816   39828   39849       4   39813   39822
   39846       4   39801   39783   39804       4   39801   39789   39807       4
   39801   39819   39837       8   39801   39819   39840       8   39795   39813
   39825      10   39795   39816   39831      10   39792   39780   39798       4
   39783   39765   39786       4   39780   39792   39810       4   39774   39759
   39777      10   39774   39792   39810      10   39768   39789   39807       4
   39765   39783   39804       4   39762   39780   39798       4   39753   39765
   39786       4   39750   39759   39777       4   40122   40113   40125       1
   40119   40113   40122       1   40119   40113   40125       1   40113   40101
   40116       2   40110   40101   40113       2   40110   40101   40116       1
   40104   40098   40107       1   40101   40098   40104       2   40101   40098
   40107       2   40101   40113   40119       2   40101   40113   40122       2
   40101   40113   40125       2   40098   40101   40110       2   40098   40101
   40116       2   40095   40083   40098       2   40092   40083   40095       1
   40092   40083   40098       2   40086   40074   40089       1   40083   40074
   40086       2   40083   40074   40089       2   40083   40098   40104       2
   40083   40098   40107       2   40077   40065   40080       1   40074   40065
   40077       2   40074   40065   40080       2   40074   40083   40092       2
   40074   40083   40095       2   40068   40056   40071       1   40065   40056
   40068       2   40065   40056   40071       2   40065   40074   40086       2
   40065   40074   40089       2   40059   40044   40062       1   40056   40044
   40059       2   40056   40044   40062       2   40056   40065   40077       2
   40056   40065   40080       2   40047   40026   40050       1   40044   40026
   40047       2   40044   40026   40050       2   40044   40056   40068       2
   40044   40056   40071       2   40035   40014   40038       4   40035   40020
   40041       4   40029   40011   40032       1   40026   40011   40029       2
   40026   40011   40032       2   40026   40044   40059       2   40026   40044
   40062       2   40020   40008   40023       4   40020   40035   40053       4
   40014   40005   40017       4   40014   40035   40053       4   40011   40026
   40047       2   40011   40026   40050       2   40008   40020   40041       4
   40005   40014   40038       4   39993   39975   39996       4   39993   39981
   39999       4   39993   40011   40029       8   39993   40011   40032       8
   39987   40005   40017      10   39987   40008   40023      10   39984   39972
   39990       4   39975   39957   39978       4   39972   39984   40002       4
   39966   39951   39969      10   39966   39984   40002      10   39960   39981
   39999       4   39957   39975   39996       4   39954   39972   39990       4
   39945   39957   39978       4   39942   39951   39969       4   40314   40305
   40317       1   40311   40305   40314       1   40311   40305   40317       1
   40305   40293   40308       2   40302   40293   40305       2   40302   40293
   40308       1   40296   40290   40299       1   40293   40290   40296       2
   40293   40290   40299       2   40293   40305   40311       2   40293   40305
   40314       2   40293   40305   40317       2   40290   40293   40302       2
   40290   40293   40308       2   40287   40275   40290       2   40284   40275
   40287       1   40284   40275   40290       2   40278   40266   40281       1
   40275   40266   40278       2   40275   40266   40281       2   40275   40290
   40296       2   40275   40290   40299       2   40269   40257   40272       1
   40266   40257   40269       2   40266   40257   40272       2   40266   40275
   40284       2   40266   40275   40287       2   40260   40248   40263       1
   40257   40248   40260       2   40257   40248   40263       2   40257   40266
   40278       2   40257   40266   40281       2   40251   40236   40254       1
   40248   40236   40251       2   40248   40236   40254       2   40248   40257
   40269       2   40248   40257   40272       2   40239   40218   40242       1
   40236   40218   40239       2   40236   40218   40242       2   40236   40248
   40260       2   40236   40248   40263       2   40227   40206   40230       4
   40227   40212   40233       4   40221   40203   40224       1   40218   40203
   40221       2   40218   40203   40224       2   40218   40236   40251       2
   40218   40236   40254       2   40212   40200   40215       4   40212   40227
   40245       4   40206   40197   40209       4   40206   40227   40245       4
   40203   40218   40239       2   40203   40218   40242       2   40200   40212
   40233       4   40197   40206   40230       4   40185   40167   40188       4
   40185   40173   40191       4   40185   40203   40221       8   40185   40203
   40224       8   40179   40197   40209      10   40179   40200   40215      10
   40176   40164   40182       4   40167   40149   40170       4   40164   40176
   40194       4   40158   40143   40161      10   40158   40176   40194      10
   40152   40173   40191       4   40149   40167   40188       4   40146   40164
   40182       4   40137   40149   40170       4   40134   40143   40161       4
   40506   40497   40509       1   40503   40497   40506       1   40503   40497
   40509       1   40497   40485   40500       2   40494   40485   40497       2
   40494   40485   40500       1   40488   40482   40491       1   40485   40482
   40488       2   40485   40482   40491       2   40485   40497   40503       2
   40485   40497   40506       2   40485   40497   40509       2   40482   40485
   40494       2   40482   40485   40500       2   40479   40467   40482       2
   40476   40467   40479       1   40476   40467   40482       2   40470   40458
   40473       1   40467   40458   40470       2   40467   40458   40473       2
   40467   40482   40488       2   40467   40482   40491       2   40461   40449
   40464       1   40458   40449   40461       2   40458   40449   40464       2
   40458   40467   40476       2   40458   40467   40479       2   40452   40440
   40455       1   40449   40440   40452       2   40449   40440   40455       2
   40449   40458   40470       2   40449   40458   40473       2   40443   40428
   40446       1   40440   40428   40443       2   40440   40428   40446       2
   40440   40449   40461       2   40440   40449   40464       2   40431   40410
   40434       1   40428   40410   40431       2   40428   40410   40434       2
   40428   40440   40452       2   40428   40440   40455       2   40419   40398
   40422       4   40419   40404   40425       4   40413   40395   40416       1
   40410   40395   40413       2   40410   40395   40416       2   40410   40428
   40443       2   40410   40428   40446       2   40404   40392   40407       4
   40404   40419   40437       4   40398   40389   40401       4   40398   40419
   40437       4   40395   40410   40431       2   40395   40410   40434       2
   40392   40404   40425       4   40389   40398   40422       4   40377   40359
   40380       4   40377   40365   40383       4   40377   40395   40413       8
   40377   40395   40416       8   40371   40389   40401      10   40371   40392
   40407      10   40368   40356   40374       4   40359   40341   40362       4
   40356   40368   40386       4   40350   40335   40353      10   40350   40368
   40386      10   40344   40365   40383       4   40341   40359   40380       4
   40338   40356   40374       4   40329   40341   40362       4   40326   40335
   40353       4   40698   40689   40701       1   40695   40689   40698       1
   40695   40689   40701       1   40689   40677   40692       2   40686   40677
   40689       2   40686   40677   40692       1   40680   40674   40683       1
   40677   40674   40680       2   40677   40674   40683       2   40677   40689
   40695       2   40677   40689   40698       2   40677   40689   40701       2
   40674   40677   40686       2   40674   40677   40692       2   40671   40659
   40674       2   40668   40659   40671       1   40668   40659   40674       2
   40662   40650   40665       1   40659   40650   40662       2   40659   40650
   40665       2   40659   40674   40680       2   40659   40674   40683       2
   40653   40641   40656       1   40650   40641   40653       2   40650   40641
   40656       2   40650   40659   40668       2   40650   40659   40671       2
   40644   40632   40647       1   40641   40632   40644       2   40641   40632
   40647       2   40641   40650   40662       2   40641   40650   40665       2
   40635   40620   40638       1   40632   40620   40635       2   40632   40620
   40638       2   40632   40641   40653       2   40632   40641   40656       2
   40623   40602   40626       1   40620   40602   40623       2   40620   40602
   40626       2   40620   40632   40644       2   40620   40632   40647       2
   40611   40590   40614       4   40611   40596   40617       4   40605   40587
   40608       1   40602   40587   40605       2   40602   40587   40608       2
   40602   40620   40635       2   40602   40620   40638       2   40596   40584
   40599       4   40596   40611   40629       4   40590   40581   40593       4
   40590   40611   40629       4   40587   40602   40623       2   40587   40602
   40626       2   40584   40596   40617       4   40581   40590   40614       4
   40569   40551   40572       4   40569   40557   40575       4   40569   40587
   40605       8   40569   40587   40608       8   40563   40581   40593      10
   40563   40584   40599      10   40560   40548   40566       4   40551   40533
   40554       4   40548   40560   40578       4   40542   40527   40545      10
   40542   40560   40578      10   40536   40557   40575       4   40533   40551
   40572       4   40530   40548   40566       4   40521   40533   40554       4
   40518   40527   40545       4   40890   40881   40893       1   40887   40881
   40890       1   40887   40881   40893       1   40881   40869   40884       2
   40878   40869   40881       2   40878   40869   40884       1   40872   40866
   40875       1   40869   40866   40872       2   40869   40866   40875       2
   40869   40881   40887       2   40869   40881   40890       2   40869   40881
   40893       2   40866   40869   40878       2   40866   40869   40884       2
   40863   40851   40866       2   40860   40851   40863       1   40860   40851
   40866       2   40854   40842   40857       1   40851   40842   40854       2
   40851   40842   40857       2   40851   40866   40872       2   40851   40866
   40875       2   40845   40833   40848       1   40842   40833   40845       2
   40842   40833   40848       2   40842   40851   40860       2   40842   40851
   40863       2   40836   40824   40839       1   40833   40824   40836       2
   40833   40824   40839       2   40833   40842   40854       2   40833   40842
   40857       2   40827   40812   40830       1   40824   40812   40827       2
   40824   40812   40830       2   40824   40833   40845       2   40824   40833
   40848       2   40815   40794   40818       1   40812   40794   40815       2
   40812   40794   40818       2   40812   40824   40836       2   40812   40824
   40839       2   40803   40782   40806       4   40803   40788   40809       4
   40797   40779   40800       1   40794   40779   40797       2   40794   40779
   40800       2   40794   40812   40827       2   40794   40812   40830       2
   40788   40776   40791       4   40788   40803   40821       4   40782   40773
   40785       4   40782   40803   40821       4   40779   40794   40815       2
   40779   40794   40818       2   40776   40788   40809       4   40773   40782
   40806       4   40761   40743   40764       4   40761   40749   40767       4
   40761   40779   40797       8   40761   40779   40800       8   40755   40773
   40785      10   40755   40776   40791      10   40752   40740   40758       4
   40743   40725   40746       4   40740   40752   40770       4   40734   40719
   40737      10   40734   40752   40770      10   40728   40749   40767       4
   40725   40743   40764       4   40722   40740   40758       4   40713   40725
   40746       4   40710   40719   40737       4   41082   41073   41085       1
   41079   41073   41082       1   41079   41073   41085       1   41073   41061
   41076       2   41070   41061   41073       2   41070   41061   41076       1
   41064   41058   41067       1   41061   41058   41064       2   41061   41058
   41067       2   41061   41073   41079       2   41061   41073   41082       2
   41061   41073   41085       2   41058   41061   41070       2   41058   41061
   41076       2   41055   41043   41058       2   41052   41043   41055       1
   41052   41043   41058       2   41046   41034   41049       1   41043   41034
   41046       2   41043   41034   41049       2   41043   41058   41064       2
   41043   41058   41067       2   41037   41025   41040       1   41034   41025
   41037       2   41034   41025   41040       2   41034   41043   41052       2
   41034   41043   41055       2   41028   41016   41031       1   41025   41016
   41028       2   41025   41016   41031       2   41025   41034   41046       2
   41025   41034   41049       2   41019   41004   41022       1   41016   41004
   41019       2   41016   41004   41022       2   41016   41025   41037       2
   41016   41025   41040       2   41007   40986   41010       1   41004   40986
   41007       2   41004   40986   41010       2   41004   41016   41028       2
   41004   41016   41031       2   40995   40974   40998       4   40995   40980
   41001       4   40989   40971   40992       1   40986   40971   40989       2
   40986   40971   40992       2   40986   41004   41019       2   40986   41004
   41022       2   40980   40968   40983       4   40980   40995   41013       4
   40974   40965   40977       4   40974   40995   41013       4   40971   40986
   41007       2   40971   40986   41010       2   40968   40980   41001       4
   40965   40974   40998       4   40953   40935   40956       4   40953   40941
   40959       4   40953   40971   40989       8   40953   40971   40992       8
   40947   40965   40977      10   40947   40968   40983      10   40944   40932
   40950       4   40935   40917   40938       4   40932   40944   40962       4
   40926   40911   40929      10   40926   40944   40962      10   40920   40941
   40959       4   40917   40935   40956       4   40914   40932   40950       4
   40905   40917   40938       4   40902   40911   40929       4   41274   41265
   41277       1   41271   41265   41274       1   41271   41265   41277       1
   41265   41253   41268       2   41262   41253   41265       2   41262   41253
   41268       1   41256   41250   41259       1   41253   41250   41256       2
   41253   41250   41259       2   41253   41265   41271       2   41253   41265
   41274       2   41253   41265   41277       2   41250   41253   41262       2
   41250   41253   41268       2   41247   41235   41250       2   41244   41235
   41247       1   41244   41235   41250       2   41238   41226   41241       1
   41235   41226   41238       2   41235   41226   41241       2   41235   41250
   41256       2   41235   41250   41259       2   41229   41217   41232       1
   41226   41217   41229       2   41226   41217   41232       2   41226   41235
   41244       2   41226   41235   41247       2   41220   41208   41223       1
   41217   41208   41220       2   41217   41208   41223       2   41217   41226
   41238       2   41217   41226   41241       2   41211   41196   41214       1
   41208   41196   41211       2   41208   41196   41214       2   41208   41217
   41229       2   41208   41217   41232       2   41199   41178   41202       1
   41196   41178   41199       2   41196   41178   41202       2   41196   41208
   41220       2   41196   41208   41223       2   41187   41166   41190       4
   41187   41172   41193       4   41181   41163   41184       1   41178   41163
   41181       2   41178   41163   41184       2   41178   41196   41211       2
   41178   41196   41214       2   41172   41160   41175       4   41172   41187
   41205       4   41166   41157   41169       4   41166   41187   41205       4
   41163   41178   41199       2   41163   41178   41202       2   41160   41172
   41193       4   41157   41166   41190       4   41145   41127   41148       4
   41145   41133   41151       4   41145   41163   41181       8   41145   41163
   41184       8   41139   41157   41169      10   41139   41160   41175      10
   41136   41124   41142       4   41127   41109   41130       4   41124   41136
   41154       4   41118   41103   41121      10   41118   41136   41154      10
   41112   41133   41151       4   41109   41127   41148       4   41106   41124
   41142       4   41097   41109   41130       4   41094   41103   41121       4
   41466   41457   41469       1   41463   41457   41466       1   41463   41457
   41469       1   41457   41445   41460       2   41454   41445   41457       2
   41454   41445   41460       1   41448   41442   41451       1   41445   41442
   41448       2   41445   41442   41451       2   41445   41457   41463       2
   41445   41457   41466       2   41445   41457   41469       2   41442   41445
   41454       2   41442   41445   41460       2   41439   41427   41442       2
   41436   41427   41439       1   41436   41427   41442       2   41430   41418
   41433       1   41427   41418   41430       2   41427   41418   41433       2
   41427   41442   41448       2   41427   41442   41451       2   41421   41409
   41424       1   41418   41409   41421       2   41418   41409   41424       2
   41418   41427   41436       2   41418   41427   41439       2   41412   41400
   41415       1   41409   41400   41412       2   41409   41400   41415       2
   41409   41418   41430       2   41409   41418   41433       2   41403   41388
   41406       1   41400   41388   41403       2   41400   41388   41406       2
   41400   41409   41421       2   41400   41409   41424       2   41391   41370
   41394       1   41388   41370   41391       2   41388   41370   41394       2
   41388   41400   41412       2   41388   41400   41415       2   41379   41358
   41382       4   41379   41364   41385       4   41373   41355   41376       1
   41370   41355   41373       2   41370   41355   41376       2   41370   41388
   41403       2   41370   41388   41406       2   41364   41352   41367       4
   41364   41379   41397       4   41358   41349   41361       4   41358   41379
   41397       4   41355   41370   41391       2   41355   41370   41394       2
   41352   41364   41385       4   41349   41358   41382       4   41337   41319
   41340       4   41337   41325   41343       4   41337   41355   41373       8
   41337   41355   41376       8   41331   41349   41361      10   41331   41352
   41367      10   41328   41316   41334       4   41319   41301   41322       4
   41316   41328   41346       4   41310   41295   41313      10   41310   41328
   41346      10   41304   41325   41343       4   41301   41319   41340       4
   41298   41316   41334       4   41289   41301   41322       4   41286   41295
   41313       4   41658   41649   41661       1   41655   41649   41658       1
   41655   41649   41661       1   41649   41637   41652       2   41646   41637
   41649       2   41646   41637   41652       1   41640   41634   41643       1
   41637   41634   41640       2   41637   41634   41643       2   41637   41649
   41655       2   41637   41649   41658       2   41637   41649   41661       2
   41634   41637   41646       2   41634   41637   41652       2   41631   41619
   41634       2   41628   41619   41631       1   41628   41619   41634       2
   41622   41610   41625       1   41619   41610   41622       2   41619   41610
   41625       2   41619   41634   41640       2   41619   41634   41643       2
   41613   41601   41616       1   41610   41601   41613       2   41610   41601
   41616       2   41610   41619   41628       2   41610   41619   41631       2
   41604   41592   41607       1   41601   41592   41604       2   41601   41592
   41607       2   41601   41610   41622       2   41601   41610   41625       2
   41595   41580   41598       1   41592   41580   41595       2   41592   41580
   41598       2   41592   41601   41613       2   41592   41601   41616       2
   41583   41562   41586       1   41580   41562   41583       2   41580   41562
   41586       2   41580   41592   41604       2   41580   41592   41607       2
   41571   41550   41574       4   41571   41556   41577       4   41565   41547
   41568       1   41562   41547   41565       2   41562   41547   41568       2
   41562   41580   41595       2   41562   41580   41598       2   41556   41544
   41559       4   41556   41571   41589       4   41550   41541   41553       4
   41550   41571   41589       4   41547   41562   41583       2   41547   41562
   41586       2   41544   41556   41577       4   41541   41550   41574       4
   41529   41511   41532       4   41529   41517   41535       4   41529   41547
   41565       8   41529   41547   41568       8   41523   41541   41553      10
   41523   41544   41559      10   41520   41508   41526       4   41511   41493
   41514       4   41508   41520   41538       4   41502   41487   41505      10
   41502   41520   41538      10   41496   41517   41535       4   41493   41511
   41532       4   41490   41508   41526       4   41481   41493   41514       4
   41478   41487   41505       4   41850   41841   41853       1   41847   41841
   41850       1   41847   41841   41853       1   41841   41829   41844       2
   41838   41829   41841       2   41838   41829   41844       1   41832   41826
   41835       1   41829   41826   41832       2   41829   41826   41835       2
   41829   41841   41847       2   41829   41841   41850       2   41829   41841
   41853       2   41826   41829   41838       2   41826   41829   41844       2
   41823   41811   41826       2   41820   41811   41823       1   41820   41811
   41826       2   41814   41802   41817       1   41811   41802   41814       2
   41811   41802   41817       2   41811   41826   41832       2   41811   41826
   41835       2   41805   41793   41808       1   41802   41793   41805       2
   41802   41793   41808       2   41802   41811   41820       2   41802   41811
   41823       2   41796   41784   41799       1   41793   41784   41796       2
   41793   41784   41799       2   41793   41802   41814       2   41793   41802
   41817       2   41787   41772   41790       1   41784   41772   41787       2
   41784   41772   41790       2   41784   41793   41805       2   41784   41793
   41808       2   41775   41754   41778       1   41772   41754   41775       2
   41772   41754   41778       2   41772   41784   41796       2   41772   41784
   41799       2   41763   41742   41766       4   41763   41748   41769       4
   41757   41739   41760       1   41754   41739   41757       2   41754   41739
   41760       2   41754   41772   41787       2   41754   41772   41790       2
   41748   41736   41751       4   41748   41763   41781       4   41742   41733
   41745       4   41742   41763   41781       4   41739   41754   41775       2
   41739   41754   41778       2   41736   41748   41769       4   41733   41742
   41766       4   41721   41703   41724       4   41721   41709   41727       4
   41721   41739   41757       8   41721   41739   41760       8   41715   41733
   41745      10   41715   41736   41751      10   41712   41700   41718       4
   41703   41685   41706       4   41700   41712   41730       4   41694   41679
   41697      10   41694   41712   41730      10   41688   41709   41727       4
   41685   41703   41724       4   41682   41700   41718       4   41673   41685
   41706       4   41670   41679   41697       4   42042   42033   42045       1
   42039   42033   42042       1   42039   42033   42045       1   42033   42021
   42036       2   42030   42021   42033       2   42030   42021   42036       1
   42024   42018   42027       1   42021   42018   42024       2   42021   42018
   42027       2   42021   42033   42039       2   42021   42033   42042       2
   42021   42033   42045       2   42018   42021   42030       2   42018   42021
   42036       2   42015   42003   42018       2   42012   42003   42015       1
   42012   42003   42018       2   42006   41994   42009       1   42003   41994
   42006       2   42003   41994   42009       2   42003   42018   42024       2
   42003   42018   42027       2   41997   41985   42000       1   41994   41985
   41997       2   41994   41985   42000       2   41994   42003   42012       2
   41994   42003   42015       2   41988   41976   41991       1   41985   41976
   41988       2   41985   41976   41991       2   41985   41994   42006       2
   41985   41994   42009       2   41979   41964   41982       1   41976   41964
   41979       2   41976   41964   41982       2   41976   41985   41997       2
   41976   41985   42000       2   41967   41946   41970       1   41964   41946
   41967       2   41964   41946   41970       2   41964   41976   41988       2
   41964   41976   41991       2   41955   41934   41958       4   41955   41940
   41961       4   41949   41931   41952       1   41946   41931   41949       2
   41946   41931   41952       2   41946   41964   41979       2   41946   41964
   41982       2   41940   41928   41943       4   41940   41955   41973       4
   41934   41925   41937       4   41934   41955   41973       4   41931   41946
   41967       2   41931   41946   41970       2   41928   41940   41961       4
   41925   41934   41958       4   41913   41895   41916       4   41913   41901
   41919       4   41913   41931   41949       8   41913   41931   41952       8
   41907   41925   41937      10   41907   41928   41943      10   41904   41892
   41910       4   41895   41877   41898       4   41892   41904   41922       4
   41886   41871   41889      10   41886   41904   41922      10   41880   41901
   41919       4   41877   41895   41916       4   41874   41892   41910       4
   41865   41877   41898       4   41862   41871   41889       4   42234   42225
   42237       1   42231   42225   42234       1   42231   42225   42237       1
   42225   42213   42228       2   42222   42213   42225       2   42222   42213
   42228       1   42216   42210   42219       1   42213   42210   42216       2
   42213   42210   42219       2   42213   42225   42231       2   42213   42225
   42234       2   42213   42225   42237       2   42210   42213   42222       2
   42210   42213   42228       2   42207   42195   42210       2   42204   42195
   42207       1   42204   42195   42210       2   42198   42186   42201       1
   42195   42186   42198       2   42195   42186   42201       2   42195   42210
   42216       2   42195   42210   42219       2   42189   42177   42192       1
   42186   42177   42189       2   42186   42177   42192       2   42186   42195
   42204       2   42186   42195   42207       2   42180   42168   42183       1
   42177   42168   42180       2   42177   42168   42183       2   42177   42186
   42198       2   42177   42186   42201       2   42171   42156   42174       1
   42168   42156   42171       2   42168   42156   42174       2   42168   42177
   42189       2   42168   42177   42192       2   42159   42138   42162       1
   42156   42138   42159       2   42156   42138   42162       2   42156   42168
   42180       2   42156   42168   42183       2   42147   42126   42150       4
   42147   42132   42153       4   42141   42123   42144       1   42138   42123
   42141       2   42138   42123   42144       2   42138   42156   42171       2
   42138   42156   42174       2   42132   42120   42135       4   42132   42147
   42165       4   42126   42117   42129       4   42126   42147   42165       4
   42123   42138   42159       2   42123   42138   42162       2   42120   42132
   42153       4   42117   42126   42150       4   42105   42087   42108       4
   42105   42093   42111       4   42105   42123   42141       8   42105   42123
   42144       8   42099   42117   42129      10   42099   42120   42135      10
   42096   42084   42102       4   42087   42069   42090       4   42084   42096
   42114       4   42078   42063   42081      10   42078   42096   42114      10
   42072   42093   42111       4   42069   42087   42108       4   42066   42084
   42102       4   42057   42069   42090       4   42054   42063   42081       4
   42426   42417   42429       1   42423   42417   42426       1   42423   42417
   42429       1   42417   42405   42420       2   42414   42405   42417       2
   42414   42405   42420       1   42408   42402   42411       1   42405   42402
   42408       2   42405   42402   42411       2   42405   42417   42423       2
   42405   42417   42426       2   42405   42417   42429       2   42402   42405
   42414       2   42402   42405   42420       2   42399   42387   42402       2
   42396   42387   42399       1   42396   42387   42402       2   42390   42378
   42393       1   42387   42378   42390       2   42387   42378   42393       2
   42387   42402   42408       2   42387   42402   42411       2   42381   42369
   42384       1   42378   42369   42381       2   42378   42369   42384       2
   42378   42387   42396       2   42378   42387   42399       2   42372   42360
   42375       1   42369   42360   42372       2   42369   42360   42375       2
   42369   42378   42390       2   42369   42378   42393       2   42363   42348
   42366       1   42360   42348   42363       2   42360   42348   42366       2
   42360   42369   42381       2   42360   42369   42384       2   42351   42330
   42354       1   42348   42330   42351       2   42348   42330   42354       2
   42348   42360   42372       2   42348   42360   42375       2   42339   42318
   42342       4   42339   42324   42345       4   42333   42315   42336       1
   42330   42315   42333       2   42330   42315   42336       2   42330   42348
   42363       2   42330   42348   42366       2   42324   42312   42327       4
   42324   42339   42357       4   42318   42309   42321       4   42318   42339
   42357       4   42315   42330   42351       2   42315   42330   42354       2
   42312   42324   42345       4   42309   42318   42342       4   42297   42279
   42300       4   42297   42285   42303       4   42297   42315   42333       8
   42297   42315   42336       8   42291   42309   42321      10   42291   42312
   42327      10   42288   42276   42294       4   42279   42261   42282       4
   42276   42288   42306       4   42270   42255   42273      10   42270   42288
   42306      10   42264   42285   42303       4   42261   42279   42300       4
   42258   42276   42294       4   42249   42261   42282       4   42246   42255
   42273       4   42618   42609   42621       1   42615   42609   42618       1
   42615   42609   42621       1   42609   42597   42612       2   42606   42597
   42609       2   42606   42597   42612       1   42600   42594   42603       1
   42597   42594   42600       2   42597   42594   42603       2   42597   42609
   42615       2   42597   42609   42618       2   42597   42609   42621       2
   42594   42597   42606       2   42594   42597   42612       2   42591   42579
   42594       2   42588   42579   42591       1   42588   42579   42594       2
   42582   42570   42585       1   42579   42570   42582       2   42579   42570
   42585       2   42579   42594   42600       2   42579   42594   42603       2
   42573   42561   42576       1   42570   42561   42573       2   42570   42561
   42576       2   42570   42579   42588       2   42570   42579   42591       2
   42564   42552   42567       1   42561   42552   42564       2   42561   42552
   42567       2   42561   42570   42582       2   42561   42570   42585       2
   42555   42540   42558       1   42552   42540   42555       2   42552   42540
   42558       2   42552   42561   42573       2   42552   42561   42576       2
   42543   42522   42546       1   42540   42522   42543       2   42540   42522
   42546       2   42540   42552   42564       2   42540   42552   42567       2
   42531   42510   42534       4   42531   42516   42537       4   42525   42507
   42528       1   42522   42507   42525       2   42522   42507   42528       2
   42522   42540   42555       2   42522   42540   42558       2   42516   42504
   42519       4   42516   42531   42549       4   42510   42501   42513       4
   42510   42531   42549       4   42507   42522   42543       2   42507   42522
   42546       2   42504   42516   42537       4   42501   42510   42534       4
   42489   42471   42492       4   42489   42477   42495       4   42489   42507
   42525       8   42489   42507   42528       8   42483   42501   42513      10
   42483   42504   42519      10   42480   42468   42486       4   42471   42453
   42474       4   42468   42480   42498       4   42462   42447   42465      10
   42462   42480   42498      10   42456   42477   42495       4   42453   42471
   42492       4   42450   42468   42486       4   42441   42453   42474       4
   42438   42447   42465       4   42810   42801   42813       1   42807   42801
   42810       1   42807   42801   42813       1   42801   42789   42804       2
   42798   42789   42801       2   42798   42789   42804       1   42792   42786
   42795       1   42789   42786   42792       2   42789   42786   42795       2
   42789   42801   42807       2   42789   42801   42810       2   42789   42801
   42813       2   42786   42789   42798       2   42786   42789   42804       2
   42783   42771   42786       2   42780   42771   42783       1   42780   42771
   42786       2   42774   42762   42777       1   42771   42762   42774       2
   42771   42762   42777       2   42771   42786   42792       2   42771   42786
   42795       2   42765   42753   42768       1   42762   42753   42765       2
   42762   42753   42768       2   42762   42771   42780       2   42762   42771
   42783       2   42756   42744   42759       1   42753   42744   42756       2
   42753   42744   42759       2   42753   42762   42774       2   42753   42762
   42777       2   42747   42732   42750       1   42744   42732   42747       2
   42744   42732   42750       2   42744   42753   42765       2   42744   42753
   42768       2   42735   42714   42738       1   42732   42714   42735       2
   42732   42714   42738       2   42732   42744   42756       2   42732   42744
   42759       2   42723   42702   42726       4   42723   42708   42729       4
   42717   42699   42720       1   42714   42699   42717       2   42714   42699
   42720       2   42714   42732   42747       2   42714   42732   42750       2
   42708   42696   42711       4   42708   42723   42741       4   42702   42693
   42705       4   42702   42723   42741       4   42699   42714   42735       2
   42699   42714   42738       2   42696   42708   42729       4   42693   42702
   42726       4   42681   42663   42684       4   42681   42669   42687       4
   42681   42699   42717       8   42681   42699   42720       8   42675   42693
   42705      10   42675   42696   42711      10   42672   42660   42678       4
   42663   42645   42666       4   42660   42672   42690       4   42654   42639
   42657      10   42654   42672   42690      10   42648   42669   42687       4
   42645   42663   42684       4   42642   42660   42678       4   42633   42645
   42666       4   42630   42639   42657       4   43002   42993   43005       1
   42999   42993   43002       1   42999   42993   43005       1   42993   42981
   42996       2   42990   42981   42993       2   42990   42981   42996       1
   42984   42978   42987       1   42981   42978   42984       2   42981   42978
   42987       2   42981   42993   42999       2   42981   42993   43002       2
   42981   42993   43005       2   42978   42981   42990       2   42978   42981
   42996       2   42975   42963   42978       2   42972   42963   42975       1
   42972   42963   42978       2   42966   42954   42969       1   42963   42954
   42966       2   42963   42954   42969       2   42963   42978   42984       2
   42963   42978   42987       2   42957   42945   42960       1   42954   42945
   42957       2   42954   42945   42960       2   42954   42963   42972       2
   42954   42963   42975       2   42948   42936   42951       1   42945   42936
   42948       2   42945   42936   42951       2   42945   42954   42966       2
   42945   42954   42969       2   42939   42924   42942       1   42936   42924
   42939       2   42936   42924   42942       2   42936   42945   42957       2
   42936   42945   42960       2   42927   42906   42930       1   42924   42906
   42927       2   42924   42906   42930       2   42924   42936   42948       2
   42924   42936   42951       2   42915   42894   42918       4   42915   42900
   42921       4   42909   42891   42912       1   42906   42891   42909       2
   42906   42891   42912       2   42906   42924   42939       2   42906   42924
   42942       2   42900   42888   42903       4   42900   42915   42933       4
   42894   42885   42897       4   42894   42915   42933       4   42891   42906
   42927       2   42891   42906   42930       2   42888   42900   42921       4
   42885   42894   42918       4   42873   42855   42876       4   42873   42861
   42879       4   42873   42891   42909       8   42873   42891   42912       8
   42867   42885   42897      10   42867   42888   42903      10   42864   42852
   42870       4   42855   42837   42858       4   42852   42864   42882       4
   42846   42831   42849      10   42846   42864   42882      10   42840   42861
   42879       4   42837   42855   42876       4   42834   42852   42870       4
   42825   42837   42858       4   42822   42831   42849       4   43194   43185
   43197       1   43191   43185   43194       1   43191   43185   43197       1
   43185   43173   43188       2   43182   43173   43185       2   43182   43173
   43188       1   43176   43170   43179       1   43173   43170   43176       2
   43173   43170   43179       2   43173   43185   43191       2   43173   43185
   43194       2   43173   43185   43197       2   43170   43173   43182       2
   43170   43173   43188       2   43167   43155   43170       2   43164   43155
   43167       1   43164   43155   43170       2   43158   43146   43161       1
   43155   43146   43158       2   43155   43146   43161       2   43155   43170
   43176       2   43155   43170   43179       2   43149   43137   43152       1
   43146   43137   43149       2   43146   43137   43152       2   43146   43155
   43164       2   43146   43155   43167       2   43140   43128   43143       1
   43137   43128   43140       2   43137   43128   43143       2   43137   43146
   43158       2   43137   43146   43161       2   43131   43116   43134       1
   43128   43116   43131       2   43128   43116   43134       2   43128   43137
   43149       2   43128   43137   43152       2   43119   43098   43122       1
   43116   43098   43119       2   43116   43098   43122       2   43116   43128
   43140       2   43116   43128   43143       2   43107   43086   43110       4
   43107   43092   43113       4   43101   43083   43104       1   43098   43083
   43101       2   43098   43083   43104       2   43098   43116   43131       2
   43098   43116   43134       2   43092   43080   43095       4   43092   43107
   43125       4   43086   43077   43089       4   43086   43107   43125       4
   43083   43098   43119       2   43083   43098   43122       2   43080   43092
   43113       4   43077   43086   43110       4   43065   43047   43068       4
   43065   43053   43071       4   43065   43083   43101       8   43065   43083
   43104       8   43059   43077   43089      10   43059   43080   43095      10
   43056   43044   43062       4   43047   43029   43050       4   43044   43056
   43074       4   43038   43023   43041      10   43038   43056   43074      10
   43032   43053   43071       4   43029   43047   43068       4   43026   43044
   43062       4   43017   43029   43050       4   43014   43023   43041       4
   43386   43377   43389       1   43383   43377   43386       1   43383   43377
   43389       1   43377   43365   43380       2   43374   43365   43377       2
   43374   43365   43380       1   43368   43362   43371       1   43365   43362
   43368       2   43365   43362   43371       2   43365   43377   43383       2
   43365   43377   43386       2   43365   43377   43389       2   43362   43365
   43374       2   43362   43365   43380       2   43359   43347   43362       2
   43356   43347   43359       1   43356   43347   43362       2   43350   43338
   43353       1   43347   43338   43350       2   43347   43338   43353       2
   43347   43362   43368       2   43347   43362   43371       2   43341   43329
   43344       1   43338   43329   43341       2   43338   43329   43344       2
   43338   43347   43356       2   43338   43347   43359       2   43332   43320
   43335       1   43329   43320   43332       2   43329   43320   43335       2
   43329   43338   43350       2   43329   43338   43353       2   43323   43308
   43326       1   43320   43308   43323       2   43320   43308   43326       2
   43320   43329   43341       2   43320   43329   43344       2   43311   43290
   43314       1   43308   43290   43311       2   43308   43290   43314       2
   43308   43320   43332       2   43308   43320   43335       2   43299   43278
   43302       4   43299   43284   43305       4   43293   43275   43296       1
   43290   43275   43293       2   43290   43275   43296       2   43290   43308
   43323       2   43290   43308   43326       2   43284   43272   43287       4
   43284   43299   43317       4   43278   43269   43281       4   43278   43299
   43317       4   43275   43290   43311       2   43275   43290   43314       2
   43272   43284   43305       4   43269   43278   43302       4   43257   43239
   43260       4   43257   43245   43263       4   43257   43275   43293       8
   43257   43275   43296       8   43251   43269   43281      10   43251   43272
   43287      10   43248   43236   43254       4   43239   43221   43242       4
   43236   43248   43266       4   43230   43215   43233      10   43230   43248
   43266      10   43224   43245   43263       4   43221   43239   43260       4
   43218   43236   43254       4   43209   43221   43242       4   43206   43215
   43233       4   43578   43569   43581       1   43575   43569   43578       1
   43575   43569   43581       1   43569   43557   43572       2   43566   43557
   43569       2   43566   43557   43572       1   43560   43554   43563       1
   43557   43554   43560       2   43557   43554   43563       2   43557   43569
   43575       2   43557   43569   43578       2   43557   43569   43581       2
   43554   43557   43566       2   43554   43557   43572       2   43551   43539
   43554       2   43548   43539   43551       1   43548   43539   43554       2
   43542   43530   43545       1   43539   43530   43542       2   43539   43530
   43545       2   43539   43554   43560       2   43539   43554   43563       2
   43533   43521   43536       1   43530   43521   43533       2   43530   43521
   43536       2   43530   43539   43548       2   43530   43539   43551       2
   43524   43512   43527       1   43521   43512   43524       2   43521   43512
   43527       2   43521   43530   43542       2   43521   43530   43545       2
   43515   43500   43518       1   43512   43500   43515       2   43512   43500
   43518       2   43512   43521   43533       2   43512   43521   43536       2
   43503   43482   43506       1   43500   43482   43503       2   43500   43482
   43506       2   43500   43512   43524       2   43500   43512   43527       2
   43491   43470   43494       4   43491   43476   43497       4   43485   43467
   43488       1   43482   43467   43485       2   43482   43467   43488       2
   43482   43500   43515       2   43482   43500   43518       2   43476   43464
   43479       4   43476   43491   43509       4   43470   43461   43473       4
   43470   43491   43509       4   43467   43482   43503       2   43467   43482
   43506       2   43464   43476   43497       4   43461   43470   43494       4
   43449   43431   43452       4   43449   43437   43455       4   43449   43467
   43485       8   43449   43467   43488       8   43443   43461   43473      10
   43443   43464   43479      10   43440   43428   43446       4   43431   43413
   43434       4   43428   43440   43458       4   43422   43407   43425      10
   43422   43440   43458      10   43416   43437   43455       4   43413   43431
   43452       4   43410   43428   43446       4   43401   43413   43434       4
   43398   43407   43425       4   43770   43761   43773       1   43767   43761
   43770       1   43767   43761   43773       1   43761   43749   43764       2
   43758   43749   43761       2   43758   43749   43764       1   43752   43746
   43755       1   43749   43746   43752       2   43749   43746   43755       2
   43749   43761   43767       2   43749   43761   43770       2   43749   43761
   43773       2   43746   43749   43758       2   43746   43749   43764       2
   43743   43731   43746       2   43740   43731   43743       1   43740   43731
   43746       2   43734   43722   43737       1   43731   43722   43734       2
   43731   43722   43737       2   43731   43746   43752       2   43731   43746
   43755       2   43725   43713   43728       1   43722   43713   43725       2
   43722   43713   43728       2   43722   43731   43740       2   43722   43731
   43743       2   43716   43704   43719       1   43713   43704   43716       2
   43713   43704   43719       2   43713   43722   43734       2   43713   43722
   43737       2   43707   43692   43710       1   43704   43692   43707       2
   43704   43692   43710       2   43704   43713   43725       2   43704   43713
   43728       2   43695   43674   43698       1   43692   43674   43695       2
   43692   43674   43698       2   43692   43704   43716       2   43692   43704
   43719       2   43683   43662   43686       4   43683   43668   43689       4
   43677   43659   43680       1   43674   43659   43677       2   43674   43659
   43680       2   43674   43692   43707       2   43674   43692   43710       2
   43668   43656   43671       4   43668   43683   43701       4   43662   43653
   43665       4   43662   43683   43701       4   43659   43674   43695       2
   43659   43674   43698       2   43656   43668   43689       4   43653   43662
   43686       4   43641   43623   43644       4   43641   43629   43647       4
   43641   43659   43677       8   43641   43659   43680       8   43635   43653
   43665      10   43635   43656   43671      10   43632   43620   43638       4
   43623   43605   43626       4   43620   43632   43650       4   43614   43599
   43617      10   43614   43632   43650      10   43608   43629   43647       4
   43605   43623   43644       4   43602   43620   43638       4   43593   43605
   43626       4   43590   43599   43617       4   43962   43953   43965       1
   43959   43953   43962       1   43959   43953   43965       1   43953   43941
   43956       2   43950   43941   43953       2   43950   43941   43956       1
   43944   43938   43947       1   43941   43938   43944       2   43941   43938
   43947       2   43941   43953   43959       2   43941   43953   43962       2
   43941   43953   43965       2   43938   43941   43950       2   43938   43941
   43956       2   43935   43923   43938       2   43932   43923   43935       1
   43932   43923   43938       2   43926   43914   43929       1   43923   43914
   43926       2   43923   43914   43929       2   43923   43938   43944       2
   43923   43938   43947       2   43917   43905   43920       1   43914   43905
   43917       2   43914   43905   43920       2   43914   43923   43932       2
   43914   43923   43935       2   43908   43896   43911       1   43905   43896
   43908       2   43905   43896   43911       2   43905   43914   43926       2
   43905   43914   43929       2   43899   43884   43902       1   43896   43884
   43899       2   43896   43884   43902       2   43896   43905   43917       2
   43896   43905   43920       2   43887   43866   43890       1   43884   43866
   43887       2   43884   43866   43890       2   43884   43896   43908       2
   43884   43896   43911       2   43875   43854   43878       4   43875   43860
   43881       4   43869   43851   43872       1   43866   43851   43869       2
   43866   43851   43872       2   43866   43884   43899       2   43866   43884
   43902       2   43860   43848   43863       4   43860   43875   43893       4
   43854   43845   43857       4   43854   43875   43893       4   43851   43866
   43887       2   43851   43866   43890       2   43848   43860   43881       4
   43845   43854   43878       4   43833   43815   43836       4   43833   43821
   43839       4   43833   43851   43869       8   43833   43851   43872       8
   43827   43845   43857      10   43827   43848   43863      10   43824   43812
   43830       4   43815   43797   43818       4   43812   43824   43842       4
   43806   43791   43809      10   43806   43824   43842      10   43800   43821
   43839       4   43797   43815   43836       4   43794   43812   43830       4
   43785   43797   43818       4   43782   43791   43809       4   44154   44145
   44157       1   44151   44145   44154       1   44151   44145   44157       1
   44145   44133   44148       2   44142   44133   44145       2   44142   44133
   44148       1   44136   44130   44139       1   44133   44130   44136       2
   44133   44130   44139       2   44133   44145   44151       2   44133   44145
   44154       2   44133   44145   44157       2   44130   44133   44142       2
   44130   44133   44148       2   44127   44115   44130       2   44124   44115
   44127       1   44124   44115   44130       2   44118   44106   44121       1
   44115   44106   44118       2   44115   44106   44121       2   44115   44130
   44136       2   44115   44130   44139       2   44109   44097   44112       1
   44106   44097   44109       2   44106   44097   44112       2   44106   44115
   44124       2   44106   44115   44127       2   44100   44088   44103       1
   44097   44088   44100       2   44097   44088   44103       2   44097   44106
   44118       2   44097   44106   44121       2   44091   44076   44094       1
   44088   44076   44091       2   44088   44076   44094       2   44088   44097
   44109       2   44088   44097   44112       2   44079   44058   44082       1
   44076   44058   44079       2   44076   44058   44082       2   44076   44088
   44100       2   44076   44088   44103       2   44067   44046   44070       4
   44067   44052   44073       4   44061   44043   44064       1   44058   44043
   44061       2   44058   44043   44064       2   44058   44076   44091       2
   44058   44076   44094       2   44052   44040   44055       4   44052   44067
   44085       4   44046   44037   44049       4   44046   44067   44085       4
   44043   44058   44079       2   44043   44058   44082       2   44040   44052
   44073       4   44037   44046   44070       4   44025   44007   44028       4
   44025   44013   44031       4   44025   44043   44061       8   44025   44043
   44064       8   44019   44037   44049      10   44019   44040   44055      10
   44016   44004   44022       4   44007   43989   44010       4   44004   44016
   44034       4   43998   43983   44001      10   43998   44016   44034      10
   43992   44013   44031       4   43989   44007   44028       4   43986   44004
   44022       4   43977   43989   44010       4   43974   43983   44001       4
   44346   44337   44349       1   44343   44337   44346       1   44343   44337
   44349       1   44337   44325   44340       2   44334   44325   44337       2
   44334   44325   44340       1   44328   44322   44331       1   44325   44322
   44328       2   44325   44322   44331       2   44325   44337   44343       2
   44325   44337   44346       2   44325   44337   44349       2   44322   44325
   44334       2   44322   44325   44340       2   44319   44307   44322       2
   44316   44307   44319       1   44316   44307   44322       2   44310   44298
   44313       1   44307   44298   44310       2   44307   44298   44313       2
   44307   44322   44328       2   44307   44322   44331       2   44301   44289
   44304       1   44298   44289   44301       2   44298   44289   44304       2
   44298   44307   44316       2   44298   44307   44319       2   44292   44280
   44295       1   44289   44280   44292       2   44289   44280   44295       2
   44289   44298   44310       2   44289   44298   44313       2   44283   44268
   44286       1   44280   44268   44283       2   44280   44268   44286       2
   44280   44289   44301       2   44280   44289   44304       2   44271   44250
   44274       1   44268   44250   44271       2   44268   44250   44274       2
   44268   44280   44292       2   44268   44280   44295       2   44259   44238
   44262       4   44259   44244   44265       4   44253   44235   44256       1
   44250   44235   44253       2   44250   44235   44256       2   44250   44268
   44283       2   44250   44268   44286       2   44244   44232   44247       4
   44244   44259   44277       4   44238   44229   44241       4   44238   44259
   44277       4   44235   44250   44271       2   44235   44250   44274       2
   44232   44244   44265       4   44229   44238   44262       4   44217   44199
   44220       4   44217   44205   44223       4   44217   44235   44253       8
   44217   44235   44256       8   44211   44229   44241      10   44211   44232
   44247      10   44208   44196   44214       4   44199   44181   44202       4
   44196   44208   44226       4   44190   44175   44193      10   44190   44208
   44226      10   44184   44205   44223       4   44181   44199   44220       4
   44178   44196   44214       4   44169   44181   44202       4   44166   44175
   44193       4   44538   44529   44541       1   44535   44529   44538       1
   44535   44529   44541       1   44529   44517   44532       2   44526   44517
   44529       2   44526   44517   44532       1   44520   44514   44523       1
   44517   44514   44520       2   44517   44514   44523       2   44517   44529
   44535       2   44517   44529   44538       2   44517   44529   44541       2
   44514   44517   44526       2   44514   44517   44532       2   44511   44499
   44514       2   44508   44499   44511       1   44508   44499   44514       2
   44502   44490   44505       1   44499   44490   44502       2   44499   44490
   44505       2   44499   44514   44520       2   44499   44514   44523       2
   44493   44481   44496       1   44490   44481   44493       2   44490   44481
   44496       2   44490   44499   44508       2   44490   44499   44511       2
   44484   44472   44487       1   44481   44472   44484       2   44481   44472
   44487       2   44481   44490   44502       2   44481   44490   44505       2
   44475   44460   44478       1   44472   44460   44475       2   44472   44460
   44478       2   44472   44481   44493       2   44472   44481   44496       2
   44463   44442   44466       1   44460   44442   44463       2   44460   44442
   44466       2   44460   44472   44484       2   44460   44472   44487       2
   44451   44430   44454       4   44451   44436   44457       4   44445   44427
   44448       1   44442   44427   44445       2   44442   44427   44448       2
   44442   44460   44475       2   44442   44460   44478       2   44436   44424
   44439       4   44436   44451   44469       4   44430   44421   44433       4
   44430   44451   44469       4   44427   44442   44463       2   44427   44442
   44466       2   44424   44436   44457       4   44421   44430   44454       4
   44409   44391   44412       4   44409   44397   44415       4   44409   44427
   44445       8   44409   44427   44448       8   44403   44421   44433      10
   44403   44424   44439      10   44400   44388   44406       4   44391   44373
   44394       4   44388   44400   44418       4   44382   44367   44385      10
   44382   44400   44418      10   44376   44397   44415       4   44373   44391
   44412       4   44370   44388   44406       4   44361   44373   44394       4
   44358   44367   44385       4   44730   44721   44733       1   44727   44721
   44730       1   44727   44721   44733       1   44721   44709   44724       2
   44718   44709   44721       2   44718   44709   44724       1   44712   44706
   44715       1   44709   44706   44712       2   44709   44706   44715       2
   44709   44721   44727       2   44709   44721   44730       2   44709   44721
   44733       2   44706   44709   44718       2   44706   44709   44724       2
   44703   44691   44706       2   44700   44691   44703       1   44700   44691
   44706       2   44694   44682   44697       1   44691   44682   44694       2
   44691   44682   44697       2   44691   44706   44712       2   44691   44706
   44715       2   44685   44673   44688       1   44682   44673   44685       2
   44682   44673   44688       2   44682   44691   44700       2   44682   44691
   44703       2   44676   44664   44679       1   44673   44664   44676       2
   44673   44664   44679       2   44673   44682   44694       2   44673   44682
   44697       2   44667   44652   44670       1   44664   44652   44667       2
   44664   44652   44670       2   44664   44673   44685       2   44664   44673
   44688       2   44655   44634   44658       1   44652   44634   44655       2
   44652   44634   44658       2   44652   44664   44676       2   44652   44664
   44679       2   44643   44622   44646       4   44643   44628   44649       4
   44637   44619   44640       1   44634   44619   44637       2   44634   44619
   44640       2   44634   44652   44667       2   44634   44652   44670       2
   44628   44616   44631       4   44628   44643   44661       4   44622   44613
   44625       4   44622   44643   44661       4   44619   44634   44655       2
   44619   44634   44658       2   44616   44628   44649       4   44613   44622
   44646       4   44601   44583   44604       4   44601   44589   44607       4
   44601   44619   44637       8   44601   44619   44640       8   44595   44613
   44625      10   44595   44616   44631      10   44592   44580   44598       4
   44583   44565   44586       4   44580   44592   44610       4   44574   44559
   44577      10   44574   44592   44610      10   44568   44589   44607       4
   44565   44583   44604       4   44562   44580   44598       4   44553   44565
   44586       4   44550   44559   44577       4   44922   44913   44925       1
   44919   44913   44922       1   44919   44913   44925       1   44913   44901
   44916       2   44910   44901   44913       2   44910   44901   44916       1
   44904   44898   44907       1   44901   44898   44904       2   44901   44898
   44907       2   44901   44913   44919       2   44901   44913   44922       2
   44901   44913   44925       2   44898   44901   44910       2   44898   44901
   44916       2   44895   44883   44898       2   44892   44883   44895       1
   44892   44883   44898       2   44886   44874   44889       1   44883   44874
   44886       2   44883   44874   44889       2   44883   44898   44904       2
   44883   44898   44907       2   44877   44865   44880       1   44874   44865
   44877       2   44874   44865   44880       2   44874   44883   44892       2
   44874   44883   44895       2   44868   44856   44871       1   44865   44856
   44868       2   44865   44856   44871       2   44865   44874   44886       2
   44865   44874   44889       2   44859   44844   44862       1   44856   44844
   44859       2   44856   44844   44862       2   44856   44865   44877       2
   44856   44865   44880       2   44847   44826   44850       1   44844   44826
   44847       2   44844   44826   44850       2   44844   44856   44868       2
   44844   44856   44871       2   44835   44814   44838       4   44835   44820
   44841       4   44829   44811   44832       1   44826   44811   44829       2
   44826   44811   44832       2   44826   44844   44859       2   44826   44844
   44862       2   44820   44808   44823       4   44820   44835   44853       4
   44814   44805   44817       4   44814   44835   44853       4   44811   44826
   44847       2   44811   44826   44850       2   44808   44820   44841       4
   44805   44814   44838       4   44793   44775   44796       4   44793   44781
   44799       4   44793   44811   44829       8   44793   44811   44832       8
   44787   44805   44817      10   44787   44808   44823      10   44784   44772
   44790       4   44775   44757   44778       4   44772   44784   44802       4
   44766   44751   44769      10   44766   44784   44802      10   44760   44781
   44799       4   44757   44775   44796       4   44754   44772   44790       4
   44745   44757   44778       4   44742   44751   44769       4   45114   45105
   45117       1   45111   45105   45114       1   45111   45105   45117       1
   45105   45093   45108       2   45102   45093   45105       2   45102   45093
   45108       1   45096   45090   45099       1   45093   45090   45096       2
   45093   45090   45099       2   45093   45105   45111       2   45093   45105
   45114       2   45093   45105   45117       2   45090   45093   45102       2
   45090   45093   45108       2   45087   45075   45090       2   45084   45075
   45087       1   45084   45075   45090       2   45078   45066   45081       1
   45075   45066   45078       2   45075   45066   45081       2   45075   45090
   45096       2   45075   45090   45099       2   45069   45057   45072       1
   45066   45057   45069       2   45066   45057   45072       2   45066   45075
   45084       2   45066   45075   45087       2   45060   45048   45063       1
   45057   45048   45060       2   45057   45048   45063       2   45057   45066
   45078       2   45057   45066   45081       2   45051   45036   45054       1
   45048   45036   45051       2   45048   45036   45054       2   45048   45057
   45069       2   45048   45057   45072       2   45039   45018   45042       1
   45036   45018   45039       2   45036   45018   45042       2   45036   45048
   45060       2   45036   45048   45063       2   45027   45006   45030       4
   45027   45012   45033       4   45021   45003   45024       1   45018   45003
   45021       2   45018   45003   45024       2   45018   45036   45051       2
   45018   45036   45054       2   45012   45000   45015       4   45012   45027
   45045       4   45006   44997   45009       4   45006   45027   45045       4
   45003   45018   45039       2   45003   45018   45042       2   45000   45012
   45033       4   44997   45006   45030       4   44985   44967   44988       4
   44985   44973   44991       4   44985   45003   45021       8   44985   45003
   45024       8   44979   44997   45009      10   44979   45000   45015      10
   44976   44964   44982       4   44967   44949   44970       4   44964   44976
   44994       4   44958   44943   44961      10   44958   44976   44994      10
   44952   44973   44991       4   44949   44967   44988       4   44946   44964
   44982       4   44937   44949   44970       4   44934   44943   44961       4
   45306   45297   45309       1   45303   45297   45306       1   45303   45297
   45309       1   45297   45285   45300       2   45294   45285   45297       2
   45294   45285   45300       1   45288   45282   45291       1   45285   45282
   45288       2   45285   45282   45291       2   45285   45297   45303       2
   45285   45297   45306       2   45285   45297   45309       2   45282   45285
   45294       2   45282   45285   45300       2   45279   45267   45282       2
   45276   45267   45279       1   45276   45267   45282       2   45270   45258
   45273       1   45267   45258   45270       2   45267   45258   45273       2
   45267   45282   45288       2   45267   45282   45291       2   45261   45249
   45264       1   45258   45249   45261       2   45258   45249   45264       2
   45258   45267   45276       2   45258   45267   45279       2   45252   45240
   45255       1   45249   45240   45252       2   45249   45240   45255       2
   45249   45258   45270       2   45249   45258   45273       2   45243   45228
   45246       1   45240   45228   45243       2   45240   45228   45246       2
   45240   45249   45261       2   45240   45249   45264       2   45231   45210
   45234       1   45228   45210   45231       2   45228   45210   45234       2
   45228   45240   45252       2   45228   45240   45255       2   45219   45198
   45222       4   45219   45204   45225       4   45213   45195   45216       1
   45210   45195   45213       2   45210   45195   45216       2   45210   45228
   45243       2   45210   45228   45246       2   45204   45192   45207       4
   45204   45219   45237       4   45198   45189   45201       4   45198   45219
   45237       4   45195   45210   45231       2   45195   45210   45234       2
   45192   45204   45225       4   45189   45198   45222       4   45177   45159
   45180       4   45177   45165   45183       4   45177   45195   45213       8
   45177   45195   45216       8   45171   45189   45201      10   45171   45192
   45207      10   45168   45156   45174       4   45159   45141   45162       4
   45156   45168   45186       4   45150   45135   45153      10   45150   45168
   45186      10   45144   45165   45183       4   45141   45159   45180       4
   45138   45156   45174       4   45129   45141   45162       4   45126   45135
   45153       4   45498   45489   45501       1   45495   45489   45498       1
   45495   45489   45501       1   45489   45477   45492       2   45486   45477
   45489       2   45486   45477   45492       1   45480   45474   45483       1
   45477   45474   45480       2   45477   45474   45483       2   45477   45489
   45495       2   45477   45489   45498       2   45477   45489   45501       2
   45474   45477   45486       2   45474   45477   45492       2   45471   45459
   45474       2   45468   45459   45471       1   45468   45459   45474       2
   45462   45450   45465       1   45459   45450   45462       2   45459   45450
   45465       2   45459   45474   45480       2   45459   45474   45483       2
   45453   45441   45456       1   45450   45441   45453       2   45450   45441
   45456       2   45450   45459   45468       2   45450   45459   45471       2
   45444   45432   45447       1   45441   45432   45444       2   45441   45432
   45447       2   45441   45450   45462       2   45441   45450   45465       2
   45435   45420   45438       1   45432   45420   45435       2   45432   45420
   45438       2   45432   45441   45453       2   45432   45441   45456       2
   45423   45402   45426       1   45420   45402   45423       2   45420   45402
   45426       2   45420   45432   45444       2   45420   45432   45447       2
   45411   45390   45414       4   45411   45396   45417       4   45405   45387
   45408       1   45402   45387   45405       2   45402   45387   45408       2
   45402   45420   45435       2   45402   45420   45438       2   45396   45384
   45399       4   45396   45411   45429       4   45390   45381   45393       4
   45390   45411   45429       4   45387   45402   45423       2   45387   45402
   45426       2   45384   45396   45417       4   45381   45390   45414       4
   45369   45351   45372       4   45369   45357   45375       4   45369   45387
   45405       8   45369   45387   45408       8   45363   45381   45393      10
   45363   45384   45399      10   45360   45348   45366       4   45351   45333
   45354       4   45348   45360   45378       4   45342   45327   45345      10
   45342   45360   45378      10   45336   45357   45375       4   45333   45351
   45372       4   45330   45348   45366       4   45321   45333   45354       4
   45318   45327   45345       4   45690   45681   45693       1   45687   45681
   45690       1   45687   45681   45693       1   45681   45669   45684       2
   45678   45669   45681       2   45678   45669   45684       1   45672   45666
   45675       1   45669   45666   45672       2   45669   45666   45675       2
   45669   45681   45687       2   45669   45681   45690       2   45669   45681
   45693       2   45666   45669   45678       2   45666   45669   45684       2
   45663   45651   45666       2   45660   45651   45663       1   45660   45651
   45666       2   45654   45642   45657       1   45651   45642   45654       2
   45651   45642   45657       2   45651   45666   45672       2   45651   45666
   45675       2   45645   45633   45648       1   45642   45633   45645       2
   45642   45633   45648       2   45642   45651   45660       2   45642   45651
   45663       2   45636   45624   45639       1   45633   45624   45636       2
   45633   45624   45639       2   45633   45642   45654       2   45633   45642
   45657       2   45627   45612   45630       1   45624   45612   45627       2
   45624   45612   45630       2   45624   45633   45645       2   45624   45633
   45648       2   45615   45594   45618       1   45612   45594   45615       2
   45612   45594   45618       2   45612   45624   45636       2   45612   45624
   45639       2   45603   45582   45606       4   45603   45588   45609       4
   45597   45579   45600       1   45594   45579   45597       2   45594   45579
   45600       2   45594   45612   45627       2   45594   45612   45630       2
   45588   45576   45591       4   45588   45603   45621       4   45582   45573
   45585       4   45582   45603   45621       4   45579   45594   45615       2
   45579   45594   45618       2   45576   45588   45609       4   45573   45582
   45606       4   45561   45543   45564       4   45561   45549   45567       4
   45561   45579   45597       8   45561   45579   45600       8   45555   45573
   45585      10   45555   45576   45591      10   45552   45540   45558       4
   45543   45525   45546       4   45540   45552   45570       4   45534   45519
   45537      10   45534   45552   45570      10   45528   45549   45567       4
   45525   45543   45564       4   45522   45540   45558       4   45513   45525
   45546       4   45510   45519   45537       4   45882   45873   45885       1
   45879   45873   45882       1   45879   45873   45885       1   45873   45861
   45876       2   45870   45861   45873       2   45870   45861   45876       1
   45864   45858   45867       1   45861   45858   45864       2   45861   45858
   45867       2   45861   45873   45879       2   45861   45873   45882       2
   45861   45873   45885       2   45858   45861   45870       2   45858   45861
   45876       2   45855   45843   45858       2   45852   45843   45855       1
   45852   45843   45858       2   45846   45834   45849       1   45843   45834
   45846       2   45843   45834   45849       2   45843   45858   45864       2
   45843   45858   45867       2   45837   45825   45840       1   45834   45825
   45837       2   45834   45825   45840       2   45834   45843   45852       2
   45834   45843   45855       2   45828   45816   45831       1   45825   45816
   45828       2   45825   45816   45831       2   45825   45834   45846       2
   45825   45834   45849       2   45819   45804   45822       1   45816   45804
   45819       2   45816   45804   45822       2   45816   45825   45837       2
   45816   45825   45840       2   45807   45786   45810       1   45804   45786
   45807       2   45804   45786   45810       2   45804   45816   45828       2
   45804   45816   45831       2   45795   45774   45798       4   45795   45780
   45801       4   45789   45771   45792       1   45786   45771   45789       2
   45786   45771   45792       2   45786   45804   45819       2   45786   45804
   45822       2   45780   45768   45783       4   45780   45795   45813       4
   45774   45765   45777       4   45774   45795   45813       4   45771   45786
   45807       2   45771   45786   45810       2   45768   45780   45801       4
   45765   45774   45798       4   45753   45735   45756       4   45753   45741
   45759       4   45753   45771   45789       8   45753   45771   45792       8
   45747   45765   45777      10   45747   45768   45783      10   45744   45732
   45750       4   45735   45717   45738       4   45732   45744   45762       4
   45726   45711   45729      10   45726   45744   45762      10   45720   45741
   45759       4   45717   45735   45756       4   45714   45732   45750       4
   45705   45717   45738       4   45702   45711   45729       4   46074   46065
   46077       1   46071   46065   46074       1   46071   46065   46077       1
   46065   46053   46068       2   46062   46053   46065       2   46062   46053
   46068       1   46056   46050   46059       1   46053   46050   46056       2
   46053   46050   46059       2   46053   46065   46071       2   46053   46065
   46074       2   46053   46065   46077       2   46050   46053   46062       2
   46050   46053   46068       2   46047   46035   46050       2   46044   46035
   46047       1   46044   46035   46050       2   46038   46026   46041       1
   46035   46026   46038       2   46035   46026   46041       2   46035   46050
   46056       2   46035   46050   46059       2   46029   46017   46032       1
   46026   46017   46029       2   46026   46017   46032       2   46026   46035
   46044       2   46026   46035   46047       2   46020   46008   46023       1
   46017   46008   46020       2   46017   46008   46023       2   46017   46026
   46038       2   46017   46026   46041       2   46011   45996   46014       1
   46008   45996   46011       2   46008   45996   46014       2   46008   46017
   46029       2   46008   46017   46032       2   45999   45978   46002       1
   45996   45978   45999       2   45996   45978   46002       2   45996   46008
   46020       2   45996   46008   46023       2   45987   45966   45990       4
   45987   45972   45993       4   45981   45963   45984       1   45978   45963
   45981       2   45978   45963   45984       2   45978   45996   46011       2
   45978   45996   46014       2   45972   45960   45975       4   45972   45987
   46005       4   45966   45957   45969       4   45966   45987   46005       4
   45963   45978   45999       2   45963   45978   46002       2   45960   45972
   45993       4   45957   45966   45990       4   45945   45927   45948       4
   45945   45933   45951       4   45945   45963   45981       8   45945   45963
   45984       8   45939   45957   45969      10   45939   45960   45975      10
   45936   45924   45942       4   45927   45909   45930       4   45924   45936
   45954       4   45918   45903   45921      10   45918   45936   45954      10
   45912   45933   45951       4   45909   45927   45948       4   45906   45924
   45942       4   45897   45909   45930       4   45894   45903   45921       4
   46266   46257   46269       1   46263   46257   46266       1   46263   46257
   46269       1   46257   46245   46260       2   46254   46245   46257       2
   46254   46245   46260       1   46248   46242   46251       1   46245   46242
   46248       2   46245   46242   46251       2   46245   46257   46263       2
   46245   46257   46266       2   46245   46257   46269       2   46242   46245
   46254       2   46242   46245   46260       2   46239   46227   46242       2
   46236   46227   46239       1   46236   46227   46242       2   46230   46218
   46233       1   46227   46218   46230       2   46227   46218   46233       2
   46227   46242   46248       2   46227   46242   46251       2   46221   46209
   46224       1   46218   46209   46221       2   46218   46209   46224       2
   46218   46227   46236       2   46218   46227   46239       2   46212   46200
   46215       1   46209   46200   46212       2   46209   46200   46215       2
   46209   46218   46230       2   46209   46218   46233       2   46203   46188
   46206       1   46200   46188   46203       2   46200   46188   46206       2
   46200   46209   46221       2   46200   46209   46224       2   46191   46170
   46194       1   46188   46170   46191       2   46188   46170   46194       2
   46188   46200   46212       2   46188   46200   46215       2   46179   46158
   46182       4   46179   46164   46185       4   46173   46155   46176       1
   46170   46155   46173       2   46170   46155   46176       2   46170   46188
   46203       2   46170   46188   46206       2   46164   46152   46167       4
   46164   46179   46197       4   46158   46149   46161       4   46158   46179
   46197       4   46155   46170   46191       2   46155   46170   46194       2
   46152   46164   46185       4   46149   46158   46182       4   46137   46119
   46140       4   46137   46125   46143       4   46137   46155   46173       8
   46137   46155   46176       8   46131   46149   46161      10   46131   46152
   46167      10   46128   46116   46134       4   46119   46101   46122       4
   46116   46128   46146       4   46110   46095   46113      10   46110   46128
   46146      10   46104   46125   46143       4   46101   46119   46140       4
   46098   46116   46134       4   46089   46101   46122       4   46086   46095
   46113       4   46458   46449   46461       1   46455   46449   46458       1
   46455   46449   46461       1   46449   46437   46452       2   46446   46437
   46449       2   46446   46437   46452       1   46440   46434   46443       1
   46437   46434   46440       2   46437   46434   46443       2   46437   46449
   46455       2   46437   46449   46458       2   46437   46449   46461       2
   46434   46437   46446       2   46434   46437   46452       2   46431   46419
   46434       2   46428   46419   46431       1   46428   46419   46434       2
   46422   46410   46425       1   46419   46410   46422       2   46419   46410
   46425       2   46419   46434   46440       2   46419   46434   46443       2
   46413   46401   46416       1   46410   46401   46413       2   46410   46401
   46416       2   46410   46419   46428       2   46410   46419   46431       2
   46404   46392   46407       1   46401   46392   46404       2   46401   46392
   46407       2   46401   46410   46422       2   46401   46410   46425       2
   46395   46380   46398       1   46392   46380   46395       2   46392   46380
   46398       2   46392   46401   46413       2   46392   46401   46416       2
   46383   46362   46386       1   46380   46362   46383       2   46380   46362
   46386       2   46380   46392   46404       2   46380   46392   46407       2
   46371   46350   46374       4   46371   46356   46377       4   46365   46347
   46368       1   46362   46347   46365       2   46362   46347   46368       2
   46362   46380   46395       2   46362   46380   46398       2   46356   46344
   46359       4   46356   46371   46389       4   46350   46341   46353       4
   46350   46371   46389       4   46347   46362   46383       2   46347   46362
   46386       2   46344   46356   46377       4   46341   46350   46374       4
   46329   46311   46332       4   46329   46317   46335       4   46329   46347
   46365       8   46329   46347   46368       8   46323   46341   46353      10
   46323   46344   46359      10   46320   46308   46326       4   46311   46293
   46314       4   46308   46320   46338       4   46302   46287   46305      10
   46302   46320   46338      10   46296   46317   46335       4   46293   46311
   46332       4   46290   46308   46326       4   46281   46293   46314       4
   46278   46287   46305       4   46650   46641   46653       1   46647   46641
   46650       1   46647   46641   46653       1   46641   46629   46644       2
   46638   46629   46641       2   46638   46629   46644       1   46632   46626
   46635       1   46629   46626   46632       2   46629   46626   46635       2
   46629   46641   46647       2   46629   46641   46650       2   46629   46641
   46653       2   46626   46629   46638       2   46626   46629   46644       2
   46623   46611   46626       2   46620   46611   46623       1   46620   46611
   46626       2   46614   46602   46617       1   46611   46602   46614       2
   46611   46602   46617       2   46611   46626   46632       2   46611   46626
   46635       2   46605   46593   46608       1   46602   46593   46605       2
   46602   46593   46608       2   46602   46611   46620       2   46602   46611
   46623       2   46596   46584   46599       1   46593   46584   46596       2
   46593   46584   46599       2   46593   46602   46614       2   46593   46602
   46617       2   46587   46572   46590       1   46584   46572   46587       2
   46584   46572   46590       2   46584   46593   46605       2   46584   46593
   46608       2   46575   46554   46578       1   46572   46554   46575       2
   46572   46554   46578       2   46572   46584   46596       2   46572   46584
   46599       2   46563   46542   46566       4   46563   46548   46569       4
   46557   46539   46560       1   46554   46539   46557       2   46554   46539
   46560       2   46554   46572   46587       2   46554   46572   46590       2
   46548   46536   46551       4   46548   46563   46581       4   46542   46533
   46545       4   46542   46563   46581       4   46539   46554   46575       2
   46539   46554   46578       2   46536   46548   46569       4   46533   46542
   46566       4   46521   46503   46524       4   46521   46509   46527       4
   46521   46539   46557       8   46521   46539   46560       8   46515   46533
   46545      10   46515   46536   46551      10   46512   46500   46518       4
   46503   46485   46506       4   46500   46512   46530       4   46494   46479
   46497      10   46494   46512   46530      10   46488   46509   46527       4
   46485   46503   46524       4   46482   46500   46518       4   46473   46485
   46506       4   46470   46479   46497       4   46842   46833   46845       1
   46839   46833   46842       1   46839   46833   46845       1   46833   46821
   46836       2   46830   46821   46833       2   46830   46821   46836       1
   46824   46818   46827       1   46821   46818   46824       2   46821   46818
   46827       2   46821   46833   46839       2   46821   46833   46842       2
   46821   46833   46845       2   46818   46821   46830       2   46818   46821
   46836       2   46815   46803   46818       2   46812   46803   46815       1
   46812   46803   46818       2   46806   46794   46809       1   46803   46794
   46806       2   46803   46794   46809       2   46803   46818   46824       2
   46803   46818   46827       2   46797   46785   46800       1   46794   46785
   46797       2   46794   46785   46800       2   46794   46803   46812       2
   46794   46803   46815       2   46788   46776   46791       1   46785   46776
   46788       2   46785   46776   46791       2   46785   46794   46806       2
   46785   46794   46809       2   46779   46764   46782       1   46776   46764
   46779       2   46776   46764   46782       2   46776   46785   46797       2
   46776   46785   46800       2   46767   46746   46770       1   46764   46746
   46767       2   46764   46746   46770       2   46764   46776   46788       2
   46764   46776   46791       2   46755   46734   46758       4   46755   46740
   46761       4   46749   46731   46752       1   46746   46731   46749       2
   46746   46731   46752       2   46746   46764   46779       2   46746   46764
   46782       2   46740   46728   46743       4   46740   46755   46773       4
   46734   46725   46737       4   46734   46755   46773       4   46731   46746
   46767       2   46731   46746   46770       2   46728   46740   46761       4
   46725   46734   46758       4   46713   46695   46716       4   46713   46701
   46719       4   46713   46731   46749       8   46713   46731   46752       8
   46707   46725   46737      10   46707   46728   46743      10   46704   46692
   46710       4   46695   46677   46698       4   46692   46704   46722       4
   46686   46671   46689      10   46686   46704   46722      10   46680   46701
   46719       4   46677   46695   46716       4   46674   46692   46710       4
   46665   46677   46698       4   46662   46671   46689       4   47034   47025
   47037       1   47031   47025   47034       1   47031   47025   47037       1
   47025   47013   47028       2   47022   47013   47025       2   47022   47013
   47028       1   47016   47010   47019       1   47013   47010   47016       2
   47013   47010   47019       2   47013   47025   47031       2   47013   47025
   47034       2   47013   47025   47037       2   47010   47013   47022       2
   47010   47013   47028       2   47007   46995   47010       2   47004   46995
   47007       1   47004   46995   47010       2   46998   46986   47001       1
   46995   46986   46998       2   46995   46986   47001       2   46995   47010
   47016       2   46995   47010   47019       2   46989   46977   46992       1
   46986   46977   46989       2   46986   46977   46992       2   46986   46995
   47004       2   46986   46995   47007       2   46980   46968   46983       1
   46977   46968   46980       2   46977   46968   46983       2   46977   46986
   46998       2   46977   46986   47001       2   46971   46956   46974       1
   46968   46956   46971       2   46968   46956   46974       2   46968   46977
   46989       2   46968   46977   46992       2   46959   46938   46962       1
   46956   46938   46959       2   46956   46938   46962       2   46956   46968
   46980       2   46956   46968   46983       2   46947   46926   46950       4
   46947   46932   46953       4   46941   46923   46944       1   46938   46923
   46941       2   46938   46923   46944       2   46938   46956   46971       2
   46938   46956   46974       2   46932   46920   46935       4   46932   46947
   46965       4   46926   46917   46929       4   46926   46947   46965       4
   46923   46938   46959       2   46923   46938   46962       2   46920   46932
   46953       4   46917   46926   46950       4   46905   46887   46908       4
   46905   46893   46911       4   46905   46923   46941       8   46905   46923
   46944       8   46899   46917   46929      10   46899   46920   46935      10
   46896   46884   46902       4   46887   46869   46890       4   46884   46896
   46914       4   46878   46863   46881      10   46878   46896   46914      10
   46872   46893   46911       4   46869   46887   46908       4   46866   46884
   46902       4   46857   46869   46890       4   46854   46863   46881       4
   47226   47217   47229       1   47223   47217   47226       1   47223   47217
   47229       1   47217   47205   47220       2   47214   47205   47217       2
   47214   47205   47220       1   47208   47202   47211       1   47205   47202
   47208       2   47205   47202   47211       2   47205   47217   47223       2
   47205   47217   47226       2   47205   47217   47229       2   47202   47205
   47214       2   47202   47205   47220       2   47199   47187   47202       2
   47196   47187   47199       1   47196   47187   47202       2   47190   47178
   47193       1   47187   47178   47190       2   47187   47178   47193       2
   47187   47202   47208       2   47187   47202   47211       2   47181   47169
   47184       1   47178   47169   47181       2   47178   47169   47184       2
   47178   47187   47196       2   47178   47187   47199       2   47172   47160
   47175       1   47169   47160   47172       2   47169   47160   47175       2
   47169   47178   47190       2   47169   47178   47193       2   47163   47148
   47166       1   47160   47148   47163       2   47160   47148   47166       2
   47160   47169   47181       2   47160   47169   47184       2   47151   47130
   47154       1   47148   47130   47151       2   47148   47130   47154       2
   47148   47160   47172       2   47148   47160   47175       2   47139   47118
   47142       4   47139   47124   47145       4   47133   47115   47136       1
   47130   47115   47133       2   47130   47115   47136       2   47130   47148
   47163       2   47130   47148   47166       2   47124   47112   47127       4
   47124   47139   47157       4   47118   47109   47121       4   47118   47139
   47157       4   47115   47130   47151       2   47115   47130   47154       2
   47112   47124   47145       4   47109   47118   47142       4   47097   47079
   47100       4   47097   47085   47103       4   47097   47115   47133       8
   47097   47115   47136       8   47091   47109   47121      10   47091   47112
   47127      10   47088   47076   47094       4   47079   47061   47082       4
   47076   47088   47106       4   47070   47055   47073      10   47070   47088
   47106      10   47064   47085   47103       4   47061   47079   47100       4
   47058   47076   47094       4   47049   47061   47082       4   47046   47055
   47073       4   47418   47409   47421       1   47415   47409   47418       1
   47415   47409   47421       1   47409   47397   47412       2   47406   47397
   47409       2   47406   47397   47412       1   47400   47394   47403       1
   47397   47394   47400       2   47397   47394   47403       2   47397   47409
   47415       2   47397   47409   47418       2   47397   47409   47421       2
   47394   47397   47406       2   47394   47397   47412       2   47391   47379
   47394       2   47388   47379   47391       1   47388   47379   47394       2
   47382   47370   47385       1   47379   47370   47382       2   47379   47370
   47385       2   47379   47394   47400       2   47379   47394   47403       2
   47373   47361   47376       1   47370   47361   47373       2   47370   47361
   47376       2   47370   47379   47388       2   47370   47379   47391       2
   47364   47352   47367       1   47361   47352   47364       2   47361   47352
   47367       2   47361   47370   47382       2   47361   47370   47385       2
   47355   47340   47358       1   47352   47340   47355       2   47352   47340
   47358       2   47352   47361   47373       2   47352   47361   47376       2
   47343   47322   47346       1   47340   47322   47343       2   47340   47322
   47346       2   47340   47352   47364       2   47340   47352   47367       2
   47331   47310   47334       4   47331   47316   47337       4   47325   47307
   47328       1   47322   47307   47325       2   47322   47307   47328       2
   47322   47340   47355       2   47322   47340   47358       2   47316   47304
   47319       4   47316   47331   47349       4   47310   47301   47313       4
   47310   47331   47349       4   47307   47322   47343       2   47307   47322
   47346       2   47304   47316   47337       4   47301   47310   47334       4
   47289   47271   47292       4   47289   47277   47295       4   47289   47307
   47325       8   47289   47307   47328       8   47283   47301   47313      10
   47283   47304   47319      10   47280   47268   47286       4   47271   47253
   47274       4   47268   47280   47298       4   47262   47247   47265      10
   47262   47280   47298      10   47256   47277   47295       4   47253   47271
   47292       4   47250   47268   47286       4   47241   47253   47274       4
   47238   47247   47265       4   47610   47601   47613       1   47607   47601
   47610       1   47607   47601   47613       1   47601   47589   47604       2
   47598   47589   47601       2   47598   47589   47604       1   47592   47586
   47595       1   47589   47586   47592       2   47589   47586   47595       2
   47589   47601   47607       2   47589   47601   47610       2   47589   47601
   47613       2   47586   47589   47598       2   47586   47589   47604       2
   47583   47571   47586       2   47580   47571   47583       1   47580   47571
   47586       2   47574   47562   47577       1   47571   47562   47574       2
   47571   47562   47577       2   47571   47586   47592       2   47571   47586
   47595       2   47565   47553   47568       1   47562   47553   47565       2
   47562   47553   47568       2   47562   47571   47580       2   47562   47571
   47583       2   47556   47544   47559       1   47553   47544   47556       2
   47553   47544   47559       2   47553   47562   47574       2   47553   47562
   47577       2   47547   47532   47550       1   47544   47532   47547       2
   47544   47532   47550       2   47544   47553   47565       2   47544   47553
   47568       2   47535   47514   47538       1   47532   47514   47535       2
   47532   47514   47538       2   47532   47544   47556       2   47532   47544
   47559       2   47523   47502   47526       4   47523   47508   47529       4
   47517   47499   47520       1   47514   47499   47517       2   47514   47499
   47520       2   47514   47532   47547       2   47514   47532   47550       2
   47508   47496   47511       4   47508   47523   47541       4   47502   47493
   47505       4   47502   47523   47541       4   47499   47514   47535       2
   47499   47514   47538       2   47496   47508   47529       4   47493   47502
   47526       4   47481   47463   47484       4   47481   47469   47487       4
   47481   47499   47517       8   47481   47499   47520       8   47475   47493
   47505      10   47475   47496   47511      10   47472   47460   47478       4
   47463   47445   47466       4   47460   47472   47490       4   47454   47439
   47457      10   47454   47472   47490      10   47448   47469   47487       4
   47445   47463   47484       4   47442   47460   47478       4   47433   47445
   47466       4   47430   47439   47457       4   47802   47793   47805       1
   47799   47793   47802       1   47799   47793   47805       1   47793   47781
   47796       2   47790   47781   47793       2   47790   47781   47796       1
   47784   47778   47787       1   47781   47778   47784       2   47781   47778
   47787       2   47781   47793   47799       2   47781   47793   47802       2
   47781   47793   47805       2   47778   47781   47790       2   47778   47781
   47796       2   47775   47763   47778       2   47772   47763   47775       1
   47772   47763   47778       2   47766   47754   47769       1   47763   47754
   47766       2   47763   47754   47769       2   47763   47778   47784       2
   47763   47778   47787       2   47757   47745   47760       1   47754   47745
   47757       2   47754   47745   47760       2   47754   47763   47772       2
   47754   47763   47775       2   47748   47736   47751       1   47745   47736
   47748       2   47745   47736   47751       2   47745   47754   47766       2
   47745   47754   47769       2   47739   47724   47742       1   47736   47724
   47739       2   47736   47724   47742       2   47736   47745   47757       2
   47736   47745   47760       2   47727   47706   47730       1   47724   47706
   47727       2   47724   47706   47730       2   47724   47736   47748       2
   47724   47736   47751       2   47715   47694   47718       4   47715   47700
   47721       4   47709   47691   47712       1   47706   47691   47709       2
   47706   47691   47712       2   47706   47724   47739       2   47706   47724
   47742       2   47700   47688   47703       4   47700   47715   47733       4
   47694   47685   47697       4   47694   47715   47733       4   47691   47706
   47727       2   47691   47706   47730       2   47688   47700   47721       4
   47685   47694   47718       4   47673   47655   47676       4   47673   47661
   47679       4   47673   47691   47709       8   47673   47691   47712       8
   47667   47685   47697      10   47667   47688   47703      10   47664   47652
   47670       4   47655   47637   47658       4   47652   47664   47682       4
   47646   47631   47649      10   47646   47664   47682      10   47640   47661
   47679       4   47637   47655   47676       4   47634   47652   47670       4
   47625   47637   47658       4   47622   47631   47649       4   47994   47985
   47997       1   47991   47985   47994       1   47991   47985   47997       1
   47985   47973   47988       2   47982   47973   47985       2   47982   47973
   47988       1   47976   47970   47979       1   47973   47970   47976       2
   47973   47970   47979       2   47973   47985   47991       2   47973   47985
   47994       2   47973   47985   47997       2   47970   47973   47982       2
   47970   47973   47988       2   47967   47955   47970       2   47964   47955
   47967       1   47964   47955   47970       2   47958   47946   47961       1
   47955   47946   47958       2   47955   47946   47961       2   47955   47970
   47976       2   47955   47970   47979       2   47949   47937   47952       1
   47946   47937   47949       2   47946   47937   47952       2   47946   47955
   47964       2   47946   47955   47967       2   47940   47928   47943       1
   47937   47928   47940       2   47937   47928   47943       2   47937   47946
   47958       2   47937   47946   47961       2   47931   47916   47934       1
   47928   47916   47931       2   47928   47916   47934       2   47928   47937
   47949       2   47928   47937   47952       2   47919   47898   47922       1
   47916   47898   47919       2   47916   47898   47922       2   47916   47928
   47940       2   47916   47928   47943       2   47907   47886   47910       4
   47907   47892   47913       4   47901   47883   47904       1   47898   47883
   47901       2   47898   47883   47904       2   47898   47916   47931       2
   47898   47916   47934       2   47892   47880   47895       4   47892   47907
   47925       4   47886   47877   47889       4   47886   47907   47925       4
   47883   47898   47919       2   47883   47898   47922       2   47880   47892
   47913       4   47877   47886   47910       4   47865   47847   47868       4
   47865   47853   47871       4   47865   47883   47901       8   47865   47883
   47904       8   47859   47877   47889      10   47859   47880   47895      10
   47856   47844   47862       4   47847   47829   47850       4   47844   47856
   47874       4   47838   47823   47841      10   47838   47856   47874      10
   47832   47853   47871       4   47829   47847   47868       4   47826   47844
   47862       4   47817   47829   47850       4   47814   47823   47841       4
   48186   48177   48189       1   48183   48177   48186       1   48183   48177
   48189       1   48177   48165   48180       2   48174   48165   48177       2
   48174   48165   48180       1   48168   48162   48171       1   48165   48162
   48168       2   48165   48162   48171       2   48165   48177   48183       2
   48165   48177   48186       2   48165   48177   48189       2   48162   48165
   48174       2   48162   48165   48180       2   48159   48147   48162       2
   48156   48147   48159       1   48156   48147   48162       2   48150   48138
   48153       1   48147   48138   48150       2   48147   48138   48153       2
   48147   48162   48168       2   48147   48162   48171       2   48141   48129
   48144       1   48138   48129   48141       2   48138   48129   48144       2
   48138   48147   48156       2   48138   48147   48159       2   48132   48120
   48135       1   48129   48120   48132       2   48129   48120   48135       2
   48129   48138   48150       2   48129   48138   48153       2   48123   48108
   48126       1   48120   48108   48123       2   48120   48108   48126       2
   48120   48129   48141       2   48120   48129   48144       2   48111   48090
   48114       1   48108   48090   48111       2   48108   48090   48114       2
   48108   48120   48132       2   48108   48120   48135       2   48099   48078
   48102       4   48099   48084   48105       4   48093   48075   48096       1
   48090   48075   48093       2   48090   48075   48096       2   48090   48108
   48123       2   48090   48108   48126       2   48084   48072   48087       4
   48084   48099   48117       4   48078   48069   48081       4   48078   48099
   48117       4   48075   48090   48111       2   48075   48090   48114       2
   48072   48084   48105       4   48069   48078   48102       4   48057   48039
   48060       4   48057   48045   48063       4   48057   48075   48093       8
   48057   48075   48096       8   48051   48069   48081      10   48051   48072
   48087      10   48048   48036   48054       4   48039   48021   48042       4
   48036   48048   48066       4   48030   48015   48033      10   48030   48048
   48066      10   48024   48045   48063       4   48021   48039   48060       4
   48018   48036   48054       4   48009   48021   48042       4   48006   48015
   48033       4   48378   48369   48381       1   48375   48369   48378       1
   48375   48369   48381       1   48369   48357   48372       2   48366   48357
   48369       2   48366   48357   48372       1   48360   48354   48363       1
   48357   48354   48360       2   48357   48354   48363       2   48357   48369
   48375       2   48357   48369   48378       2   48357   48369   48381       2
   48354   48357   48366       2   48354   48357   48372       2   48351   48339
   48354       2   48348   48339   48351       1   48348   48339   48354       2
   48342   48330   48345       1   48339   48330   48342       2   48339   48330
   48345       2   48339   48354   48360       2   48339   48354   48363       2
   48333   48321   48336       1   48330   48321   48333       2   48330   48321
   48336       2   48330   48339   48348       2   48330   48339   48351       2
   48324   48312   48327       1   48321   48312   48324       2   48321   48312
   48327       2   48321   48330   48342       2   48321   48330   48345       2
   48315   48300   48318       1   48312   48300   48315       2   48312   48300
   48318       2   48312   48321   48333       2   48312   48321   48336       2
   48303   48282   48306       1   48300   48282   48303       2   48300   48282
   48306       2   48300   48312   48324       2   48300   48312   48327       2
   48291   48270   48294       4   48291   48276   48297       4   48285   48267
   48288       1   48282   48267   48285       2   48282   48267   48288       2
   48282   48300   48315       2   48282   48300   48318       2   48276   48264
   48279       4   48276   48291   48309       4   48270   48261   48273       4
   48270   48291   48309       4   48267   48282   48303       2   48267   48282
   48306       2   48264   48276   48297       4   48261   48270   48294       4
   48249   48231   48252       4   48249   48237   48255       4   48249   48267
   48285       8   48249   48267   48288       8   48243   48261   48273      10
   48243   48264   48279      10   48240   48228   48246       4   48231   48213
   48234       4   48228   48240   48258       4   48222   48207   48225      10
   48222   48240   48258      10   48216   48237   48255       4   48213   48231
   48252       4   48210   48228   48246       4   48201   48213   48234       4
   48198   48207   48225       4   48570   48561   48573       1   48567   48561
   48570       1   48567   48561   48573       1   48561   48549   48564       2
   48558   48549   48561       2   48558   48549   48564       1   48552   48546
   48555       1   48549   48546   48552       2   48549   48546   48555       2
   48549   48561   48567       2   48549   48561   48570       2   48549   48561
   48573       2   48546   48549   48558       2   48546   48549   48564       2
   48543   48531   48546       2   48540   48531   48543       1   48540   48531
   48546       2   48534   48522   48537       1   48531   48522   48534       2
   48531   48522   48537       2   48531   48546   48552       2   48531   48546
   48555       2   48525   48513   48528       1   48522   48513   48525       2
   48522   48513   48528       2   48522   48531   48540       2   48522   48531
   48543       2   48516   48504   48519       1   48513   48504   48516       2
   48513   48504   48519       2   48513   48522   48534       2   48513   48522
   48537       2   48507   48492   48510       1   48504   48492   48507       2
   48504   48492   48510       2   48504   48513   48525       2   48504   48513
   48528       2   48495   48474   48498       1   48492   48474   48495       2
   48492   48474   48498       2   48492   48504   48516       2   48492   48504
   48519       2   48483   48462   48486       4   48483   48468   48489       4
   48477   48459   48480       1   48474   48459   48477       2   48474   48459
   48480       2   48474   48492   48507       2   48474   48492   48510       2
   48468   48456   48471       4   48468   48483   48501       4   48462   48453
   48465       4   48462   48483   48501       4   48459   48474   48495       2
   48459   48474   48498       2   48456   48468   48489       4   48453   48462
   48486       4   48441   48423   48444       4   48441   48429   48447       4
   48441   48459   48477       8   48441   48459   48480       8   48435   48453
   48465      10   48435   48456   48471      10   48432   48420   48438       4
   48423   48405   48426       4   48420   48432   48450       4   48414   48399
   48417      10   48414   48432   48450      10   48408   48429   48447       4
   48405   48423   48444       4   48402   48420   48438       4   48393   48405
   48426       4   48390   48399   48417       4   48762   48753   48765       1
   48759   48753   48762       1   48759   48753   48765       1   48753   48741
   48756       2   48750   48741   48753       2   48750   48741   48756       1
   48744   48738   48747       1   48741   48738   48744       2   48741   48738
   48747       2   48741   48753   48759       2   48741   48753   48762       2
   48741   48753   48765       2   48738   48741   48750       2   48738   48741
   48756       2   48735   48723   48738       2   48732   48723   48735       1
   48732   48723   48738       2   48726   48714   48729       1   48723   48714
   48726       2   48723   48714   48729       2   48723   48738   48744       2
   48723   48738   48747       2   48717   48705   48720       1   48714   48705
   48717       2   48714   48705   48720       2   48714   48723   48732       2
   48714   48723   48735       2   48708   48696   48711       1   48705   48696
   48708       2   48705   48696   48711       2   48705   48714   48726       2
   48705   48714   48729       2   48699   48684   48702       1   48696   48684
   48699       2   48696   48684   48702       2   48696   48705   48717       2
   48696   48705   48720       2   48687   48666   48690       1   48684   48666
   48687       2   48684   48666   48690       2   48684   48696   48708       2
   48684   48696   48711       2   48675   48654   48678       4   48675   48660
   48681       4   48669   48651   48672       1   48666   48651   48669       2
   48666   48651   48672       2   48666   48684   48699       2   48666   48684
   48702       2   48660   48648   48663       4   48660   48675   48693       4
   48654   48645   48657       4   48654   48675   48693       4   48651   48666
   48687       2   48651   48666   48690       2   48648   48660   48681       4
   48645   48654   48678       4   48633   48615   48636       4   48633   48621
   48639       4   48633   48651   48669       8   48633   48651   48672       8
   48627   48645   48657      10   48627   48648   48663      10   48624   48612
   48630       4   48615   48597   48618       4   48612   48624   48642       4
   48606   48591   48609      10   48606   48624   48642      10   48600   48621
   48639       4   48597   48615   48636       4   48594   48612   48630       4
   48585   48597   48618       4   48582   48591   48609       4   48954   48945
   48957       1   48951   48945   48954       1   48951   48945   48957       1
   48945   48933   48948       2   48942   48933   48945       2   48942   48933
   48948       1   48936   48930   48939       1   48933   48930   48936       2
   48933   48930   48939       2   48933   48945   48951       2   48933   48945
   48954       2   48933   48945   48957       2   48930   48933   48942       2
   48930   48933   48948       2   48927   48915   48930       2   48924   48915
   48927       1   48924   48915   48930       2   48918   48906   48921       1
   48915   48906   48918       2   48915   48906   48921       2   48915   48930
   48936       2   48915   48930   48939       2   48909   48897   48912       1
   48906   48897   48909       2   48906   48897   48912       2   48906   48915
   48924       2   48906   48915   48927       2   48900   48888   48903       1
   48897   48888   48900       2   48897   48888   48903       2   48897   48906
   48918       2   48897   48906   48921       2   48891   48876   48894       1
   48888   48876   48891       2   48888   48876   48894       2   48888   48897
   48909       2   48888   48897   48912       2   48879   48858   48882       1
   48876   48858   48879       2   48876   48858   48882       2   48876   48888
   48900       2   48876   48888   48903       2   48867   48846   48870       4
   48867   48852   48873       4   48861   48843   48864       1   48858   48843
   48861       2   48858   48843   48864       2   48858   48876   48891       2
   48858   48876   48894       2   48852   48840   48855       4   48852   48867
   48885       4   48846   48837   48849       4   48846   48867   48885       4
   48843   48858   48879       2   48843   48858   48882       2   48840   48852
   48873       4   48837   48846   48870       4   48825   48807   48828       4
   48825   48813   48831       4   48825   48843   48861       8   48825   48843
   48864       8   48819   48837   48849      10   48819   48840   48855      10
   48816   48804   48822       4   48807   48789   48810       4   48804   48816
   48834       4   48798   48783   48801      10   48798   48816   48834      10
   48792   48813   48831       4   48789   48807   48828       4   48786   48804
   48822       4   48777   48789   48810       4   48774   48783   48801       4
   49146   49137   49149       1   49143   49137   49146       1   49143   49137
   49149       1   49137   49125   49140       2   49134   49125   49137       2
   49134   49125   49140       1   49128   49122   49131       1   49125   49122
   49128       2   49125   49122   49131       2   49125   49137   49143       2
   49125   49137   49146       2   49125   49137   49149       2   49122   49125
   49134       2   49122   49125   49140       2   49119   49107   49122       2
   49116   49107   49119       1   49116   49107   49122       2   49110   49098
   49113       1   49107   49098   49110       2   49107   49098   49113       2
   49107   49122   49128       2   49107   49122   49131       2   49101   49089
   49104       1   49098   49089   49101       2   49098   49089   49104       2
   49098   49107   49116       2   49098   49107   49119       2   49092   49080
   49095       1   49089   49080   49092       2   49089   49080   49095       2
   49089   49098   49110       2   49089   49098   49113       2   49083   49068
   49086       1   49080   49068   49083       2   49080   49068   49086       2
   49080   49089   49101       2   49080   49089   49104       2   49071   49050
   49074       1   49068   49050   49071       2   49068   49050   49074       2
   49068   49080   49092       2   49068   49080   49095       2   49059   49038
   49062       4   49059   49044   49065       4   49053   49035   49056       1
   49050   49035   49053       2   49050   49035   49056       2   49050   49068
   49083       2   49050   49068   49086       2   49044   49032   49047       4
   49044   49059   49077       4   49038   49029   49041       4   49038   49059
   49077       4   49035   49050   49071       2   49035   49050   49074       2
   49032   49044   49065       4   49029   49038   49062       4   49017   48999
   49020       4   49017   49005   49023       4   49017   49035   49053       8
   49017   49035   49056       8   49011   49029   49041      10   49011   49032
   49047      10   49008   48996   49014       4   48999   48981   49002       4
   48996   49008   49026       4   48990   48975   48993      10   48990   49008
   49026      10   48984   49005   49023       4   48981   48999   49020       4
   48978   48996   49014       4   48969   48981   49002       4   48966   48975
   48993       4   49338   49329   49341       1   49335   49329   49338       1
   49335   49329   49341       1   49329   49317   49332       2   49326   49317
   49329       2   49326   49317   49332       1   49320   49314   49323       1
   49317   49314   49320       2   49317   49314   49323       2   49317   49329
   49335       2   49317   49329   49338       2   49317   49329   49341       2
   49314   49317   49326       2   49314   49317   49332       2   49311   49299
   49314       2   49308   49299   49311       1   49308   49299   49314       2
   49302   49290   49305       1   49299   49290   49302       2   49299   49290
   49305       2   49299   49314   49320       2   49299   49314   49323       2
   49293   49281   49296       1   49290   49281   49293       2   49290   49281
   49296       2   49290   49299   49308       2   49290   49299   49311       2
   49284   49272   49287       1   49281   49272   49284       2   49281   49272
   49287       2   49281   49290   49302       2   49281   49290   49305       2
   49275   49260   49278       1   49272   49260   49275       2   49272   49260
   49278       2   49272   49281   49293       2   49272   49281   49296       2
   49263   49242   49266       1   49260   49242   49263       2   49260   49242
   49266       2   49260   49272   49284       2   49260   49272   49287       2
   49251   49230   49254       4   49251   49236   49257       4   49245   49227
   49248       1   49242   49227   49245       2   49242   49227   49248       2
   49242   49260   49275       2   49242   49260   49278       2   49236   49224
   49239       4   49236   49251   49269       4   49230   49221   49233       4
   49230   49251   49269       4   49227   49242   49263       2   49227   49242
   49266       2   49224   49236   49257       4   49221   49230   49254       4
   49209   49191   49212       4   49209   49197   49215       4   49209   49227
   49245       8   49209   49227   49248       8   49203   49221   49233      10
   49203   49224   49239      10   49200   49188   49206       4   49191   49173
   49194       4   49188   49200   49218       4   49182   49167   49185      10
   49182   49200   49218      10   49176   49197   49215       4   49173   49191
   49212       4   49170   49188   49206       4   49161   49173   49194       4
   49158   49167   49185       4   49530   49521   49533       1   49527   49521
   49530       1   49527   49521   49533       1   49521   49509   49524       2
   49518   49509   49521       2   49518   49509   49524       1   49512   49506
   49515       1   49509   49506   49512       2   49509   49506   49515       2
   49509   49521   49527       2   49509   49521   49530       2   49509   49521
   49533       2   49506   49509   49518       2   49506   49509   49524       2
   49503   49491   49506       2   49500   49491   49503       1   49500   49491
   49506       2   49494   49482   49497       1   49491   49482   49494       2
   49491   49482   49497       2   49491   49506   49512       2   49491   49506
   49515       2   49485   49473   49488       1   49482   49473   49485       2
   49482   49473   49488       2   49482   49491   49500       2   49482   49491
   49503       2   49476   49464   49479       1   49473   49464   49476       2
   49473   49464   49479       2   49473   49482   49494       2   49473   49482
   49497       2   49467   49452   49470       1   49464   49452   49467       2
   49464   49452   49470       2   49464   49473   49485       2   49464   49473
   49488       2   49455   49434   49458       1   49452   49434   49455       2
   49452   49434   49458       2   49452   49464   49476       2   49452   49464
   49479       2   49443   49422   49446       4   49443   49428   49449       4
   49437   49419   49440       1   49434   49419   49437       2   49434   49419
   49440       2   49434   49452   49467       2   49434   49452   49470       2
   49428   49416   49431       4   49428   49443   49461       4   49422   49413
   49425       4   49422   49443   49461       4   49419   49434   49455       2
   49419   49434   49458       2   49416   49428   49449       4   49413   49422
   49446       4   49401   49383   49404       4   49401   49389   49407       4
   49401   49419   49437       8   49401   49419   49440       8   49395   49413
   49425      10   49395   49416   49431      10   49392   49380   49398       4
   49383   49365   49386       4   49380   49392   49410       4   49374   49359
   49377      10   49374   49392   49410      10   49368   49389   49407       4
   49365   49383   49404       4   49362   49380   49398       4   49353   49365
   49386       4   49350   49359   49377       4   49722   49713   49725       1
   49719   49713   49722       1   49719   49713   49725       1   49713   49701
   49716       2   49710   49701   49713       2   49710   49701   49716       1
   49704   49698   49707       1   49701   49698   49704       2   49701   49698
   49707       2   49701   49713   49719       2   49701   49713   49722       2
   49701   49713   49725       2   49698   49701   49710       2   49698   49701
   49716       2   49695   49683   49698       2   49692   49683   49695       1
   49692   49683   49698       2   49686   49674   49689       1   49683   49674
   49686       2   49683   49674   49689       2   49683   49698   49704       2
   49683   49698   49707       2   49677   49665   49680       1   49674   49665
   49677       2   49674   49665   49680       2   49674   49683   49692       2
   49674   49683   49695       2   49668   49656   49671       1   49665   49656
   49668       2   49665   49656   49671       2   49665   49674   49686       2
   49665   49674   49689       2   49659   49644   49662       1   49656   49644
   49659       2   49656   49644   49662       2   49656   49665   49677       2
   49656   49665   49680       2   49647   49626   49650       1   49644   49626
   49647       2   49644   49626   49650       2   49644   49656   49668       2
   49644   49656   49671       2   49635   49614   49638       4   49635   49620
   49641       4   49629   49611   49632       1   49626   49611   49629       2
   49626   49611   49632       2   49626   49644   49659       2   49626   49644
   49662       2   49620   49608   49623       4   49620   49635   49653       4
   49614   49605   49617       4   49614   49635   49653       4   49611   49626
   49647       2   49611   49626   49650       2   49608   49620   49641       4
   49605   49614   49638       4   49593   49575   49596       4   49593   49581
   49599       4   49593   49611   49629       8   49593   49611   49632       8
   49587   49605   49617      10   49587   49608   49623      10   49584   49572
   49590       4   49575   49557   49578       4   49572   49584   49602       4
   49566   49551   49569      10   49566   49584   49602      10   49560   49581
   49599       4   49557   49575   49596       4   49554   49572   49590       4
   49545   49557   49578       4   49542   49551   49569       4   49914   49905
   49917       1   49911   49905   49914       1   49911   49905   49917       1
   49905   49893   49908       2   49902   49893   49905       2   49902   49893
   49908       1   49896   49890   49899       1   49893   49890   49896       2
   49893   49890   49899       2   49893   49905   49911       2   49893   49905
   49914       2   49893   49905   49917       2   49890   49893   49902       2
   49890   49893   49908       2   49887   49875   49890       2   49884   49875
   49887       1   49884   49875   49890       2   49878   49866   49881       1
   49875   49866   49878       2   49875   49866   49881       2   49875   49890
   49896       2   49875   49890   49899       2   49869   49857   49872       1
   49866   49857   49869       2   49866   49857   49872       2   49866   49875
   49884       2   49866   49875   49887       2   49860   49848   49863       1
   49857   49848   49860       2   49857   49848   49863       2   49857   49866
   49878       2   49857   49866   49881       2   49851   49836   49854       1
   49848   49836   49851       2   49848   49836   49854       2   49848   49857
   49869       2   49848   49857   49872       2   49839   49818   49842       1
   49836   49818   49839       2   49836   49818   49842       2   49836   49848
   49860       2   49836   49848   49863       2   49827   49806   49830       4
   49827   49812   49833       4   49821   49803   49824       1   49818   49803
   49821       2   49818   49803   49824       2   49818   49836   49851       2
   49818   49836   49854       2   49812   49800   49815       4   49812   49827
   49845       4   49806   49797   49809       4   49806   49827   49845       4
   49803   49818   49839       2   49803   49818   49842       2   49800   49812
   49833       4   49797   49806   49830       4   49785   49767   49788       4
   49785   49773   49791       4   49785   49803   49821       8   49785   49803
   49824       8   49779   49797   49809      10   49779   49800   49815      10
   49776   49764   49782       4   49767   49749   49770       4   49764   49776
   49794       4   49758   49743   49761      10   49758   49776   49794      10
   49752   49773   49791       4   49749   49767   49788       4   49746   49764
   49782       4   49737   49749   49770       4   49734   49743   49761       4
   50106   50097   50109       1   50103   50097   50106       1   50103   50097
   50109       1   50097   50085   50100       2   50094   50085   50097       2
   50094   50085   50100       1   50088   50082   50091       1   50085   50082
   50088       2   50085   50082   50091       2   50085   50097   50103       2
   50085   50097   50106       2   50085   50097   50109       2   50082   50085
   50094       2   50082   50085   50100       2   50079   50067   50082       2
   50076   50067   50079       1   50076   50067   50082       2   50070   50058
   50073       1   50067   50058   50070       2   50067   50058   50073       2
   50067   50082   50088       2   50067   50082   50091       2   50061   50049
   50064       1   50058   50049   50061       2   50058   50049   50064       2
   50058   50067   50076       2   50058   50067   50079       2   50052   50040
   50055       1   50049   50040   50052       2   50049   50040   50055       2
   50049   50058   50070       2   50049   50058   50073       2   50043   50028
   50046       1   50040   50028   50043       2   50040   50028   50046       2
   50040   50049   50061       2   50040   50049   50064       2   50031   50010
   50034       1   50028   50010   50031       2   50028   50010   50034       2
   50028   50040   50052       2   50028   50040   50055       2   50019   49998
   50022       4   50019   50004   50025       4   50013   49995   50016       1
   50010   49995   50013       2   50010   49995   50016       2   50010   50028
   50043       2   50010   50028   50046       2   50004   49992   50007       4
   50004   50019   50037       4   49998   49989   50001       4   49998   50019
   50037       4   49995   50010   50031       2   49995   50010   50034       2
   49992   50004   50025       4   49989   49998   50022       4   49977   49959
   49980       4   49977   49965   49983       4   49977   49995   50013       8
   49977   49995   50016       8   49971   49989   50001      10   49971   49992
   50007      10   49968   49956   49974       4   49959   49941   49962       4
   49956   49968   49986       4   49950   49935   49953      10   49950   49968
   49986      10   49944   49965   49983       4   49941   49959   49980       4
   49938   49956   49974       4   49929   49941   49962       4   49926   49935
   49953       4   50298   50289   50301       1   50295   50289   50298       1
   50295   50289   50301       1   50289   50277   50292       2   50286   50277
   50289       2   50286   50277   50292       1   50280   50274   50283       1
   50277   50274   50280       2   50277   50274   50283       2   50277   50289
   50295       2   50277   50289   50298       2   50277   50289   50301       2
   50274   50277   50286       2   50274   50277   50292       2   50271   50259
   50274       2   50268   50259   50271       1   50268   50259   50274       2
   50262   50250   50265       1   50259   50250   50262       2   50259   50250
   50265       2   50259   50274   50280       2   50259   50274   50283       2
   50253   50241   50256       1   50250   50241   50253       2   50250   50241
   50256       2   50250   50259   50268       2   50250   50259   50271       2
   50244   50232   50247       1   50241   50232   50244       2   50241   50232
   50247       2   50241   50250   50262       2   50241   50250   50265       2
   50235   50220   50238       1   50232   50220   50235       2   50232   50220
   50238       2   50232   50241   50253       2   50232   50241   50256       2
   50223   50202   50226       1   50220   50202   50223       2   50220   50202
   50226       2   50220   50232   50244       2   50220   50232   50247       2
   50211   50190   50214       4   50211   50196   50217       4   50205   50187
   50208       1   50202   50187   50205       2   50202   50187   50208       2
   50202   50220   50235       2   50202   50220   50238       2   50196   50184
   50199       4   50196   50211   50229       4   50190   50181   50193       4
   50190   50211   50229       4   50187   50202   50223       2   50187   50202
   50226       2   50184   50196   50217       4   50181   50190   50214       4
   50169   50151   50172       4   50169   50157   50175       4   50169   50187
   50205       8   50169   50187   50208       8   50163   50181   50193      10
   50163   50184   50199      10   50160   50148   50166       4   50151   50133
   50154       4   50148   50160   50178       4   50142   50127   50145      10
   50142   50160   50178      10   50136   50157   50175       4   50133   50151
   50172       4   50130   50148   50166       4   50121   50133   50154       4
   50118   50127   50145       4   50490   50481   50493       1   50487   50481
   50490       1   50487   50481   50493       1   50481   50469   50484       2
   50478   50469   50481       2   50478   50469   50484       1   50472   50466
   50475       1   50469   50466   50472       2   50469   50466   50475       2
   50469   50481   50487       2   50469   50481   50490       2   50469   50481
   50493       2   50466   50469   50478       2   50466   50469   50484       2
   50463   50451   50466       2   50460   50451   50463       1   50460   50451
   50466       2   50454   50442   50457       1   50451   50442   50454       2
   50451   50442   50457       2   50451   50466   50472       2   50451   50466
   50475       2   50445   50433   50448       1   50442   50433   50445       2
   50442   50433   50448       2   50442   50451   50460       2   50442   50451
   50463       2   50436   50424   50439       1   50433   50424   50436       2
   50433   50424   50439       2   50433   50442   50454       2   50433   50442
   50457       2   50427   50412   50430       1   50424   50412   50427       2
   50424   50412   50430       2   50424   50433   50445       2   50424   50433
   50448       2   50415   50394   50418       1   50412   50394   50415       2
   50412   50394   50418       2   50412   50424   50436       2   50412   50424
   50439       2   50403   50382   50406       4   50403   50388   50409       4
   50397   50379   50400       1   50394   50379   50397       2   50394   50379
   50400       2   50394   50412   50427       2   50394   50412   50430       2
   50388   50376   50391       4   50388   50403   50421       4   50382   50373
   50385       4   50382   50403   50421       4   50379   50394   50415       2
   50379   50394   50418       2   50376   50388   50409       4   50373   50382
   50406       4   50361   50343   50364       4   50361   50349   50367       4
   50361   50379   50397       8   50361   50379   50400       8   50355   50373
   50385      10   50355   50376   50391      10   50352   50340   50358       4
   50343   50325   50346       4   50340   50352   50370       4   50334   50319
   50337      10   50334   50352   50370      10   50328   50349   50367       4
   50325   50343   50364       4   50322   50340   50358       4   50313   50325
   50346       4   50310   50319   50337       4   50682   50673   50685       1
   50679   50673   50682       1   50679   50673   50685       1   50673   50661
   50676       2   50670   50661   50673       2   50670   50661   50676       1
   50664   50658   50667       1   50661   50658   50664       2   50661   50658
   50667       2   50661   50673   50679       2   50661   50673   50682       2
   50661   50673   50685       2   50658   50661   50670       2   50658   50661
   50676       2   50655   50643   50658       2   50652   50643   50655       1
   50652   50643   50658       2   50646   50634   50649       1   50643   50634
   50646       2   50643   50634   50649       2   50643   50658   50664       2
   50643   50658   50667       2   50637   50625   50640       1   50634   50625
   50637       2   50634   50625   50640       2   50634   50643   50652       2
   50634   50643   50655       2   50628   50616   50631       1   50625   50616
   50628       2   50625   50616   50631       2   50625   50634   50646       2
   50625   50634   50649       2   50619   50604   50622       1   50616   50604
   50619       2   50616   50604   50622       2   50616   50625   50637       2
   50616   50625   50640       2   50607   50586   50610       1   50604   50586
   50607       2   50604   50586   50610       2   50604   50616   50628       2
   50604   50616   50631       2   50595   50574   50598       4   50595   50580
   50601       4   50589   50571   50592       1   50586   50571   50589       2
   50586   50571   50592       2   50586   50604   50619       2   50586   50604
   50622       2   50580   50568   50583       4   50580   50595   50613       4
   50574   50565   50577       4   50574   50595   50613       4   50571   50586
   50607       2   50571   50586   50610       2   50568   50580   50601       4
   50565   50574   50598       4   50553   50535   50556       4   50553   50541
   50559       4   50553   50571   50589       8   50553   50571   50592       8
   50547   50565   50577      10   50547   50568   50583      10   50544   50532
   50550       4   50535   50517   50538       4   50532   50544   50562       4
   50526   50511   50529      10   50526   50544   50562      10   50520   50541
   50559       4   50517   50535   50556       4   50514   50532   50550       4
   50505   50517   50538       4   50502   50511   50529       4   50874   50865
   50877       1   50871   50865   50874       1   50871   50865   50877       1
   50865   50853   50868       2   50862   50853   50865       2   50862   50853
   50868       1   50856   50850   50859       1   50853   50850   50856       2
   50853   50850   50859       2   50853   50865   50871       2   50853   50865
   50874       2   50853   50865   50877       2   50850   50853   50862       2
   50850   50853   50868       2   50847   50835   50850       2   50844   50835
   50847       1   50844   50835   50850       2   50838   50826   50841       1
   50835   50826   50838       2   50835   50826   50841       2   50835   50850
   50856       2   50835   50850   50859       2   50829   50817   50832       1
   50826   50817   50829       2   50826   50817   50832       2   50826   50835
   50844       2   50826   50835   50847       2   50820   50808   50823       1
   50817   50808   50820       2   50817   50808   50823       2   50817   50826
   50838       2   50817   50826   50841       2   50811   50796   50814       1
   50808   50796   50811       2   50808   50796   50814       2   50808   50817
   50829       2   50808   50817   50832       2   50799   50778   50802       1
   50796   50778   50799       2   50796   50778   50802       2   50796   50808
   50820       2   50796   50808   50823       2   50787   50766   50790       4
   50787   50772   50793       4   50781   50763   50784       1   50778   50763
   50781       2   50778   50763   50784       2   50778   50796   50811       2
   50778   50796   50814       2   50772   50760   50775       4   50772   50787
   50805       4   50766   50757   50769       4   50766   50787   50805       4
   50763   50778   50799       2   50763   50778   50802       2   50760   50772
   50793       4   50757   50766   50790       4   50745   50727   50748       4
   50745   50733   50751       4   50745   50763   50781       8   50745   50763
   50784       8   50739   50757   50769      10   50739   50760   50775      10
   50736   50724   50742       4   50727   50709   50730       4   50724   50736
   50754       4   50718   50703   50721      10   50718   50736   50754      10
   50712   50733   50751       4   50709   50727   50748       4   50706   50724
   50742       4   50697   50709   50730       4   50694   50703   50721       4
   51066   51057   51069       1   51063   51057   51066       1   51063   51057
   51069       1   51057   51045   51060       2   51054   51045   51057       2
   51054   51045   51060       1   51048   51042   51051       1   51045   51042
   51048       2   51045   51042   51051       2   51045   51057   51063       2
   51045   51057   51066       2   51045   51057   51069       2   51042   51045
   51054       2   51042   51045   51060       2   51039   51027   51042       2
   51036   51027   51039       1   51036   51027   51042       2   51030   51018
   51033       1   51027   51018   51030       2   51027   51018   51033       2
   51027   51042   51048       2   51027   51042   51051       2   51021   51009
   51024       1   51018   51009   51021       2   51018   51009   51024       2
   51018   51027   51036       2   51018   51027   51039       2   51012   51000
   51015       1   51009   51000   51012       2   51009   51000   51015       2
   51009   51018   51030       2   51009   51018   51033       2   51003   50988
   51006       1   51000   50988   51003       2   51000   50988   51006       2
   51000   51009   51021       2   51000   51009   51024       2   50991   50970
   50994       1   50988   50970   50991       2   50988   50970   50994       2
   50988   51000   51012       2   50988   51000   51015       2   50979   50958
   50982       4   50979   50964   50985       4   50973   50955   50976       1
   50970   50955   50973       2   50970   50955   50976       2   50970   50988
   51003       2   50970   50988   51006       2   50964   50952   50967       4
   50964   50979   50997       4   50958   50949   50961       4   50958   50979
   50997       4   50955   50970   50991       2   50955   50970   50994       2
   50952   50964   50985       4   50949   50958   50982       4   50937   50919
   50940       4   50937   50925   50943       4   50937   50955   50973       8
   50937   50955   50976       8   50931   50949   50961      10   50931   50952
   50967      10   50928   50916   50934       4   50919   50901   50922       4
   50916   50928   50946       4   50910   50895   50913      10   50910   50928
   50946      10   50904   50925   50943       4   50901   50919   50940       4
   50898   50916   50934       4   50889   50901   50922       4   50886   50895
   50913       4   51258   51249   51261       1   51255   51249   51258       1
   51255   51249   51261       1   51249   51237   51252       2   51246   51237
   51249       2   51246   51237   51252       1   51240   51234   51243       1
   51237   51234   51240       2   51237   51234   51243       2   51237   51249
   51255       2   51237   51249   51258       2   51237   51249   51261       2
   51234   51237   51246       2   51234   51237   51252       2   51231   51219
   51234       2   51228   51219   51231       1   51228   51219   51234       2
   51222   51210   51225       1   51219   51210   51222       2   51219   51210
   51225       2   51219   51234   51240       2   51219   51234   51243       2
   51213   51201   51216       1   51210   51201   51213       2   51210   51201
   51216       2   51210   51219   51228       2   51210   51219   51231       2
   51204   51192   51207       1   51201   51192   51204       2   51201   51192
   51207       2   51201   51210   51222       2   51201   51210   51225       2
   51195   51180   51198       1   51192   51180   51195       2   51192   51180
   51198       2   51192   51201   51213       2   51192   51201   51216       2
   51183   51162   51186       1   51180   51162   51183       2   51180   51162
   51186       2   51180   51192   51204       2   51180   51192   51207       2
   51171   51150   51174       4   51171   51156   51177       4   51165   51147
   51168       1   51162   51147   51165       2   51162   51147   51168       2
   51162   51180   51195       2   51162   51180   51198       2   51156   51144
   51159       4   51156   51171   51189       4   51150   51141   51153       4
   51150   51171   51189       4   51147   51162   51183       2   51147   51162
   51186       2   51144   51156   51177       4   51141   51150   51174       4
   51129   51111   51132       4   51129   51117   51135       4   51129   51147
   51165       8   51129   51147   51168       8   51123   51141   51153      10
   51123   51144   51159      10   51120   51108   51126       4   51111   51093
   51114       4   51108   51120   51138       4   51102   51087   51105      10
   51102   51120   51138      10   51096   51117   51135       4   51093   51111
   51132       4   51090   51108   51126       4   51081   51093   51114       4
   51078   51087   51105       4   51450   51441   51453       1   51447   51441
   51450       1   51447   51441   51453       1   51441   51429   51444       2
   51438   51429   51441       2   51438   51429   51444       1   51432   51426
   51435       1   51429   51426   51432       2   51429   51426   51435       2
   51429   51441   51447       2   51429   51441   51450       2   51429   51441
   51453       2   51426   51429   51438       2   51426   51429   51444       2
   51423   51411   51426       2   51420   51411   51423       1   51420   51411
   51426       2   51414   51402   51417       1   51411   51402   51414       2
   51411   51402   51417       2   51411   51426   51432       2   51411   51426
   51435       2   51405   51393   51408       1   51402   51393   51405       2
   51402   51393   51408       2   51402   51411   51420       2   51402   51411
   51423       2   51396   51384   51399       1   51393   51384   51396       2
   51393   51384   51399       2   51393   51402   51414       2   51393   51402
   51417       2   51387   51372   51390       1   51384   51372   51387       2
   51384   51372   51390       2   51384   51393   51405       2   51384   51393
   51408       2   51375   51354   51378       1   51372   51354   51375       2
   51372   51354   51378       2   51372   51384   51396       2   51372   51384
   51399       2   51363   51342   51366       4   51363   51348   51369       4
   51357   51339   51360       1   51354   51339   51357       2   51354   51339
   51360       2   51354   51372   51387       2   51354   51372   51390       2
   51348   51336   51351       4   51348   51363   51381       4   51342   51333
   51345       4   51342   51363   51381       4   51339   51354   51375       2
   51339   51354   51378       2   51336   51348   51369       4   51333   51342
   51366       4   51321   51303   51324       4   51321   51309   51327       4
   51321   51339   51357       8   51321   51339   51360       8   51315   51333
   51345      10   51315   51336   51351      10   51312   51300   51318       4
   51303   51285   51306       4   51300   51312   51330       4   51294   51279
   51297      10   51294   51312   51330      10   51288   51309   51327       4
   51285   51303   51324       4   51282   51300   51318       4   51273   51285
   51306       4   51270   51279   51297       4   51642   51633   51645       1
   51639   51633   51642       1   51639   51633   51645       1   51633   51621
   51636       2   51630   51621   51633       2   51630   51621   51636       1
   51624   51618   51627       1   51621   51618   51624       2   51621   51618
   51627       2   51621   51633   51639       2   51621   51633   51642       2
   51621   51633   51645       2   51618   51621   51630       2   51618   51621
   51636       2   51615   51603   51618       2   51612   51603   51615       1
   51612   51603   51618       2   51606   51594   51609       1   51603   51594
   51606       2   51603   51594   51609       2   51603   51618   51624       2
   51603   51618   51627       2   51597   51585   51600       1   51594   51585
   51597       2   51594   51585   51600       2   51594   51603   51612       2
   51594   51603   51615       2   51588   51576   51591       1   51585   51576
   51588       2   51585   51576   51591       2   51585   51594   51606       2
   51585   51594   51609       2   51579   51564   51582       1   51576   51564
   51579       2   51576   51564   51582       2   51576   51585   51597       2
   51576   51585   51600       2   51567   51546   51570       1   51564   51546
   51567       2   51564   51546   51570       2   51564   51576   51588       2
   51564   51576   51591       2   51555   51534   51558       4   51555   51540
   51561       4   51549   51531   51552       1   51546   51531   51549       2
   51546   51531   51552       2   51546   51564   51579       2   51546   51564
   51582       2   51540   51528   51543       4   51540   51555   51573       4
   51534   51525   51537       4   51534   51555   51573       4   51531   51546
   51567       2   51531   51546   51570       2   51528   51540   51561       4
   51525   51534   51558       4   51513   51495   51516       4   51513   51501
   51519       4   51513   51531   51549       8   51513   51531   51552       8
   51507   51525   51537      10   51507   51528   51543      10   51504   51492
   51510       4   51495   51477   51498       4   51492   51504   51522       4
   51486   51471   51489      10   51486   51504   51522      10   51480   51501
   51519       4   51477   51495   51516       4   51474   51492   51510       4
   51465   51477   51498       4   51462   51471   51489       4   51834   51825
   51837       1   51831   51825   51834       1   51831   51825   51837       1
   51825   51813   51828       2   51822   51813   51825       2   51822   51813
   51828       1   51816   51810   51819       1   51813   51810   51816       2
   51813   51810   51819       2   51813   51825   51831       2   51813   51825
   51834       2   51813   51825   51837       2   51810   51813   51822       2
   51810   51813   51828       2   51807   51795   51810       2   51804   51795
   51807       1   51804   51795   51810       2   51798   51786   51801       1
   51795   51786   51798       2   51795   51786   51801       2   51795   51810
   51816       2   51795   51810   51819       2   51789   51777   51792       1
   51786   51777   51789       2   51786   51777   51792       2   51786   51795
   51804       2   51786   51795   51807       2   51780   51768   51783       1
   51777   51768   51780       2   51777   51768   51783       2   51777   51786
   51798       2   51777   51786   51801       2   51771   51756   51774       1
   51768   51756   51771       2   51768   51756   51774       2   51768   51777
   51789       2   51768   51777   51792       2   51759   51738   51762       1
   51756   51738   51759       2   51756   51738   51762       2   51756   51768
   51780       2   51756   51768   51783       2   51747   51726   51750       4
   51747   51732   51753       4   51741   51723   51744       1   51738   51723
   51741       2   51738   51723   51744       2   51738   51756   51771       2
   51738   51756   51774       2   51732   51720   51735       4   51732   51747
   51765       4   51726   51717   51729       4   51726   51747   51765       4
   51723   51738   51759       2   51723   51738   51762       2   51720   51732
   51753       4   51717   51726   51750       4   51705   51687   51708       4
   51705   51693   51711       4   51705   51723   51741       8   51705   51723
   51744       8   51699   51717   51729      10   51699   51720   51735      10
   51696   51684   51702       4   51687   51669   51690       4   51684   51696
   51714       4   51678   51663   51681      10   51678   51696   51714      10
   51672   51693   51711       4   51669   51687   51708       4   51666   51684
   51702       4   51657   51669   51690       4   51654   51663   51681       4
   52026   52017   52029       1   52023   52017   52026       1   52023   52017
   52029       1   52017   52005   52020       2   52014   52005   52017       2
   52014   52005   52020       1   52008   52002   52011       1   52005   52002
   52008       2   52005   52002   52011       2   52005   52017   52023       2
   52005   52017   52026       2   52005   52017   52029       2   52002   52005
   52014       2   52002   52005   52020       2   51999   51987   52002       2
   51996   51987   51999       1   51996   51987   52002       2   51990   51978
   51993       1   51987   51978   51990       2   51987   51978   51993       2
   51987   52002   52008       2   51987   52002   52011       2   51981   51969
   51984       1   51978   51969   51981       2   51978   51969   51984       2
   51978   51987   51996       2   51978   51987   51999       2   51972   51960
   51975       1   51969   51960   51972       2   51969   51960   51975       2
   51969   51978   51990       2   51969   51978   51993       2   51963   51948
   51966       1   51960   51948   51963       2   51960   51948   51966       2
   51960   51969   51981       2   51960   51969   51984       2   51951   51930
   51954       1   51948   51930   51951       2   51948   51930   51954       2
   51948   51960   51972       2   51948   51960   51975       2   51939   51918
   51942       4   51939   51924   51945       4   51933   51915   51936       1
   51930   51915   51933       2   51930   51915   51936       2   51930   51948
   51963       2   51930   51948   51966       2   51924   51912   51927       4
   51924   51939   51957       4   51918   51909   51921       4   51918   51939
   51957       4   51915   51930   51951       2   51915   51930   51954       2
   51912   51924   51945       4   51909   51918   51942       4   51897   51879
   51900       4   51897   51885   51903       4   51897   51915   51933       8
   51897   51915   51936       8   51891   51909   51921      10   51891   51912
   51927      10   51888   51876   51894       4   51879   51861   51882       4
   51876   51888   51906       4   51870   51855   51873      10   51870   51888
   51906      10   51864   51885   51903       4   51861   51879   51900       4
   51858   51876   51894       4   51849   51861   51882       4   51846   51855
   51873       4   52218   52209   52221       1   52215   52209   52218       1
   52215   52209   52221       1   52209   52197   52212       2   52206   52197
   52209       2   52206   52197   52212       1   52200   52194   52203       1
   52197   52194   52200       2   52197   52194   52203       2   52197   52209
   52215       2   52197   52209   52218       2   52197   52209   52221       2
   52194   52197   52206       2   52194   52197   52212       2   52191   52179
   52194       2   52188   52179   52191       1   52188   52179   52194       2
   52182   52170   52185       1   52179   52170   52182       2   52179   52170
   52185       2   52179   52194   52200       2   52179   52194   52203       2
   52173   52161   52176       1   52170   52161   52173       2   52170   52161
   52176       2   52170   52179   52188       2   52170   52179   52191       2
   52164   52152   52167       1   52161   52152   52164       2   52161   52152
   52167       2   52161   52170   52182       2   52161   52170   52185       2
   52155   52140   52158       1   52152   52140   52155       2   52152   52140
   52158       2   52152   52161   52173       2   52152   52161   52176       2
   52143   52122   52146       1   52140   52122   52143       2   52140   52122
   52146       2   52140   52152   52164       2   52140   52152   52167       2
   52131   52110   52134       4   52131   52116   52137       4   52125   52107
   52128       1   52122   52107   52125       2   52122   52107   52128       2
   52122   52140   52155       2   52122   52140   52158       2   52116   52104
   52119       4   52116   52131   52149       4   52110   52101   52113       4
   52110   52131   52149       4   52107   52122   52143       2   52107   52122
   52146       2   52104   52116   52137       4   52101   52110   52134       4
   52089   52071   52092       4   52089   52077   52095       4   52089   52107
   52125       8   52089   52107   52128       8   52083   52101   52113      10
   52083   52104   52119      10   52080   52068   52086       4   52071   52053
   52074       4   52068   52080   52098       4   52062   52047   52065      10
   52062   52080   52098      10   52056   52077   52095       4   52053   52071
   52092       4   52050   52068   52086       4   52041   52053   52074       4
   52038   52047   52065       4   52410   52401   52413       1   52407   52401
   52410       1   52407   52401   52413       1   52401   52389   52404       2
   52398   52389   52401       2   52398   52389   52404       1   52392   52386
   52395       1   52389   52386   52392       2   52389   52386   52395       2
   52389   52401   52407       2   52389   52401   52410       2   52389   52401
   52413       2   52386   52389   52398       2   52386   52389   52404       2
   52383   52371   52386       2   52380   52371   52383       1   52380   52371
   52386       2   52374   52362   52377       1   52371   52362   52374       2
   52371   52362   52377       2   52371   52386   52392       2   52371   52386
   52395       2   52365   52353   52368       1   52362   52353   52365       2
   52362   52353   52368       2   52362   52371   52380       2   52362   52371
   52383       2   52356   52344   52359       1   52353   52344   52356       2
   52353   52344   52359       2   52353   52362   52374       2   52353   52362
   52377       2   52347   52332   52350       1   52344   52332   52347       2
   52344   52332   52350       2   52344   52353   52365       2   52344   52353
   52368       2   52335   52314   52338       1   52332   52314   52335       2
   52332   52314   52338       2   52332   52344   52356       2   52332   52344
   52359       2   52323   52302   52326       4   52323   52308   52329       4
   52317   52299   52320       1   52314   52299   52317       2   52314   52299
   52320       2   52314   52332   52347       2   52314   52332   52350       2
   52308   52296   52311       4   52308   52323   52341       4   52302   52293
   52305       4   52302   52323   52341       4   52299   52314   52335       2
   52299   52314   52338       2   52296   52308   52329       4   52293   52302
   52326       4   52281   52263   52284       4   52281   52269   52287       4
   52281   52299   52317       8   52281   52299   52320       8   52275   52293
   52305      10   52275   52296   52311      10   52272   52260   52278       4
   52263   52245   52266       4   52260   52272   52290       4   52254   52239
   52257      10   52254   52272   52290      10   52248   52269   52287       4
   52245   52263   52284       4   52242   52260   52278       4   52233   52245
   52266       4   52230   52239   52257       4   52602   52593   52605       1
   52599   52593   52602       1   52599   52593   52605       1   52593   52581
   52596       2   52590   52581   52593       2   52590   52581   52596       1
   52584   52578   52587       1   52581   52578   52584       2   52581   52578
   52587       2   52581   52593   52599       2   52581   52593   52602       2
   52581   52593   52605       2   52578   52581   52590       2   52578   52581
   52596       2   52575   52563   52578       2   52572   52563   52575       1
   52572   52563   52578       2   52566   52554   52569       1   52563   52554
   52566       2   52563   52554   52569       2   52563   52578   52584       2
   52563   52578   52587       2   52557   52545   52560       1   52554   52545
   52557       2   52554   52545   52560       2   52554   52563   52572       2
   52554   52563   52575       2   52548   52536   52551       1   52545   52536
   52548       2   52545   52536   52551       2   52545   52554   52566       2
   52545   52554   52569       2   52539   52524   52542       1   52536   52524
   52539       2   52536   52524   52542       2   52536   52545   52557       2
   52536   52545   52560       2   52527   52506   52530       1   52524   52506
   52527       2   52524   52506   52530       2   52524   52536   52548       2
   52524   52536   52551       2   52515   52494   52518       4   52515   52500
   52521       4   52509   52491   52512       1   52506   52491   52509       2
   52506   52491   52512       2   52506   52524   52539       2   52506   52524
   52542       2   52500   52488   52503       4   52500   52515   52533       4
   52494   52485   52497       4   52494   52515   52533       4   52491   52506
   52527       2   52491   52506   52530       2   52488   52500   52521       4
   52485   52494   52518       4   52473   52455   52476       4   52473   52461
   52479       4   52473   52491   52509       8   52473   52491   52512       8
   52467   52485   52497      10   52467   52488   52503      10   52464   52452
   52470       4   52455   52437   52458       4   52452   52464   52482       4
   52446   52431   52449      10   52446   52464   52482      10   52440   52461
   52479       4   52437   52455   52476       4   52434   52452   52470       4
   52425   52437   52458       4   52422   52431   52449       4   52794   52785
   52797       1   52791   52785   52794       1   52791   52785   52797       1
   52785   52773   52788       2   52782   52773   52785       2   52782   52773
   52788       1   52776   52770   52779       1   52773   52770   52776       2
   52773   52770   52779       2   52773   52785   52791       2   52773   52785
   52794       2   52773   52785   52797       2   52770   52773   52782       2
   52770   52773   52788       2   52767   52755   52770       2   52764   52755
   52767       1   52764   52755   52770       2   52758   52746   52761       1
   52755   52746   52758       2   52755   52746   52761       2   52755   52770
   52776       2   52755   52770   52779       2   52749   52737   52752       1
   52746   52737   52749       2   52746   52737   52752       2   52746   52755
   52764       2   52746   52755   52767       2   52740   52728   52743       1
   52737   52728   52740       2   52737   52728   52743       2   52737   52746
   52758       2   52737   52746   52761       2   52731   52716   52734       1
   52728   52716   52731       2   52728   52716   52734       2   52728   52737
   52749       2   52728   52737   52752       2   52719   52698   52722       1
   52716   52698   52719       2   52716   52698   52722       2   52716   52728
   52740       2   52716   52728   52743       2   52707   52686   52710       4
   52707   52692   52713       4   52701   52683   52704       1   52698   52683
   52701       2   52698   52683   52704       2   52698   52716   52731       2
   52698   52716   52734       2   52692   52680   52695       4   52692   52707
   52725       4   52686   52677   52689       4   52686   52707   52725       4
   52683   52698   52719       2   52683   52698   52722       2   52680   52692
   52713       4   52677   52686   52710       4   52665   52647   52668       4
   52665   52653   52671       4   52665   52683   52701       8   52665   52683
   52704       8   52659   52677   52689      10   52659   52680   52695      10
   52656   52644   52662       4   52647   52629   52650       4   52644   52656
   52674       4   52638   52623   52641      10   52638   52656   52674      10
   52632   52653   52671       4   52629   52647   52668       4   52626   52644
   52662       4   52617   52629   52650       4   52614   52623   52641       4
   52986   52977   52989       1   52983   52977   52986       1   52983   52977
   52989       1   52977   52965   52980       2   52974   52965   52977       2
   52974   52965   52980       1   52968   52962   52971       1   52965   52962
   52968       2   52965   52962   52971       2   52965   52977   52983       2
   52965   52977   52986       2   52965   52977   52989       2   52962   52965
   52974       2   52962   52965   52980       2   52959   52947   52962       2
   52956   52947   52959       1   52956   52947   52962       2   52950   52938
   52953       1   52947   52938   52950       2   52947   52938   52953       2
   52947   52962   52968       2   52947   52962   52971       2   52941   52929
   52944       1   52938   52929   52941       2   52938   52929   52944       2
   52938   52947   52956       2   52938   52947   52959       2   52932   52920
   52935       1   52929   52920   52932       2   52929   52920   52935       2
   52929   52938   52950       2   52929   52938   52953       2   52923   52908
   52926       1   52920   52908   52923       2   52920   52908   52926       2
   52920   52929   52941       2   52920   52929   52944       2   52911   52890
   52914       1   52908   52890   52911       2   52908   52890   52914       2
   52908   52920   52932       2   52908   52920   52935       2   52899   52878
   52902       4   52899   52884   52905       4   52893   52875   52896       1
   52890   52875   52893       2   52890   52875   52896       2   52890   52908
   52923       2   52890   52908   52926       2   52884   52872   52887       4
   52884   52899   52917       4   52878   52869   52881       4   52878   52899
   52917       4   52875   52890   52911       2   52875   52890   52914       2
   52872   52884   52905       4   52869   52878   52902       4   52857   52839
   52860       4   52857   52845   52863       4   52857   52875   52893       8
   52857   52875   52896       8   52851   52869   52881      10   52851   52872
   52887      10   52848   52836   52854       4   52839   52821   52842       4
   52836   52848   52866       4   52830   52815   52833      10   52830   52848
   52866      10   52824   52845   52863       4   52821   52839   52860       4
   52818   52836   52854       4   52809   52821   52842       4   52806   52815
   52833       4   53178   53169   53181       1   53175   53169   53178       1
   53175   53169   53181       1   53169   53157   53172       2   53166   53157
   53169       2   53166   53157   53172       1   53160   53154   53163       1
   53157   53154   53160       2   53157   53154   53163       2   53157   53169
   53175       2   53157   53169   53178       2   53157   53169   53181       2
   53154   53157   53166       2   53154   53157   53172       2   53151   53139
   53154       2   53148   53139   53151       1   53148   53139   53154       2
   53142   53130   53145       1   53139   53130   53142       2   53139   53130
   53145       2   53139   53154   53160       2   53139   53154   53163       2
   53133   53121   53136       1   53130   53121   53133       2   53130   53121
   53136       2   53130   53139   53148       2   53130   53139   53151       2
   53124   53112   53127       1   53121   53112   53124       2   53121   53112
   53127       2   53121   53130   53142       2   53121   53130   53145       2
   53115   53100   53118       1   53112   53100   53115       2   53112   53100
   53118       2   53112   53121   53133       2   53112   53121   53136       2
   53103   53082   53106       1   53100   53082   53103       2   53100   53082
   53106       2   53100   53112   53124       2   53100   53112   53127       2
   53091   53070   53094       4   53091   53076   53097       4   53085   53067
   53088       1   53082   53067   53085       2   53082   53067   53088       2
   53082   53100   53115       2   53082   53100   53118       2   53076   53064
   53079       4   53076   53091   53109       4   53070   53061   53073       4
   53070   53091   53109       4   53067   53082   53103       2   53067   53082
   53106       2   53064   53076   53097       4   53061   53070   53094       4
   53049   53031   53052       4   53049   53037   53055       4   53049   53067
   53085       8   53049   53067   53088       8   53043   53061   53073      10
   53043   53064   53079      10   53040   53028   53046       4   53031   53013
   53034       4   53028   53040   53058       4   53022   53007   53025      10
   53022   53040   53058      10   53016   53037   53055       4   53013   53031
   53052       4   53010   53028   53046       4   53001   53013   53034       4
   52998   53007   53025       4   53370   53361   53373       1   53367   53361
   53370       1   53367   53361   53373       1   53361   53349   53364       2
   53358   53349   53361       2   53358   53349   53364       1   53352   53346
   53355       1   53349   53346   53352       2   53349   53346   53355       2
   53349   53361   53367       2   53349   53361   53370       2   53349   53361
   53373       2   53346   53349   53358       2   53346   53349   53364       2
   53343   53331   53346       2   53340   53331   53343       1   53340   53331
   53346       2   53334   53322   53337       1   53331   53322   53334       2
   53331   53322   53337       2   53331   53346   53352       2   53331   53346
   53355       2   53325   53313   53328       1   53322   53313   53325       2
   53322   53313   53328       2   53322   53331   53340       2   53322   53331
   53343       2   53316   53304   53319       1   53313   53304   53316       2
   53313   53304   53319       2   53313   53322   53334       2   53313   53322
   53337       2   53307   53292   53310       1   53304   53292   53307       2
   53304   53292   53310       2   53304   53313   53325       2   53304   53313
   53328       2   53295   53274   53298       1   53292   53274   53295       2
   53292   53274   53298       2   53292   53304   53316       2   53292   53304
   53319       2   53283   53262   53286       4   53283   53268   53289       4
   53277   53259   53280       1   53274   53259   53277       2   53274   53259
   53280       2   53274   53292   53307       2   53274   53292   53310       2
   53268   53256   53271       4   53268   53283   53301       4   53262   53253
   53265       4   53262   53283   53301       4   53259   53274   53295       2
   53259   53274   53298       2   53256   53268   53289       4   53253   53262
   53286       4   53241   53223   53244       4   53241   53229   53247       4
   53241   53259   53277       8   53241   53259   53280       8   53235   53253
   53265      10   53235   53256   53271      10   53232   53220   53238       4
   53223   53205   53226       4   53220   53232   53250       4   53214   53199
   53217      10   53214   53232   53250      10   53208   53229   53247       4
   53205   53223   53244       4   53202   53220   53238       4   53193   53205
   53226       4   53190   53199   53217       4   53562   53553   53565       1
   53559   53553   53562       1   53559   53553   53565       1   53553   53541
   53556       2   53550   53541   53553       2   53550   53541   53556       1
   53544   53538   53547       1   53541   53538   53544       2   53541   53538
   53547       2   53541   53553   53559       2   53541   53553   53562       2
   53541   53553   53565       2   53538   53541   53550       2   53538   53541
   53556       2   53535   53523   53538       2   53532   53523   53535       1
   53532   53523   53538       2   53526   53514   53529       1   53523   53514
   53526       2   53523   53514   53529       2   53523   53538   53544       2
   53523   53538   53547       2   53517   53505   53520       1   53514   53505
   53517       2   53514   53505   53520       2   53514   53523   53532       2
   53514   53523   53535       2   53508   53496   53511       1   53505   53496
   53508       2   53505   53496   53511       2   53505   53514   53526       2
   53505   53514   53529       2   53499   53484   53502       1   53496   53484
   53499       2   53496   53484   53502       2   53496   53505   53517       2
   53496   53505   53520       2   53487   53466   53490       1   53484   53466
   53487       2   53484   53466   53490       2   53484   53496   53508       2
   53484   53496   53511       2   53475   53454   53478       4   53475   53460
   53481       4   53469   53451   53472       1   53466   53451   53469       2
   53466   53451   53472       2   53466   53484   53499       2   53466   53484
   53502       2   53460   53448   53463       4   53460   53475   53493       4
   53454   53445   53457       4   53454   53475   53493       4   53451   53466
   53487       2   53451   53466   53490       2   53448   53460   53481       4
   53445   53454   53478       4   53433   53415   53436       4   53433   53421
   53439       4   53433   53451   53469       8   53433   53451   53472       8
   53427   53445   53457      10   53427   53448   53463      10   53424   53412
   53430       4   53415   53397   53418       4   53412   53424   53442       4
   53406   53391   53409      10   53406   53424   53442      10   53400   53421
   53439       4   53397   53415   53436       4   53394   53412   53430       4
   53385   53397   53418       4   53382   53391   53409       4   53754   53745
   53757       1   53751   53745   53754       1   53751   53745   53757       1
   53745   53733   53748       2   53742   53733   53745       2   53742   53733
   53748       1   53736   53730   53739       1   53733   53730   53736       2
   53733   53730   53739       2   53733   53745   53751       2   53733   53745
   53754       2   53733   53745   53757       2   53730   53733   53742       2
   53730   53733   53748       2   53727   53715   53730       2   53724   53715
   53727       1   53724   53715   53730       2   53718   53706   53721       1
   53715   53706   53718       2   53715   53706   53721       2   53715   53730
   53736       2   53715   53730   53739       2   53709   53697   53712       1
   53706   53697   53709       2   53706   53697   53712       2   53706   53715
   53724       2   53706   53715   53727       2   53700   53688   53703       1
   53697   53688   53700       2   53697   53688   53703       2   53697   53706
   53718       2   53697   53706   53721       2   53691   53676   53694       1
   53688   53676   53691       2   53688   53676   53694       2   53688   53697
   53709       2   53688   53697   53712       2   53679   53658   53682       1
   53676   53658   53679       2   53676   53658   53682       2   53676   53688
   53700       2   53676   53688   53703       2   53667   53646   53670       4
   53667   53652   53673       4   53661   53643   53664       1   53658   53643
   53661       2   53658   53643   53664       2   53658   53676   53691       2
   53658   53676   53694       2   53652   53640   53655       4   53652   53667
   53685       4   53646   53637   53649       4   53646   53667   53685       4
   53643   53658   53679       2   53643   53658   53682       2   53640   53652
   53673       4   53637   53646   53670       4   53625   53607   53628       4
   53625   53613   53631       4   53625   53643   53661       8   53625   53643
   53664       8   53619   53637   53649      10   53619   53640   53655      10
   53616   53604   53622       4   53607   53589   53610       4   53604   53616
   53634       4   53598   53583   53601      10   53598   53616   53634      10
   53592   53613   53631       4   53589   53607   53628       4   53586   53604
   53622       4   53577   53589   53610       4   53574   53583   53601       4
   53946   53937   53949       1   53943   53937   53946       1   53943   53937
   53949       1   53937   53925   53940       2   53934   53925   53937       2
   53934   53925   53940       1   53928   53922   53931       1   53925   53922
   53928       2   53925   53922   53931       2   53925   53937   53943       2
   53925   53937   53946       2   53925   53937   53949       2   53922   53925
   53934       2   53922   53925   53940       2   53919   53907   53922       2
   53916   53907   53919       1   53916   53907   53922       2   53910   53898
   53913       1   53907   53898   53910       2   53907   53898   53913       2
   53907   53922   53928       2   53907   53922   53931       2   53901   53889
   53904       1   53898   53889   53901       2   53898   53889   53904       2
   53898   53907   53916       2   53898   53907   53919       2   53892   53880
   53895       1   53889   53880   53892       2   53889   53880   53895       2
   53889   53898   53910       2   53889   53898   53913       2   53883   53868
   53886       1   53880   53868   53883       2   53880   53868   53886       2
   53880   53889   53901       2   53880   53889   53904       2   53871   53850
   53874       1   53868   53850   53871       2   53868   53850   53874       2
   53868   53880   53892       2   53868   53880   53895       2   53859   53838
   53862       4   53859   53844   53865       4   53853   53835   53856       1
   53850   53835   53853       2   53850   53835   53856       2   53850   53868
   53883       2   53850   53868   53886       2   53844   53832   53847       4
   53844   53859   53877       4   53838   53829   53841       4   53838   53859
   53877       4   53835   53850   53871       2   53835   53850   53874       2
   53832   53844   53865       4   53829   53838   53862       4   53817   53799
   53820       4   53817   53805   53823       4   53817   53835   53853       8
   53817   53835   53856       8   53811   53829   53841      10   53811   53832
   53847      10   53808   53796   53814       4   53799   53781   53802       4
   53796   53808   53826       4   53790   53775   53793      10   53790   53808
   53826      10   53784   53805   53823       4   53781   53799   53820       4
   53778   53796   53814       4   53769   53781   53802       4   53766   53775
   53793       4   54138   54129   54141       1   54135   54129   54138       1
   54135   54129   54141       1   54129   54117   54132       2   54126   54117
   54129       2   54126   54117   54132       1   54120   54114   54123       1
   54117   54114   54120       2   54117   54114   54123       2   54117   54129
   54135       2   54117   54129   54138       2   54117   54129   54141       2
   54114   54117   54126       2   54114   54117   54132       2   54111   54099
   54114       2   54108   54099   54111       1   54108   54099   54114       2
   54102   54090   54105       1   54099   54090   54102       2   54099   54090
   54105       2   54099   54114   54120       2   54099   54114   54123       2
   54093   54081   54096       1   54090   54081   54093       2   54090   54081
   54096       2   54090   54099   54108       2   54090   54099   54111       2
   54084   54072   54087       1   54081   54072   54084       2   54081   54072
   54087       2   54081   54090   54102       2   54081   54090   54105       2
   54075   54060   54078       1   54072   54060   54075       2   54072   54060
   54078       2   54072   54081   54093       2   54072   54081   54096       2
   54063   54042   54066       1   54060   54042   54063       2   54060   54042
   54066       2   54060   54072   54084       2   54060   54072   54087       2
   54051   54030   54054       4   54051   54036   54057       4   54045   54027
   54048       1   54042   54027   54045       2   54042   54027   54048       2
   54042   54060   54075       2   54042   54060   54078       2   54036   54024
   54039       4   54036   54051   54069       4   54030   54021   54033       4
   54030   54051   54069       4   54027   54042   54063       2   54027   54042
   54066       2   54024   54036   54057       4   54021   54030   54054       4
   54009   53991   54012       4   54009   53997   54015       4   54009   54027
   54045       8   54009   54027   54048       8   54003   54021   54033      10
   54003   54024   54039      10   54000   53988   54006       4   53991   53973
   53994       4   53988   54000   54018       4   53982   53967   53985      10
   53982   54000   54018      10   53976   53997   54015       4   53973   53991
   54012       4   53970   53988   54006       4   53961   53973   53994       4
   53958   53967   53985       4   54330   54321   54333       1   54327   54321
   54330       1   54327   54321   54333       1   54321   54309   54324       2
   54318   54309   54321       2   54318   54309   54324       1   54312   54306
   54315       1   54309   54306   54312       2   54309   54306   54315       2
   54309   54321   54327       2   54309   54321   54330       2   54309   54321
   54333       2   54306   54309   54318       2   54306   54309   54324       2
   54303   54291   54306       2   54300   54291   54303       1   54300   54291
   54306       2   54294   54282   54297       1   54291   54282   54294       2
   54291   54282   54297       2   54291   54306   54312       2   54291   54306
   54315       2   54285   54273   54288       1   54282   54273   54285       2
   54282   54273   54288       2   54282   54291   54300       2   54282   54291
   54303       2   54276   54264   54279       1   54273   54264   54276       2
   54273   54264   54279       2   54273   54282   54294       2   54273   54282
   54297       2   54267   54252   54270       1   54264   54252   54267       2
   54264   54252   54270       2   54264   54273   54285       2   54264   54273
   54288       2   54255   54234   54258       1   54252   54234   54255       2
   54252   54234   54258       2   54252   54264   54276       2   54252   54264
   54279       2   54243   54222   54246       4   54243   54228   54249       4
   54237   54219   54240       1   54234   54219   54237       2   54234   54219
   54240       2   54234   54252   54267       2   54234   54252   54270       2
   54228   54216   54231       4   54228   54243   54261       4   54222   54213
   54225       4   54222   54243   54261       4   54219   54234   54255       2
   54219   54234   54258       2   54216   54228   54249       4   54213   54222
   54246       4   54201   54183   54204       4   54201   54189   54207       4
   54201   54219   54237       8   54201   54219   54240       8   54195   54213
   54225      10   54195   54216   54231      10   54192   54180   54198       4
   54183   54165   54186       4   54180   54192   54210       4   54174   54159
   54177      10   54174   54192   54210      10   54168   54189   54207       4
   54165   54183   54204       4   54162   54180   54198       4   54153   54165
   54186       4   54150   54159   54177       4   54522   54513   54525       1
   54519   54513   54522       1   54519   54513   54525       1   54513   54501
   54516       2   54510   54501   54513       2   54510   54501   54516       1
   54504   54498   54507       1   54501   54498   54504       2   54501   54498
   54507       2   54501   54513   54519       2   54501   54513   54522       2
   54501   54513   54525       2   54498   54501   54510       2   54498   54501
   54516       2   54495   54483   54498       2   54492   54483   54495       1
   54492   54483   54498       2   54486   54474   54489       1   54483   54474
   54486       2   54483   54474   54489       2   54483   54498   54504       2
   54483   54498   54507       2   54477   54465   54480       1   54474   54465
   54477       2   54474   54465   54480       2   54474   54483   54492       2
   54474   54483   54495       2   54468   54456   54471       1   54465   54456
   54468       2   54465   54456   54471       2   54465   54474   54486       2
   54465   54474   54489       2   54459   54444   54462       1   54456   54444
   54459       2   54456   54444   54462       2   54456   54465   54477       2
   54456   54465   54480       2   54447   54426   54450       1   54444   54426
   54447       2   54444   54426   54450       2   54444   54456   54468       2
   54444   54456   54471       2   54435   54414   54438       4   54435   54420
   54441       4   54429   54411   54432       1   54426   54411   54429       2
   54426   54411   54432       2   54426   54444   54459       2   54426   54444
   54462       2   54420   54408   54423       4   54420   54435   54453       4
   54414   54405   54417       4   54414   54435   54453       4   54411   54426
   54447       2   54411   54426   54450       2   54408   54420   54441       4
   54405   54414   54438       4   54393   54375   54396       4   54393   54381
   54399       4   54393   54411   54429       8   54393   54411   54432       8
   54387   54405   54417      10   54387   54408   54423      10   54384   54372
   54390       4   54375   54357   54378       4   54372   54384   54402       4
   54366   54351   54369      10   54366   54384   54402      10   54360   54381
   54399       4   54357   54375   54396       4   54354   54372   54390       4
   54345   54357   54378       4   54342   54351   54369       4   54714   54705
   54717       1   54711   54705   54714       1   54711   54705   54717       1
   54705   54693   54708       2   54702   54693   54705       2   54702   54693
   54708       1   54696   54690   54699       1   54693   54690   54696       2
   54693   54690   54699       2   54693   54705   54711       2   54693   54705
   54714       2   54693   54705   54717       2   54690   54693   54702       2
   54690   54693   54708       2   54687   54675   54690       2   54684   54675
   54687       1   54684   54675   54690       2   54678   54666   54681       1
   54675   54666   54678       2   54675   54666   54681       2   54675   54690
   54696       2   54675   54690   54699       2   54669   54657   54672       1
   54666   54657   54669       2   54666   54657   54672       2   54666   54675
   54684       2   54666   54675   54687       2   54660   54648   54663       1
   54657   54648   54660       2   54657   54648   54663       2   54657   54666
   54678       2   54657   54666   54681       2   54651   54636   54654       1
   54648   54636   54651       2   54648   54636   54654       2   54648   54657
   54669       2   54648   54657   54672       2   54639   54618   54642       1
   54636   54618   54639       2   54636   54618   54642       2   54636   54648
   54660       2   54636   54648   54663       2   54627   54606   54630       4
   54627   54612   54633       4   54621   54603   54624       1   54618   54603
   54621       2   54618   54603   54624       2   54618   54636   54651       2
   54618   54636   54654       2   54612   54600   54615       4   54612   54627
   54645       4   54606   54597   54609       4   54606   54627   54645       4
   54603   54618   54639       2   54603   54618   54642       2   54600   54612
   54633       4   54597   54606   54630       4   54585   54567   54588       4
   54585   54573   54591       4   54585   54603   54621       8   54585   54603
   54624       8   54579   54597   54609      10   54579   54600   54615      10
   54576   54564   54582       4   54567   54549   54570       4   54564   54576
   54594       4   54558   54543   54561      10   54558   54576   54594      10
   54552   54573   54591       4   54549   54567   54588       4   54546   54564
   54582       4   54537   54549   54570       4   54534   54543   54561       4
   54906   54897   54909       1   54903   54897   54906       1   54903   54897
   54909       1   54897   54885   54900       2   54894   54885   54897       2
   54894   54885   54900       1   54888   54882   54891       1   54885   54882
   54888       2   54885   54882   54891       2   54885   54897   54903       2
   54885   54897   54906       2   54885   54897   54909       2   54882   54885
   54894       2   54882   54885   54900       2   54879   54867   54882       2
   54876   54867   54879       1   54876   54867   54882       2   54870   54858
   54873       1   54867   54858   54870       2   54867   54858   54873       2
   54867   54882   54888       2   54867   54882   54891       2   54861   54849
   54864       1   54858   54849   54861       2   54858   54849   54864       2
   54858   54867   54876       2   54858   54867   54879       2   54852   54840
   54855       1   54849   54840   54852       2   54849   54840   54855       2
   54849   54858   54870       2   54849   54858   54873       2   54843   54828
   54846       1   54840   54828   54843       2   54840   54828   54846       2
   54840   54849   54861       2   54840   54849   54864       2   54831   54810
   54834       1   54828   54810   54831       2   54828   54810   54834       2
   54828   54840   54852       2   54828   54840   54855       2   54819   54798
   54822       4   54819   54804   54825       4   54813   54795   54816       1
   54810   54795   54813       2   54810   54795   54816       2   54810   54828
   54843       2   54810   54828   54846       2   54804   54792   54807       4
   54804   54819   54837       4   54798   54789   54801       4   54798   54819
   54837       4   54795   54810   54831       2   54795   54810   54834       2
   54792   54804   54825       4   54789   54798   54822       4   54777   54759
   54780       4   54777   54765   54783       4   54777   54795   54813       8
   54777   54795   54816       8   54771   54789   54801      10   54771   54792
   54807      10   54768   54756   54774       4   54759   54741   54762       4
   54756   54768   54786       4   54750   54735   54753      10   54750   54768
   54786      10   54744   54765   54783       4   54741   54759   54780       4
   54738   54756   54774       4   54729   54741   54762       4   54726   54735
   54753       4   55098   55089   55101       1   55095   55089   55098       1
   55095   55089   55101       1   55089   55077   55092       2   55086   55077
   55089       2   55086   55077   55092       1   55080   55074   55083       1
   55077   55074   55080       2   55077   55074   55083       2   55077   55089
   55095       2   55077   55089   55098       2   55077   55089   55101       2
   55074   55077   55086       2   55074   55077   55092       2   55071   55059
   55074       2   55068   55059   55071       1   55068   55059   55074       2
   55062   55050   55065       1   55059   55050   55062       2   55059   55050
   55065       2   55059   55074   55080       2   55059   55074   55083       2
   55053   55041   55056       1   55050   55041   55053       2   55050   55041
   55056       2   55050   55059   55068       2   55050   55059   55071       2
   55044   55032   55047       1   55041   55032   55044       2   55041   55032
   55047       2   55041   55050   55062       2   55041   55050   55065       2
   55035   55020   55038       1   55032   55020   55035       2   55032   55020
   55038       2   55032   55041   55053       2   55032   55041   55056       2
   55023   55002   55026       1   55020   55002   55023       2   55020   55002
   55026       2   55020   55032   55044       2   55020   55032   55047       2
   55011   54990   55014       4   55011   54996   55017       4   55005   54987
   55008       1   55002   54987   55005       2   55002   54987   55008       2
   55002   55020   55035       2   55002   55020   55038       2   54996   54984
   54999       4   54996   55011   55029       4   54990   54981   54993       4
   54990   55011   55029       4   54987   55002   55023       2   54987   55002
   55026       2   54984   54996   55017       4   54981   54990   55014       4
   54969   54951   54972       4   54969   54957   54975       4   54969   54987
   55005       8   54969   54987   55008       8   54963   54981   54993      10
   54963   54984   54999      10   54960   54948   54966       4   54951   54933
   54954       4   54948   54960   54978       4   54942   54927   54945      10
   54942   54960   54978      10   54936   54957   54975       4   54933   54951
   54972       4   54930   54948   54966       4   54921   54933   54954       4
   54918   54927   54945       4   55290   55281   55293       1   55287   55281
   55290       1   55287   55281   55293       1   55281   55269   55284       2
   55278   55269   55281       2   55278   55269   55284       1   55272   55266
   55275       1   55269   55266   55272       2   55269   55266   55275       2
   55269   55281   55287       2   55269   55281   55290       2   55269   55281
   55293       2   55266   55269   55278       2   55266   55269   55284       2
   55263   55251   55266       2   55260   55251   55263       1   55260   55251
   55266       2   55254   55242   55257       1   55251   55242   55254       2
   55251   55242   55257       2   55251   55266   55272       2   55251   55266
   55275       2   55245   55233   55248       1   55242   55233   55245       2
   55242   55233   55248       2   55242   55251   55260       2   55242   55251
   55263       2   55236   55224   55239       1   55233   55224   55236       2
   55233   55224   55239       2   55233   55242   55254       2   55233   55242
   55257       2   55227   55212   55230       1   55224   55212   55227       2
   55224   55212   55230       2   55224   55233   55245       2   55224   55233
   55248       2   55215   55194   55218       1   55212   55194   55215       2
   55212   55194   55218       2   55212   55224   55236       2   55212   55224
   55239       2   55203   55182   55206       4   55203   55188   55209       4
   55197   55179   55200       1   55194   55179   55197       2   55194   55179
   55200       2   55194   55212   55227       2   55194   55212   55230       2
   55188   55176   55191       4   55188   55203   55221       4   55182   55173
   55185       4   55182   55203   55221       4   55179   55194   55215       2
   55179   55194   55218       2   55176   55188   55209       4   55173   55182
   55206       4   55161   55143   55164       4   55161   55149   55167       4
   55161   55179   55197       8   55161   55179   55200       8   55155   55173
   55185      10   55155   55176   55191      10   55152   55140   55158       4
   55143   55125   55146       4   55140   55152   55170       4   55134   55119
   55137      10   55134   55152   55170      10   55128   55149   55167       4
   55125   55143   55164       4   55122   55140   55158       4   55113   55125
   55146       4   55110   55119   55137       4
%FLAG ANGLES_WITHOUT_HYDROGEN                                                   
%FORMAT(10I8)                                                                   
     162     165     177       3     147     162     165       3     138     147
     162       3     129     138     147       3     120     129     138       3
     108     120     129       3      90     108     120       3      78      99
      84       5      75      90     108       3      72      84      99       5
      69      51      72       6      69      78      99       5      57      75
      90       7      51      69      78       9      51      72      84       9
      48      30      51      11      45      57      75      12      39      57
      45       5      39      57      75      12      30      48      36       9
      30      51      69      11      30      51      72      11      27      24
      45      13      24      45      57       5      21       9      24       5
      21      39      57       5      18      12      27      14      18      36
      48       5      15       6      18       5      15      30      48       6
      15      30      51      11      12      18      36      15      12      27
      24      16       9       3      12      17       9      21      39       5
       9      24      27      13       9      24      45       5       6      15
      30       9       6      18      12      15       6      18      36       5
       3       0       6      18       3       9      21      19       3       9
      24      19       3      12      18      20       3      12      27      21
       0       3       9      22       0       3      12      23       0       6
      15      13       0       6      18      13     354     357     369       3
     339     354     357       3     330     339     354       3     321     330
     339       3     312     321     330       3     300     312     321       3
     282     300     312       3     270     291     276       5     267     282
     300       3     264     276     291       5     261     243     264       6
     261     270     291       5     249     267     282       7     243     261
     270       9     243     264     276       9     240     222     243      11
     237     249     267      12     231     249     237       5     231     249
     267      12     222     240     228       9     222     243     261      11
     222     243     264      11     219     216     237      13     216     237
     249       5     213     201     216       5     213     231     249       5
     210     204     219      14     210     228     240       5     207     198
     210       5     207     222     240       6     207     222     243      11
     204     210     228      15     204     219     216      16     201     195
     204      17     201     213     231       5     201     216     219      13
     201     216     237       5     198     207     222       9     198     210
     204      15     198     210     228       5     195     192     198      18
     195     201     213      19     195     201     216      19     195     204
     210      20     195     204     219      21     192     195     201      22
     192     195     204      23     192     198     207      13     192     198
     210      13     546     549     561       3     531     546     549       3
     522     531     546       3     513     522     531       3     504     513
     522       3     492     504     513       3     474     492     504       3
     462     483     468       5     459     474     492       3     456     468
     483       5     453     435     456       6     453     462     483       5
     441     459     474       7     435     453     462       9     435     456
     468       9     432     414     435      11     429     441     459      12
     423     441     429       5     423     441     459      12     414     432
     420       9     414     435     453      11     414     435     456      11
     411     408     429      13     408     429     441       5     405     393
     408       5     405     423     441       5     402     396     411      14
     402     420     432       5     399     390     402       5     399     414
     432       6     399     414     435      11     396     402     420      15
     396     411     408      16     393     387     396      17     393     405
     423       5     393     408     411      13     393     408     429       5
     390     399     414       9     390     402     396      15     390     402
     420       5     387     384     390      18     387     393     405      19
     387     393     408      19     387     396     402      20     387     396
     411      21     384     387     393      22     384     387     396      23
     384     390     399      13     384     390     402      13     738     741
     753       3     723     738     741       3     714     723     738       3
     705     714     723       3     696     705     714       3     684     696
     705       3     666     684     696       3     654     675     660       5
     651     666     684       3     648     660     675       5     645     627
     648       6     645     654     675       5     633     651     666       7
     627     645     654       9     627     648     660       9     624     606
     627      11     621     633     651      12     615     633     621       5
     615     633     651      12     606     624     612       9     606     627
     645      11     606     627     648      11     603     600     621      13
     600     621     633       5     597     585     600       5     597     615
     633       5     594     588     603      14     594     612     624       5
     591     582     594       5     591     606     624       6     591     606
     627      11     588     594     612      15     588     603     600      16
     585     579     588      17     585     597     615       5     585     600
     603      13     585     600     621       5     582     591     606       9
     582     594     588      15     582     594     612       5     579     576
     582      18     579     585     597      19     579     585     600      19
     579     588     594      20     579     588     603      21     576     579
     585      22     576     579     588      23     576     582     591      13
     576     582     594      13     930     933     945       3     915     930
     933       3     906     915     930       3     897     906     915       3
     888     897     906       3     876     888     897       3     858     876
     888       3     846     867     852       5     843     858     876       3
     840     852     867       5     837     819     840       6     837     846
     867       5     825     843     858       7     819     837     846       9
     819     840     852       9     816     798     819      11     813     825
     843      12     807     825     813       5     807     825     843      12
     798     816     804       9     798     819     837      11     798     819
     840      11     795     792     813      13     792     813     825       5
     789     777     792       5     789     807     825       5     786     780
     795      14     786     804     816       5     783     774     786       5
     783     798     816       6     783     798     819      11     780     786
     804      15     780     795     792      16     777     771     780      17
     777     789     807       5     777     792     795      13     777     792
     813       5     774     783     798       9     774     786     780      15
     774     786     804       5     771     768     774      18     771     777
     789      19     771     777     792      19     771     780     786      20
     771     780     795      21     768     771     777      22     768     771
     780      23     768     774     783      13     768     774     786      13
    1122    1125    1137       3    1107    1122    1125       3    1098    1107
    1122       3    1089    1098    1107       3    1080    1089    1098       3
    1068    1080    1089       3    1050    1068    1080       3    1038    1059
    1044       5    1035    1050    1068       3    1032    1044    1059       5
    1029    1011    1032       6    1029    1038    1059       5    1017    1035
    1050       7    1011    1029    1038       9    1011    1032    1044       9
    1008     990    1011      11    1005    1017    1035      12     999    1017
    1005       5     999    1017    1035      12     990    1008     996       9
     990    1011    1029      11     990    1011    1032      11     987     984
    1005      13     984    1005    1017       5     981     969     984       5
     981     999    1017       5     978     972     987      14     978     996
    1008       5     975     966     978       5     975     990    1008       6
     975     990    1011      11     972     978     996      15     972     987
     984      16     969     963     972      17     969     981     999       5
     969     984     987      13     969     984    1005       5     966     975
     990       9     966     978     972      15     966     978     996       5
     963     960     966      18     963     969     981      19     963     969
     984      19     963     972     978      20     963     972     987      21
     960     963     969      22     960     963     972      23     960     966
     975      13     960     966     978      13    1314    1317    1329       3
    1299    1314    1317       3    1290    1299    1314       3    1281    1290
    1299       3    1272    1281    1290       3    1260    1272    1281       3
    1242    1260    1272       3    1230    1251    1236       5    1227    1242
    1260       3    1224    1236    1251       5    1221    1203    1224       6
    1221    1230    1251       5    1209    1227    1242       7    1203    1221
    1230       9    1203    1224    1236       9    1200    1182    1203      11
    1197    1209    1227      12    1191    1209    1197       5    1191    1209
    1227      12    1182    1200    1188       9    1182    1203    1221      11
    1182    1203    1224      11    1179    1176    1197      13    1176    1197
    1209       5    1173    1161    1176       5    1173    1191    1209       5
    1170    1164    1179      14    1170    1188    1200       5    1167    1158
    1170       5    1167    1182    1200       6    1167    1182    1203      11
    1164    1170    1188      15    1164    1179    1176      16    1161    1155
    1164      17    1161    1173    1191       5    1161    1176    1179      13
    1161    1176    1197       5    1158    1167    1182       9    1158    1170
    1164      15    1158    1170    1188       5    1155    1152    1158      18
    1155    1161    1173      19    1155    1161    1176      19    1155    1164
    1170      20    1155    1164    1179      21    1152    1155    1161      22
    1152    1155    1164      23    1152    1158    1167      13    1152    1158
    1170      13    1506    1509    1521       3    1491    1506    1509       3
    1482    1491    1506       3    1473    1482    1491       3    1464    1473
    1482       3    1452    1464    1473       3    1434    1452    1464       3
    1422    1443    1428       5    1419    1434    1452       3    1416    1428
    1443       5    1413    1395    1416       6    1413    1422    1443       5
    1401    1419    1434       7    1395    1413    1422       9    1395    1416
    1428       9    1392    1374    1395      11    1389    1401    1419      12
    1383    1401    1389       5    1383    1401    1419      12    1374    1392
    1380       9    1374    1395    1413      11    1374    1395    1416      11
    1371    1368    1389      13    1368    1389    1401       5    1365    1353
    1368       5    1365    1383    1401       5    1362    1356    1371      14
    1362    1380    1392       5    1359    1350    1362       5    1359    1374
    1392       6    1359    1374    1395      11    1356    1362    1380      15
    1356    1371    1368      16    1353    1347    1356      17    1353    1365
    1383       5    1353    1368    1371      13    1353    1368    1389       5
    1350    1359    1374       9    1350    1362    1356      15    1350    1362
    1380       5    1347    1344    1350      18    1347    1353    1365      19
    1347    1353    1368      19    1347    1356    1362      20    1347    1356
    1371      21    1344    1347    1353      22    1344    1347    1356      23
    1344    1350    1359      13    1344    1350    1362      13    1698    1701
    1713       3    1683    1698    1701       3    1674    1683    1698       3
    1665    1674    1683       3    1656    1665    1674       3    1644    1656
    1665       3    1626    1644    1656       3    1614    1635    1620       5
    1611    1626    1644       3    1608    1620    1635       5    1605    1587
    1608       6    1605    1614    1635       5    1593    1611    1626       7
    1587    1605    1614       9    1587    1608    1620       9    1584    1566
    1587      11    1581    1593    1611      12    1575    1593    1581       5
    1575    1593    1611      12    1566    1584    1572       9    1566    1587
    1605      11    1566    1587    1608      11    1563    1560    1581      13
    1560    1581    1593       5    1557    1545    1560       5    1557    1575
    1593       5    1554    1548    1563      14    1554    1572    1584       5
    1551    1542    1554       5    1551    1566    1584       6    1551    1566
    1587      11    1548    1554    1572      15    1548    1563    1560      16
    1545    1539    1548      17    1545    1557    1575       5    1545    1560
    1563      13    1545    1560    1581       5    1542    1551    1566       9
    1542    1554    1548      15    1542    1554    1572       5    1539    1536
    1542      18    1539    1545    1557      19    1539    1545    1560      19
    1539    1548    1554      20    1539    1548    1563      21    1536    1539
    1545      22    1536    1539    1548      23    1536    1542    1551      13
    1536    1542    1554      13    1890    1893    1905       3    1875    1890
    1893       3    1866    1875    1890       3    1857    1866    1875       3
    1848    1857    1866       3    1836    1848    1857       3    1818    1836
    1848       3    1806    1827    1812       5    1803    1818    1836       3
    1800    1812    1827       5    1797    1779    1800       6    1797    1806
    1827       5    1785    1803    1818       7    1779    1797    1806       9
    1779    1800    1812       9    1776    1758    1779      11    1773    1785
    1803      12    1767    1785    1773       5    1767    1785    1803      12
    1758    1776    1764       9    1758    1779    1797      11    1758    1779
    1800      11    1755    1752    1773      13    1752    1773    1785       5
    1749    1737    1752       5    1749    1767    1785       5    1746    1740
    1755      14    1746    1764    1776       5    1743    1734    1746       5
    1743    1758    1776       6    1743    1758    1779      11    1740    1746
    1764      15    1740    1755    1752      16    1737    1731    1740      17
    1737    1749    1767       5    1737    1752    1755      13    1737    1752
    1773       5    1734    1743    1758       9    1734    1746    1740      15
    1734    1746    1764       5    1731    1728    1734      18    1731    1737
    1749      19    1731    1737    1752      19    1731    1740    1746      20
    1731    1740    1755      21    1728    1731    1737      22    1728    1731
    1740      23    1728    1734    1743      13    1728    1734    1746      13
    2082    2085    2097       3    2067    2082    2085       3    2058    2067
    2082       3    2049    2058    2067       3    2040    2049    2058       3
    2028    2040    2049       3    2010    2028    2040       3    1998    2019
    2004       5    1995    2010    2028       3    1992    2004    2019       5
    1989    1971    1992       6    1989    1998    2019       5    1977    1995
    2010       7    1971    1989    1998       9    1971    1992    2004       9
    1968    1950    1971      11    1965    1977    1995      12    1959    1977
    1965       5    1959    1977    1995      12    1950    1968    1956       9
    1950    1971    1989      11    1950    1971    1992      11    1947    1944
    1965      13    1944    1965    1977       5    1941    1929    1944       5
    1941    1959    1977       5    1938    1932    1947      14    1938    1956
    1968       5    1935    1926    1938       5    1935    1950    1968       6
    1935    1950    1971      11    1932    1938    1956      15    1932    1947
    1944      16    1929    1923    1932      17    1929    1941    1959       5
    1929    1944    1947      13    1929    1944    1965       5    1926    1935
    1950       9    1926    1938    1932      15    1926    1938    1956       5
    1923    1920    1926      18    1923    1929    1941      19    1923    1929
    1944      19    1923    1932    1938      20    1923    1932    1947      21
    1920    1923    1929      22    1920    1923    1932      23    1920    1926
    1935      13    1920    1926    1938      13    2274    2277    2289       3
    2259    2274    2277       3    2250    2259    2274       3    2241    2250
    2259       3    2232    2241    2250       3    2220    2232    2241       3
    2202    2220    2232       3    2190    2211    2196       5    2187    2202
    2220       3    2184    2196    2211       5    2181    2163    2184       6
    2181    2190    2211       5    2169    2187    2202       7    2163    2181
    2190       9    2163    2184    2196       9    2160    2142    2163      11
    2157    2169    2187      12    2151    2169    2157       5    2151    2169
    2187      12    2142    2160    2148       9    2142    2163    2181      11
    2142    2163    2184      11    2139    2136    2157      13    2136    2157
    2169       5    2133    2121    2136       5    2133    2151    2169       5
    2130    2124    2139      14    2130    2148    2160       5    2127    2118
    2130       5    2127    2142    2160       6    2127    2142    2163      11
    2124    2130    2148      15    2124    2139    2136      16    2121    2115
    2124      17    2121    2133    2151       5    2121    2136    2139      13
    2121    2136    2157       5    2118    2127    2142       9    2118    2130
    2124      15    2118    2130    2148       5    2115    2112    2118      18
    2115    2121    2133      19    2115    2121    2136      19    2115    2124
    2130      20    2115    2124    2139      21    2112    2115    2121      22
    2112    2115    2124      23    2112    2118    2127      13    2112    2118
    2130      13    2466    2469    2481       3    2451    2466    2469       3
    2442    2451    2466       3    2433    2442    2451       3    2424    2433
    2442       3    2412    2424    2433       3    2394    2412    2424       3
    2382    2403    2388       5    2379    2394    2412       3    2376    2388
    2403       5    2373    2355    2376       6    2373    2382    2403       5
    2361    2379    2394       7    2355    2373    2382       9    2355    2376
    2388       9    2352    2334    2355      11    2349    2361    2379      12
    2343    2361    2349       5    2343    2361    2379      12    2334    2352
    2340       9    2334    2355    2373      11    2334    2355    2376      11
    2331    2328    2349      13    2328    2349    2361       5    2325    2313
    2328       5    2325    2343    2361       5    2322    2316    2331      14
    2322    2340    2352       5    2319    2310    2322       5    2319    2334
    2352       6    2319    2334    2355      11    2316    2322    2340      15
    2316    2331    2328      16    2313    2307    2316      17    2313    2325
    2343       5    2313    2328    2331      13    2313    2328    2349       5
    2310    2319    2334       9    2310    2322    2316      15    2310    2322
    2340       5    2307    2304    2310      18    2307    2313    2325      19
    2307    2313    2328      19    2307    2316    2322      20    2307    2316
    2331      21    2304    2307    2313      22    2304    2307    2316      23
    2304    2310    2319      13    2304    2310    2322      13    2658    2661
    2673       3    2643    2658    2661       3    2634    2643    2658       3
    2625    2634    2643       3    2616    2625    2634       3    2604    2616
    2625       3    2586    2604    2616       3    2574    2595    2580       5
    2571    2586    2604       3    2568    2580    2595       5    2565    2547
    2568       6    2565    2574    2595       5    2553    2571    2586       7
    2547    2565    2574       9    2547    2568    2580       9    2544    2526
    2547      11    2541    2553    2571      12    2535    2553    2541       5
    2535    2553    2571      12    2526    2544    2532       9    2526    2547
    2565      11    2526    2547    2568      11    2523    2520    2541      13
    2520    2541    2553       5    2517    2505    2520       5    2517    2535
    2553       5    2514    2508    2523      14    2514    2532    2544       5
    2511    2502    2514       5    2511    2526    2544       6    2511    2526
    2547      11    2508    2514    2532      15    2508    2523    2520      16
    2505    2499    2508      17    2505    2517    2535       5    2505    2520
    2523      13    2505    2520    2541       5    2502    2511    2526       9
    2502    2514    2508      15    2502    2514    2532       5    2499    2496
    2502      18    2499    2505    2517      19    2499    2505    2520      19
    2499    2508    2514      20    2499    2508    2523      21    2496    2499
    2505      22    2496    2499    2508      23    2496    2502    2511      13
    2496    2502    2514      13    2850    2853    2865       3    2835    2850
    2853       3    2826    2835    2850       3    2817    2826    2835       3
    2808    2817    2826       3    2796    2808    2817       3    2778    2796
    2808       3    2766    2787    2772       5    2763    2778    2796       3
    2760    2772    2787       5    2757    2739    2760       6    2757    2766
    2787       5    2745    2763    2778       7    2739    2757    2766       9
    2739    2760    2772       9    2736    2718    2739      11    2733    2745
    2763      12    2727    2745    2733       5    2727    2745    2763      12
    2718    2736    2724       9    2718    2739    2757      11    2718    2739
    2760      11    2715    2712    2733      13    2712    2733    2745       5
    2709    2697    2712       5    2709    2727    2745       5    2706    2700
    2715      14    2706    2724    2736       5    2703    2694    2706       5
    2703    2718    2736       6    2703    2718    2739      11    2700    2706
    2724      15    2700    2715    2712      16    2697    2691    2700      17
    2697    2709    2727       5    2697    2712    2715      13    2697    2712
    2733       5    2694    2703    2718       9    2694    2706    2700      15
    2694    2706    2724       5    2691    2688    2694      18    2691    2697
    2709      19    2691    2697    2712      19    2691    2700    2706      20
    2691    2700    2715      21    2688    2691    2697      22    2688    2691
    2700      23    2688    2694    2703      13    2688    2694    2706      13
    3042    3045    3057       3    3027    3042    3045       3    3018    3027
    3042       3    3009    3018    3027       3    3000    3009    3018       3
    2988    3000    3009       3    2970    2988    3000       3    2958    2979
    2964       5    2955    2970    2988       3    2952    2964    2979       5
    2949    2931    2952       6    2949    2958    2979       5    2937    2955
    2970       7    2931    2949    2958       9    2931    2952    2964       9
    2928    2910    2931      11    2925    2937    2955      12    2919    2937
    2925       5    2919    2937    2955      12    2910    2928    2916       9
    2910    2931    2949      11    2910    2931    2952      11    2907    2904
    2925      13    2904    2925    2937       5    2901    2889    2904       5
    2901    2919    2937       5    2898    2892    2907      14    2898    2916
    2928       5    2895    2886    2898       5    2895    2910    2928       6
    2895    2910    2931      11    2892    2898    2916      15    2892    2907
    2904      16    2889    2883    2892      17    2889    2901    2919       5
    2889    2904    2907      13    2889    2904    2925       5    2886    2895
    2910       9    2886    2898    2892      15    2886    2898    2916       5
    2883    2880    2886      18    2883    2889    2901      19    2883    2889
    2904      19    2883    2892    2898      20    2883    2892    2907      21
    2880    2883    2889      22    2880    2883    2892      23    2880    2886
    2895      13    2880    2886    2898      13    3234    3237    3249       3
    3219    3234    3237       3    3210    3219    3234       3    3201    3210
    3219       3    3192    3201    3210       3    3180    3192    3201       3
    3162    3180    3192       3    3150    3171    3156       5    3147    3162
    3180       3    3144    3156    3171       5    3141    3123    3144       6
    3141    3150    3171       5    3129    3147    3162       7    3123    3141
    3150       9    3123    3144    3156       9    3120    3102    3123      11
    3117    3129    3147      12    3111    3129    3117       5    3111    3129
    3147      12    3102    3120    3108       9    3102    3123    3141      11
    3102    3123    3144      11    3099    3096    3117      13    3096    3117
    3129       5    3093    3081    3096       5    3093    3111    3129       5
    3090    3084    3099      14    3090    3108    3120       5    3087    3078
    3090       5    3087    3102    3120       6    3087    3102    3123      11
    3084    3090    3108      15    3084    3099    3096      16    3081    3075
    3084      17    3081    3093    3111       5    3081    3096    3099      13
    3081    3096    3117       5    3078    3087    3102       9    3078    3090
    3084      15    3078    3090    3108       5    3075    3072    3078      18
    3075    3081    3093      19    3075    3081    3096      19    3075    3084
    3090      20    3075    3084    3099      21    3072    3075    3081      22
    3072    3075    3084      23    3072    3078    3087      13    3072    3078
    3090      13    3426    3429    3441       3    3411    3426    3429       3
    3402    3411    3426       3    3393    3402    3411       3    3384    3393
    3402       3    3372    3384    3393       3    3354    3372    3384       3
    3342    3363    3348       5    3339    3354    3372       3    3336    3348
    3363       5    3333    3315    3336       6    3333    3342    3363       5
    3321    3339    3354       7    3315    3333    3342       9    3315    3336
    3348       9    3312    3294    3315      11    3309    3321    3339      12
    3303    3321    3309       5    3303    3321    3339      12    3294    3312
    3300       9    3294    3315    3333      11    3294    3315    3336      11
    3291    3288    3309      13    3288    3309    3321       5    3285    3273
    3288       5    3285    3303    3321       5    3282    3276    3291      14
    3282    3300    3312       5    3279    3270    3282       5    3279    3294
    3312       6    3279    3294    3315      11    3276    3282    3300      15
    3276    3291    3288      16    3273    3267    3276      17    3273    3285
    3303       5    3273    3288    3291      13    3273    3288    3309       5
    3270    3279    3294       9    3270    3282    3276      15    3270    3282
    3300       5    3267    3264    3270      18    3267    3273    3285      19
    3267    3273    3288      19    3267    3276    3282      20    3267    3276
    3291      21    3264    3267    3273      22    3264    3267    3276      23
    3264    3270    3279      13    3264    3270    3282      13    3618    3621
    3633       3    3603    3618    3621       3    3594    3603    3618       3
    3585    3594    3603       3    3576    3585    3594       3    3564    3576
    3585       3    3546    3564    3576       3    3534    3555    3540       5
    3531    3546    3564       3    3528    3540    3555       5    3525    3507
    3528       6    3525    3534    3555       5    3513    3531    3546       7
    3507    3525    3534       9    3507    3528    3540       9    3504    3486
    3507      11    3501    3513    3531      12    3495    3513    3501       5
    3495    3513    3531      12    3486    3504    3492       9    3486    3507
    3525      11    3486    3507    3528      11    3483    3480    3501      13
    3480    3501    3513       5    3477    3465    3480       5    3477    3495
    3513       5    3474    3468    3483      14    3474    3492    3504       5
    3471    3462    3474       5    3471    3486    3504       6    3471    3486
    3507      11    3468    3474    3492      15    3468    3483    3480      16
    3465    3459    3468      17    3465    3477    3495       5    3465    3480
    3483      13    3465    3480    3501       5    3462    3471    3486       9
    3462    3474    3468      15    3462    3474    3492       5    3459    3456
    3462      18    3459    3465    3477      19    3459    3465    3480      19
    3459    3468    3474      20    3459    3468    3483      21    3456    3459
    3465      22    3456    3459    3468      23    3456    3462    3471      13
    3456    3462    3474      13    3810    3813    3825       3    3795    3810
    3813       3    3786    3795    3810       3    3777    3786    3795       3
    3768    3777    3786       3    3756    3768    3777       3    3738    3756
    3768       3    3726    3747    3732       5    3723    3738    3756       3
    3720    3732    3747       5    3717    3699    3720       6    3717    3726
    3747       5    3705    3723    3738       7    3699    3717    3726       9
    3699    3720    3732       9    3696    3678    3699      11    3693    3705
    3723      12    3687    3705    3693       5    3687    3705    3723      12
    3678    3696    3684       9    3678    3699    3717      11    3678    3699
    3720      11    3675    3672    3693      13    3672    3693    3705       5
    3669    3657    3672       5    3669    3687    3705       5    3666    3660
    3675      14    3666    3684    3696       5    3663    3654    3666       5
    3663    3678    3696       6    3663    3678    3699      11    3660    3666
    3684      15    3660    3675    3672      16    3657    3651    3660      17
    3657    3669    3687       5    3657    3672    3675      13    3657    3672
    3693       5    3654    3663    3678       9    3654    3666    3660      15
    3654    3666    3684       5    3651    3648    3654      18    3651    3657
    3669      19    3651    3657    3672      19    3651    3660    3666      20
    3651    3660    3675      21    3648    3651    3657      22    3648    3651
    3660      23    3648    3654    3663      13    3648    3654    3666      13
    4002    4005    4017       3    3987    4002    4005       3    3978    3987
    4002       3    3969    3978    3987       3    3960    3969    3978       3
    3948    3960    3969       3    3930    3948    3960       3    3918    3939
    3924       5    3915    3930    3948       3    3912    3924    3939       5
    3909    3891    3912       6    3909    3918    3939       5    3897    3915
    3930       7    3891    3909    3918       9    3891    3912    3924       9
    3888    3870    3891      11    3885    3897    3915      12    3879    3897
    3885       5    3879    3897    3915      12    3870    3888    3876       9
    3870    3891    3909      11    3870    3891    3912      11    3867    3864
    3885      13    3864    3885    3897       5    3861    3849    3864       5
    3861    3879    3897       5    3858    3852    3867      14    3858    3876
    3888       5    3855    3846    3858       5    3855    3870    3888       6
    3855    3870    3891      11    3852    3858    3876      15    3852    3867
    3864      16    3849    3843    3852      17    3849    3861    3879       5
    3849    3864    3867      13    3849    3864    3885       5    3846    3855
    3870       9    3846    3858    3852      15    3846    3858    3876       5
    3843    3840    3846      18    3843    3849    3861      19    3843    3849
    3864      19    3843    3852    3858      20    3843    3852    3867      21
    3840    3843    3849      22    3840    3843    3852      23    3840    3846
    3855      13    3840    3846    3858      13    4194    4197    4209       3
    4179    4194    4197       3    4170    4179    4194       3    4161    4170
    4179       3    4152    4161    4170       3    4140    4152    4161       3
    4122    4140    4152       3    4110    4131    4116       5    4107    4122
    4140       3    4104    4116    4131       5    4101    4083    4104       6
    4101    4110    4131       5    4089    4107    4122       7    4083    4101
    4110       9    4083    4104    4116       9    4080    4062    4083      11
    4077    4089    4107      12    4071    4089    4077       5    4071    4089
    4107      12    4062    4080    4068       9    4062    4083    4101      11
    4062    4083    4104      11    4059    4056    4077      13    4056    4077
    4089       5    4053    4041    4056       5    4053    4071    4089       5
    4050    4044    4059      14    4050    4068    4080       5    4047    4038
    4050       5    4047    4062    4080       6    4047    4062    4083      11
    4044    4050    4068      15    4044    4059    4056      16    4041    4035
    4044      17    4041    4053    4071       5    4041    4056    4059      13
    4041    4056    4077       5    4038    4047    4062       9    4038    4050
    4044      15    4038    4050    4068       5    4035    4032    4038      18
    4035    4041    4053      19    4035    4041    4056      19    4035    4044
    4050      20    4035    4044    4059      21    4032    4035    4041      22
    4032    4035    4044      23    4032    4038    4047      13    4032    4038
    4050      13    4386    4389    4401       3    4371    4386    4389       3
    4362    4371    4386       3    4353    4362    4371       3    4344    4353
    4362       3    4332    4344    4353       3    4314    4332    4344       3
    4302    4323    4308       5    4299    4314    4332       3    4296    4308
    4323       5    4293    4275    4296       6    4293    4302    4323       5
    4281    4299    4314       7    4275    4293    4302       9    4275    4296
    4308       9    4272    4254    4275      11    4269    4281    4299      12
    4263    4281    4269       5    4263    4281    4299      12    4254    4272
    4260       9    4254    4275    4293      11    4254    4275    4296      11
    4251    4248    4269      13    4248    4269    4281       5    4245    4233
    4248       5    4245    4263    4281       5    4242    4236    4251      14
    4242    4260    4272       5    4239    4230    4242       5    4239    4254
    4272       6    4239    4254    4275      11    4236    4242    4260      15
    4236    4251    4248      16    4233    4227    4236      17    4233    4245
    4263       5    4233    4248    4251      13    4233    4248    4269       5
    4230    4239    4254       9    4230    4242    4236      15    4230    4242
    4260       5    4227    4224    4230      18    4227    4233    4245      19
    4227    4233    4248      19    4227    4236    4242      20    4227    4236
    4251      21    4224    4227    4233      22    4224    4227    4236      23
    4224    4230    4239      13    4224    4230    4242      13    4578    4581
    4593       3    4563    4578    4581       3    4554    4563    4578       3
    4545    4554    4563       3    4536    4545    4554       3    4524    4536
    4545       3    4506    4524    4536       3    4494    4515    4500       5
    4491    4506    4524       3    4488    4500    4515       5    4485    4467
    4488       6    4485    4494    4515       5    4473    4491    4506       7
    4467    4485    4494       9    4467    4488    4500       9    4464    4446
    4467      11    4461    4473    4491      12    4455    4473    4461       5
    4455    4473    4491      12    4446    4464    4452       9    4446    4467
    4485      11    4446    4467    4488      11    4443    4440    4461      13
    4440    4461    4473       5    4437    4425    4440       5    4437    4455
    4473       5    4434    4428    4443      14    4434    4452    4464       5
    4431    4422    4434       5    4431    4446    4464       6    4431    4446
    4467      11    4428    4434    4452      15    4428    4443    4440      16
    4425    4419    4428      17    4425    4437    4455       5    4425    4440
    4443      13    4425    4440    4461       5    4422    4431    4446       9
    4422    4434    4428      15    4422    4434    4452       5    4419    4416
    4422      18    4419    4425    4437      19    4419    4425    4440      19
    4419    4428    4434      20    4419    4428    4443      21    4416    4419
    4425      22    4416    4419    4428      23    4416    4422    4431      13
    4416    4422    4434      13    4770    4773    4785       3    4755    4770
    4773       3    4746    4755    4770       3    4737    4746    4755       3
    4728    4737    4746       3    4716    4728    4737       3    4698    4716
    4728       3    4686    4707    4692       5    4683    4698    4716       3
    4680    4692    4707       5    4677    4659    4680       6    4677    4686
    4707       5    4665    4683    4698       7    4659    4677    4686       9
    4659    4680    4692       9    4656    4638    4659      11    4653    4665
    4683      12    4647    4665    4653       5    4647    4665    4683      12
    4638    4656    4644       9    4638    4659    4677      11    4638    4659
    4680      11    4635    4632    4653      13    4632    4653    4665       5
    4629    4617    4632       5    4629    4647    4665       5    4626    4620
    4635      14    4626    4644    4656       5    4623    4614    4626       5
    4623    4638    4656       6    4623    4638    4659      11    4620    4626
    4644      15    4620    4635    4632      16    4617    4611    4620      17
    4617    4629    4647       5    4617    4632    4635      13    4617    4632
    4653       5    4614    4623    4638       9    4614    4626    4620      15
    4614    4626    4644       5    4611    4608    4614      18    4611    4617
    4629      19    4611    4617    4632      19    4611    4620    4626      20
    4611    4620    4635      21    4608    4611    4617      22    4608    4611
    4620      23    4608    4614    4623      13    4608    4614    4626      13
    4962    4965    4977       3    4947    4962    4965       3    4938    4947
    4962       3    4929    4938    4947       3    4920    4929    4938       3
    4908    4920    4929       3    4890    4908    4920       3    4878    4899
    4884       5    4875    4890    4908       3    4872    4884    4899       5
    4869    4851    4872       6    4869    4878    4899       5    4857    4875
    4890       7    4851    4869    4878       9    4851    4872    4884       9
    4848    4830    4851      11    4845    4857    4875      12    4839    4857
    4845       5    4839    4857    4875      12    4830    4848    4836       9
    4830    4851    4869      11    4830    4851    4872      11    4827    4824
    4845      13    4824    4845    4857       5    4821    4809    4824       5
    4821    4839    4857       5    4818    4812    4827      14    4818    4836
    4848       5    4815    4806    4818       5    4815    4830    4848       6
    4815    4830    4851      11    4812    4818    4836      15    4812    4827
    4824      16    4809    4803    4812      17    4809    4821    4839       5
    4809    4824    4827      13    4809    4824    4845       5    4806    4815
    4830       9    4806    4818    4812      15    4806    4818    4836       5
    4803    4800    4806      18    4803    4809    4821      19    4803    4809
    4824      19    4803    4812    4818      20    4803    4812    4827      21
    4800    4803    4809      22    4800    4803    4812      23    4800    4806
    4815      13    4800    4806    4818      13    5154    5157    5169       3
    5139    5154    5157       3    5130    5139    5154       3    5121    5130
    5139       3    5112    5121    5130       3    5100    5112    5121       3
    5082    5100    5112       3    5070    5091    5076       5    5067    5082
    5100       3    5064    5076    5091       5    5061    5043    5064       6
    5061    5070    5091       5    5049    5067    5082       7    5043    5061
    5070       9    5043    5064    5076       9    5040    5022    5043      11
    5037    5049    5067      12    5031    5049    5037       5    5031    5049
    5067      12    5022    5040    5028       9    5022    5043    5061      11
    5022    5043    5064      11    5019    5016    5037      13    5016    5037
    5049       5    5013    5001    5016       5    5013    5031    5049       5
    5010    5004    5019      14    5010    5028    5040       5    5007    4998
    5010       5    5007    5022    5040       6    5007    5022    5043      11
    5004    5010    5028      15    5004    5019    5016      16    5001    4995
    5004      17    5001    5013    5031       5    5001    5016    5019      13
    5001    5016    5037       5    4998    5007    5022       9    4998    5010
    5004      15    4998    5010    5028       5    4995    4992    4998      18
    4995    5001    5013      19    4995    5001    5016      19    4995    5004
    5010      20    4995    5004    5019      21    4992    4995    5001      22
    4992    4995    5004      23    4992    4998    5007      13    4992    4998
    5010      13    5346    5349    5361       3    5331    5346    5349       3
    5322    5331    5346       3    5313    5322    5331       3    5304    5313
    5322       3    5292    5304    5313       3    5274    5292    5304       3
    5262    5283    5268       5    5259    5274    5292       3    5256    5268
    5283       5    5253    5235    5256       6    5253    5262    5283       5
    5241    5259    5274       7    5235    5253    5262       9    5235    5256
    5268       9    5232    5214    5235      11    5229    5241    5259      12
    5223    5241    5229       5    5223    5241    5259      12    5214    5232
    5220       9    5214    5235    5253      11    5214    5235    5256      11
    5211    5208    5229      13    5208    5229    5241       5    5205    5193
    5208       5    5205    5223    5241       5    5202    5196    5211      14
    5202    5220    5232       5    5199    5190    5202       5    5199    5214
    5232       6    5199    5214    5235      11    5196    5202    5220      15
    5196    5211    5208      16    5193    5187    5196      17    5193    5205
    5223       5    5193    5208    5211      13    5193    5208    5229       5
    5190    5199    5214       9    5190    5202    5196      15    5190    5202
    5220       5    5187    5184    5190      18    5187    5193    5205      19
    5187    5193    5208      19    5187    5196    5202      20    5187    5196
    5211      21    5184    5187    5193      22    5184    5187    5196      23
    5184    5190    5199      13    5184    5190    5202      13    5538    5541
    5553       3    5523    5538    5541       3    5514    5523    5538       3
    5505    5514    5523       3    5496    5505    5514       3    5484    5496
    5505       3    5466    5484    5496       3    5454    5475    5460       5
    5451    5466    5484       3    5448    5460    5475       5    5445    5427
    5448       6    5445    5454    5475       5    5433    5451    5466       7
    5427    5445    5454       9    5427    5448    5460       9    5424    5406
    5427      11    5421    5433    5451      12    5415    5433    5421       5
    5415    5433    5451      12    5406    5424    5412       9    5406    5427
    5445      11    5406    5427    5448      11    5403    5400    5421      13
    5400    5421    5433       5    5397    5385    5400       5    5397    5415
    5433       5    5394    5388    5403      14    5394    5412    5424       5
    5391    5382    5394       5    5391    5406    5424       6    5391    5406
    5427      11    5388    5394    5412      15    5388    5403    5400      16
    5385    5379    5388      17    5385    5397    5415       5    5385    5400
    5403      13    5385    5400    5421       5    5382    5391    5406       9
    5382    5394    5388      15    5382    5394    5412       5    5379    5376
    5382      18    5379    5385    5397      19    5379    5385    5400      19
    5379    5388    5394      20    5379    5388    5403      21    5376    5379
    5385      22    5376    5379    5388      23    5376    5382    5391      13
    5376    5382    5394      13    5730    5733    5745       3    5715    5730
    5733       3    5706    5715    5730       3    5697    5706    5715       3
    5688    5697    5706       3    5676    5688    5697       3    5658    5676
    5688       3    5646    5667    5652       5    5643    5658    5676       3
    5640    5652    5667       5    5637    5619    5640       6    5637    5646
    5667       5    5625    5643    5658       7    5619    5637    5646       9
    5619    5640    5652       9    5616    5598    5619      11    5613    5625
    5643      12    5607    5625    5613       5    5607    5625    5643      12
    5598    5616    5604       9    5598    5619    5637      11    5598    5619
    5640      11    5595    5592    5613      13    5592    5613    5625       5
    5589    5577    5592       5    5589    5607    5625       5    5586    5580
    5595      14    5586    5604    5616       5    5583    5574    5586       5
    5583    5598    5616       6    5583    5598    5619      11    5580    5586
    5604      15    5580    5595    5592      16    5577    5571    5580      17
    5577    5589    5607       5    5577    5592    5595      13    5577    5592
    5613       5    5574    5583    5598       9    5574    5586    5580      15
    5574    5586    5604       5    5571    5568    5574      18    5571    5577
    5589      19    5571    5577    5592      19    5571    5580    5586      20
    5571    5580    5595      21    5568    5571    5577      22    5568    5571
    5580      23    5568    5574    5583      13    5568    5574    5586      13
    5922    5925    5937       3    5907    5922    5925       3    5898    5907
    5922       3    5889    5898    5907       3    5880    5889    5898       3
    5868    5880    5889       3    5850    5868    5880       3    5838    5859
    5844       5    5835    5850    5868       3    5832    5844    5859       5
    5829    5811    5832       6    5829    5838    5859       5    5817    5835
    5850       7    5811    5829    5838       9    5811    5832    5844       9
    5808    5790    5811      11    5805    5817    5835      12    5799    5817
    5805       5    5799    5817    5835      12    5790    5808    5796       9
    5790    5811    5829      11    5790    5811    5832      11    5787    5784
    5805      13    5784    5805    5817       5    5781    5769    5784       5
    5781    5799    5817       5    5778    5772    5787      14    5778    5796
    5808       5    5775    5766    5778       5    5775    5790    5808       6
    5775    5790    5811      11    5772    5778    5796      15    5772    5787
    5784      16    5769    5763    5772      17    5769    5781    5799       5
    5769    5784    5787      13    5769    5784    5805       5    5766    5775
    5790       9    5766    5778    5772      15    5766    5778    5796       5
    5763    5760    5766      18    5763    5769    5781      19    5763    5769
    5784      19    5763    5772    5778      20    5763    5772    5787      21
    5760    5763    5769      22    5760    5763    5772      23    5760    5766
    5775      13    5760    5766    5778      13    6114    6117    6129       3
    6099    6114    6117       3    6090    6099    6114       3    6081    6090
    6099       3    6072    6081    6090       3    6060    6072    6081       3
    6042    6060    6072       3    6030    6051    6036       5    6027    6042
    6060       3    6024    6036    6051       5    6021    6003    6024       6
    6021    6030    6051       5    6009    6027    6042       7    6003    6021
    6030       9    6003    6024    6036       9    6000    5982    6003      11
    5997    6009    6027      12    5991    6009    5997       5    5991    6009
    6027      12    5982    6000    5988       9    5982    6003    6021      11
    5982    6003    6024      11    5979    5976    5997      13    5976    5997
    6009       5    5973    5961    5976       5    5973    5991    6009       5
    5970    5964    5979      14    5970    5988    6000       5    5967    5958
    5970       5    5967    5982    6000       6    5967    5982    6003      11
    5964    5970    5988      15    5964    5979    5976      16    5961    5955
    5964      17    5961    5973    5991       5    5961    5976    5979      13
    5961    5976    5997       5    5958    5967    5982       9    5958    5970
    5964      15    5958    5970    5988       5    5955    5952    5958      18
    5955    5961    5973      19    5955    5961    5976      19    5955    5964
    5970      20    5955    5964    5979      21    5952    5955    5961      22
    5952    5955    5964      23    5952    5958    5967      13    5952    5958
    5970      13    6306    6309    6321       3    6291    6306    6309       3
    6282    6291    6306       3    6273    6282    6291       3    6264    6273
    6282       3    6252    6264    6273       3    6234    6252    6264       3
    6222    6243    6228       5    6219    6234    6252       3    6216    6228
    6243       5    6213    6195    6216       6    6213    6222    6243       5
    6201    6219    6234       7    6195    6213    6222       9    6195    6216
    6228       9    6192    6174    6195      11    6189    6201    6219      12
    6183    6201    6189       5    6183    6201    6219      12    6174    6192
    6180       9    6174    6195    6213      11    6174    6195    6216      11
    6171    6168    6189      13    6168    6189    6201       5    6165    6153
    6168       5    6165    6183    6201       5    6162    6156    6171      14
    6162    6180    6192       5    6159    6150    6162       5    6159    6174
    6192       6    6159    6174    6195      11    6156    6162    6180      15
    6156    6171    6168      16    6153    6147    6156      17    6153    6165
    6183       5    6153    6168    6171      13    6153    6168    6189       5
    6150    6159    6174       9    6150    6162    6156      15    6150    6162
    6180       5    6147    6144    6150      18    6147    6153    6165      19
    6147    6153    6168      19    6147    6156    6162      20    6147    6156
    6171      21    6144    6147    6153      22    6144    6147    6156      23
    6144    6150    6159      13    6144    6150    6162      13    6498    6501
    6513       3    6483    6498    6501       3    6474    6483    6498       3
    6465    6474    6483       3    6456    6465    6474       3    6444    6456
    6465       3    6426    6444    6456       3    6414    6435    6420       5
    6411    6426    6444       3    6408    6420    6435       5    6405    6387
    6408       6    6405    6414    6435       5    6393    6411    6426       7
    6387    6405    6414       9    6387    6408    6420       9    6384    6366
    6387      11    6381    6393    6411      12    6375    6393    6381       5
    6375    6393    6411      12    6366    6384    6372       9    6366    6387
    6405      11    6366    6387    6408      11    6363    6360    6381      13
    6360    6381    6393       5    6357    6345    6360       5    6357    6375
    6393       5    6354    6348    6363      14    6354    6372    6384       5
    6351    6342    6354       5    6351    6366    6384       6    6351    6366
    6387      11    6348    6354    6372      15    6348    6363    6360      16
    6345    6339    6348      17    6345    6357    6375       5    6345    6360
    6363      13    6345    6360    6381       5    6342    6351    6366       9
    6342    6354    6348      15    6342    6354    6372       5    6339    6336
    6342      18    6339    6345    6357      19    6339    6345    6360      19
    6339    6348    6354      20    6339    6348    6363      21    6336    6339
    6345      22    6336    6339    6348      23    6336    6342    6351      13
    6336    6342    6354      13    6690    6693    6705       3    6675    6690
    6693       3    6666    6675    6690       3    6657    6666    6675       3
    6648    6657    6666       3    6636    6648    6657       3    6618    6636
    6648       3    6606    6627    6612       5    6603    6618    6636       3
    6600    6612    6627       5    6597    6579    6600       6    6597    6606
    6627       5    6585    6603    6618       7    6579    6597    6606       9
    6579    6600    6612       9    6576    6558    6579      11    6573    6585
    6603      12    6567    6585    6573       5    6567    6585    6603      12
    6558    6576    6564       9    6558    6579    6597      11    6558    6579
    6600      11    6555    6552    6573      13    6552    6573    6585       5
    6549    6537    6552       5    6549    6567    6585       5    6546    6540
    6555      14    6546    6564    6576       5    6543    6534    6546       5
    6543    6558    6576       6    6543    6558    6579      11    6540    6546
    6564      15    6540    6555    6552      16    6537    6531    6540      17
    6537    6549    6567       5    6537    6552    6555      13    6537    6552
    6573       5    6534    6543    6558       9    6534    6546    6540      15
    6534    6546    6564       5    6531    6528    6534      18    6531    6537
    6549      19    6531    6537    6552      19    6531    6540    6546      20
    6531    6540    6555      21    6528    6531    6537      22    6528    6531
    6540      23    6528    6534    6543      13    6528    6534    6546      13
    6882    6885    6897       3    6867    6882    6885       3    6858    6867
    6882       3    6849    6858    6867       3    6840    6849    6858       3
    6828    6840    6849       3    6810    6828    6840       3    6798    6819
    6804       5    6795    6810    6828       3    6792    6804    6819       5
    6789    6771    6792       6    6789    6798    6819       5    6777    6795
    6810       7    6771    6789    6798       9    6771    6792    6804       9
    6768    6750    6771      11    6765    6777    6795      12    6759    6777
    6765       5    6759    6777    6795      12    6750    6768    6756       9
    6750    6771    6789      11    6750    6771    6792      11    6747    6744
    6765      13    6744    6765    6777       5    6741    6729    6744       5
    6741    6759    6777       5    6738    6732    6747      14    6738    6756
    6768       5    6735    6726    6738       5    6735    6750    6768       6
    6735    6750    6771      11    6732    6738    6756      15    6732    6747
    6744      16    6729    6723    6732      17    6729    6741    6759       5
    6729    6744    6747      13    6729    6744    6765       5    6726    6735
    6750       9    6726    6738    6732      15    6726    6738    6756       5
    6723    6720    6726      18    6723    6729    6741      19    6723    6729
    6744      19    6723    6732    6738      20    6723    6732    6747      21
    6720    6723    6729      22    6720    6723    6732      23    6720    6726
    6735      13    6720    6726    6738      13    7074    7077    7089       3
    7059    7074    7077       3    7050    7059    7074       3    7041    7050
    7059       3    7032    7041    7050       3    7020    7032    7041       3
    7002    7020    7032       3    6990    7011    6996       5    6987    7002
    7020       3    6984    6996    7011       5    6981    6963    6984       6
    6981    6990    7011       5    6969    6987    7002       7    6963    6981
    6990       9    6963    6984    6996       9    6960    6942    6963      11
    6957    6969    6987      12    6951    6969    6957       5    6951    6969
    6987      12    6942    6960    6948       9    6942    6963    6981      11
    6942    6963    6984      11    6939    6936    6957      13    6936    6957
    6969       5    6933    6921    6936       5    6933    6951    6969       5
    6930    6924    6939      14    6930    6948    6960       5    6927    6918
    6930       5    6927    6942    6960       6    6927    6942    6963      11
    6924    6930    6948      15    6924    6939    6936      16    6921    6915
    6924      17    6921    6933    6951       5    6921    6936    6939      13
    6921    6936    6957       5    6918    6927    6942       9    6918    6930
    6924      15    6918    6930    6948       5    6915    6912    6918      18
    6915    6921    6933      19    6915    6921    6936      19    6915    6924
    6930      20    6915    6924    6939      21    6912    6915    6921      22
    6912    6915    6924      23    6912    6918    6927      13    6912    6918
    6930      13    7266    7269    7281       3    7251    7266    7269       3
    7242    7251    7266       3    7233    7242    7251       3    7224    7233
    7242       3    7212    7224    7233       3    7194    7212    7224       3
    7182    7203    7188       5    7179    7194    7212       3    7176    7188
    7203       5    7173    7155    7176       6    7173    7182    7203       5
    7161    7179    7194       7    7155    7173    7182       9    7155    7176
    7188       9    7152    7134    7155      11    7149    7161    7179      12
    7143    7161    7149       5    7143    7161    7179      12    7134    7152
    7140       9    7134    7155    7173      11    7134    7155    7176      11
    7131    7128    7149      13    7128    7149    7161       5    7125    7113
    7128       5    7125    7143    7161       5    7122    7116    7131      14
    7122    7140    7152       5    7119    7110    7122       5    7119    7134
    7152       6    7119    7134    7155      11    7116    7122    7140      15
    7116    7131    7128      16    7113    7107    7116      17    7113    7125
    7143       5    7113    7128    7131      13    7113    7128    7149       5
    7110    7119    7134       9    7110    7122    7116      15    7110    7122
    7140       5    7107    7104    7110      18    7107    7113    7125      19
    7107    7113    7128      19    7107    7116    7122      20    7107    7116
    7131      21    7104    7107    7113      22    7104    7107    7116      23
    7104    7110    7119      13    7104    7110    7122      13    7458    7461
    7473       3    7443    7458    7461       3    7434    7443    7458       3
    7425    7434    7443       3    7416    7425    7434       3    7404    7416
    7425       3    7386    7404    7416       3    7374    7395    7380       5
    7371    7386    7404       3    7368    7380    7395       5    7365    7347
    7368       6    7365    7374    7395       5    7353    7371    7386       7
    7347    7365    7374       9    7347    7368    7380       9    7344    7326
    7347      11    7341    7353    7371      12    7335    7353    7341       5
    7335    7353    7371      12    7326    7344    7332       9    7326    7347
    7365      11    7326    7347    7368      11    7323    7320    7341      13
    7320    7341    7353       5    7317    7305    7320       5    7317    7335
    7353       5    7314    7308    7323      14    7314    7332    7344       5
    7311    7302    7314       5    7311    7326    7344       6    7311    7326
    7347      11    7308    7314    7332      15    7308    7323    7320      16
    7305    7299    7308      17    7305    7317    7335       5    7305    7320
    7323      13    7305    7320    7341       5    7302    7311    7326       9
    7302    7314    7308      15    7302    7314    7332       5    7299    7296
    7302      18    7299    7305    7317      19    7299    7305    7320      19
    7299    7308    7314      20    7299    7308    7323      21    7296    7299
    7305      22    7296    7299    7308      23    7296    7302    7311      13
    7296    7302    7314      13    7650    7653    7665       3    7635    7650
    7653       3    7626    7635    7650       3    7617    7626    7635       3
    7608    7617    7626       3    7596    7608    7617       3    7578    7596
    7608       3    7566    7587    7572       5    7563    7578    7596       3
    7560    7572    7587       5    7557    7539    7560       6    7557    7566
    7587       5    7545    7563    7578       7    7539    7557    7566       9
    7539    7560    7572       9    7536    7518    7539      11    7533    7545
    7563      12    7527    7545    7533       5    7527    7545    7563      12
    7518    7536    7524       9    7518    7539    7557      11    7518    7539
    7560      11    7515    7512    7533      13    7512    7533    7545       5
    7509    7497    7512       5    7509    7527    7545       5    7506    7500
    7515      14    7506    7524    7536       5    7503    7494    7506       5
    7503    7518    7536       6    7503    7518    7539      11    7500    7506
    7524      15    7500    7515    7512      16    7497    7491    7500      17
    7497    7509    7527       5    7497    7512    7515      13    7497    7512
    7533       5    7494    7503    7518       9    7494    7506    7500      15
    7494    7506    7524       5    7491    7488    7494      18    7491    7497
    7509      19    7491    7497    7512      19    7491    7500    7506      20
    7491    7500    7515      21    7488    7491    7497      22    7488    7491
    7500      23    7488    7494    7503      13    7488    7494    7506      13
    7842    7845    7857       3    7827    7842    7845       3    7818    7827
    7842       3    7809    7818    7827       3    7800    7809    7818       3
    7788    7800    7809       3    7770    7788    7800       3    7758    7779
    7764       5    7755    7770    7788       3    7752    7764    7779       5
    7749    7731    7752       6    7749    7758    7779       5    7737    7755
    7770       7    7731    7749    7758       9    7731    7752    7764       9
    7728    7710    7731      11    7725    7737    7755      12    7719    7737
    7725       5    7719    7737    7755      12    7710    7728    7716       9
    7710    7731    7749      11    7710    7731    7752      11    7707    7704
    7725      13    7704    7725    7737       5    7701    7689    7704       5
    7701    7719    7737       5    7698    7692    7707      14    7698    7716
    7728       5    7695    7686    7698       5    7695    7710    7728       6
    7695    7710    7731      11    7692    7698    7716      15    7692    7707
    7704      16    7689    7683    7692      17    7689    7701    7719       5
    7689    7704    7707      13    7689    7704    7725       5    7686    7695
    7710       9    7686    7698    7692      15    7686    7698    7716       5
    7683    7680    7686      18    7683    7689    7701      19    7683    7689
    7704      19    7683    7692    7698      20    7683    7692    7707      21
    7680    7683    7689      22    7680    7683    7692      23    7680    7686
    7695      13    7680    7686    7698      13    8034    8037    8049       3
    8019    8034    8037       3    8010    8019    8034       3    8001    8010
    8019       3    7992    8001    8010       3    7980    7992    8001       3
    7962    7980    7992       3    7950    7971    7956       5    7947    7962
    7980       3    7944    7956    7971       5    7941    7923    7944       6
    7941    7950    7971       5    7929    7947    7962       7    7923    7941
    7950       9    7923    7944    7956       9    7920    7902    7923      11
    7917    7929    7947      12    7911    7929    7917       5    7911    7929
    7947      12    7902    7920    7908       9    7902    7923    7941      11
    7902    7923    7944      11    7899    7896    7917      13    7896    7917
    7929       5    7893    7881    7896       5    7893    7911    7929       5
    7890    7884    7899      14    7890    7908    7920       5    7887    7878
    7890       5    7887    7902    7920       6    7887    7902    7923      11
    7884    7890    7908      15    7884    7899    7896      16    7881    7875
    7884      17    7881    7893    7911       5    7881    7896    7899      13
    7881    7896    7917       5    7878    7887    7902       9    7878    7890
    7884      15    7878    7890    7908       5    7875    7872    7878      18
    7875    7881    7893      19    7875    7881    7896      19    7875    7884
    7890      20    7875    7884    7899      21    7872    7875    7881      22
    7872    7875    7884      23    7872    7878    7887      13    7872    7878
    7890      13    8226    8229    8241       3    8211    8226    8229       3
    8202    8211    8226       3    8193    8202    8211       3    8184    8193
    8202       3    8172    8184    8193       3    8154    8172    8184       3
    8142    8163    8148       5    8139    8154    8172       3    8136    8148
    8163       5    8133    8115    8136       6    8133    8142    8163       5
    8121    8139    8154       7    8115    8133    8142       9    8115    8136
    8148       9    8112    8094    8115      11    8109    8121    8139      12
    8103    8121    8109       5    8103    8121    8139      12    8094    8112
    8100       9    8094    8115    8133      11    8094    8115    8136      11
    8091    8088    8109      13    8088    8109    8121       5    8085    8073
    8088       5    8085    8103    8121       5    8082    8076    8091      14
    8082    8100    8112       5    8079    8070    8082       5    8079    8094
    8112       6    8079    8094    8115      11    8076    8082    8100      15
    8076    8091    8088      16    8073    8067    8076      17    8073    8085
    8103       5    8073    8088    8091      13    8073    8088    8109       5
    8070    8079    8094       9    8070    8082    8076      15    8070    8082
    8100       5    8067    8064    8070      18    8067    8073    8085      19
    8067    8073    8088      19    8067    8076    8082      20    8067    8076
    8091      21    8064    8067    8073      22    8064    8067    8076      23
    8064    8070    8079      13    8064    8070    8082      13    8418    8421
    8433       3    8403    8418    8421       3    8394    8403    8418       3
    8385    8394    8403       3    8376    8385    8394       3    8364    8376
    8385       3    8346    8364    8376       3    8334    8355    8340       5
    8331    8346    8364       3    8328    8340    8355       5    8325    8307
    8328       6    8325    8334    8355       5    8313    8331    8346       7
    8307    8325    8334       9    8307    8328    8340       9    8304    8286
    8307      11    8301    8313    8331      12    8295    8313    8301       5
    8295    8313    8331      12    8286    8304    8292       9    8286    8307
    8325      11    8286    8307    8328      11    8283    8280    8301      13
    8280    8301    8313       5    8277    8265    8280       5    8277    8295
    8313       5    8274    8268    8283      14    8274    8292    8304       5
    8271    8262    8274       5    8271    8286    8304       6    8271    8286
    8307      11    8268    8274    8292      15    8268    8283    8280      16
    8265    8259    8268      17    8265    8277    8295       5    8265    8280
    8283      13    8265    8280    8301       5    8262    8271    8286       9
    8262    8274    8268      15    8262    8274    8292       5    8259    8256
    8262      18    8259    8265    8277      19    8259    8265    8280      19
    8259    8268    8274      20    8259    8268    8283      21    8256    8259
    8265      22    8256    8259    8268      23    8256    8262    8271      13
    8256    8262    8274      13    8610    8613    8625       3    8595    8610
    8613       3    8586    8595    8610       3    8577    8586    8595       3
    8568    8577    8586       3    8556    8568    8577       3    8538    8556
    8568       3    8526    8547    8532       5    8523    8538    8556       3
    8520    8532    8547       5    8517    8499    8520       6    8517    8526
    8547       5    8505    8523    8538       7    8499    8517    8526       9
    8499    8520    8532       9    8496    8478    8499      11    8493    8505
    8523      12    8487    8505    8493       5    8487    8505    8523      12
    8478    8496    8484       9    8478    8499    8517      11    8478    8499
    8520      11    8475    8472    8493      13    8472    8493    8505       5
    8469    8457    8472       5    8469    8487    8505       5    8466    8460
    8475      14    8466    8484    8496       5    8463    8454    8466       5
    8463    8478    8496       6    8463    8478    8499      11    8460    8466
    8484      15    8460    8475    8472      16    8457    8451    8460      17
    8457    8469    8487       5    8457    8472    8475      13    8457    8472
    8493       5    8454    8463    8478       9    8454    8466    8460      15
    8454    8466    8484       5    8451    8448    8454      18    8451    8457
    8469      19    8451    8457    8472      19    8451    8460    8466      20
    8451    8460    8475      21    8448    8451    8457      22    8448    8451
    8460      23    8448    8454    8463      13    8448    8454    8466      13
    8802    8805    8817       3    8787    8802    8805       3    8778    8787
    8802       3    8769    8778    8787       3    8760    8769    8778       3
    8748    8760    8769       3    8730    8748    8760       3    8718    8739
    8724       5    8715    8730    8748       3    8712    8724    8739       5
    8709    8691    8712       6    8709    8718    8739       5    8697    8715
    8730       7    8691    8709    8718       9    8691    8712    8724       9
    8688    8670    8691      11    8685    8697    8715      12    8679    8697
    8685       5    8679    8697    8715      12    8670    8688    8676       9
    8670    8691    8709      11    8670    8691    8712      11    8667    8664
    8685      13    8664    8685    8697       5    8661    8649    8664       5
    8661    8679    8697       5    8658    8652    8667      14    8658    8676
    8688       5    8655    8646    8658       5    8655    8670    8688       6
    8655    8670    8691      11    8652    8658    8676      15    8652    8667
    8664      16    8649    8643    8652      17    8649    8661    8679       5
    8649    8664    8667      13    8649    8664    8685       5    8646    8655
    8670       9    8646    8658    8652      15    8646    8658    8676       5
    8643    8640    8646      18    8643    8649    8661      19    8643    8649
    8664      19    8643    8652    8658      20    8643    8652    8667      21
    8640    8643    8649      22    8640    8643    8652      23    8640    8646
    8655      13    8640    8646    8658      13    8994    8997    9009       3
    8979    8994    8997       3    8970    8979    8994       3    8961    8970
    8979       3    8952    8961    8970       3    8940    8952    8961       3
    8922    8940    8952       3    8910    8931    8916       5    8907    8922
    8940       3    8904    8916    8931       5    8901    8883    8904       6
    8901    8910    8931       5    8889    8907    8922       7    8883    8901
    8910       9    8883    8904    8916       9    8880    8862    8883      11
    8877    8889    8907      12    8871    8889    8877       5    8871    8889
    8907      12    8862    8880    8868       9    8862    8883    8901      11
    8862    8883    8904      11    8859    8856    8877      13    8856    8877
    8889       5    8853    8841    8856       5    8853    8871    8889       5
    8850    8844    8859      14    8850    8868    8880       5    8847    8838
    8850       5    8847    8862    8880       6    8847    8862    8883      11
    8844    8850    8868      15    8844    8859    8856      16    8841    8835
    8844      17    8841    8853    8871       5    8841    8856    8859      13
    8841    8856    8877       5    8838    8847    8862       9    8838    8850
    8844      15    8838    8850    8868       5    8835    8832    8838      18
    8835    8841    8853      19    8835    8841    8856      19    8835    8844
    8850      20    8835    8844    8859      21    8832    8835    8841      22
    8832    8835    8844      23    8832    8838    8847      13    8832    8838
    8850      13    9186    9189    9201       3    9171    9186    9189       3
    9162    9171    9186       3    9153    9162    9171       3    9144    9153
    9162       3    9132    9144    9153       3    9114    9132    9144       3
    9102    9123    9108       5    9099    9114    9132       3    9096    9108
    9123       5    9093    9075    9096       6    9093    9102    9123       5
    9081    9099    9114       7    9075    9093    9102       9    9075    9096
    9108       9    9072    9054    9075      11    9069    9081    9099      12
    9063    9081    9069       5    9063    9081    9099      12    9054    9072
    9060       9    9054    9075    9093      11    9054    9075    9096      11
    9051    9048    9069      13    9048    9069    9081       5    9045    9033
    9048       5    9045    9063    9081       5    9042    9036    9051      14
    9042    9060    9072       5    9039    9030    9042       5    9039    9054
    9072       6    9039    9054    9075      11    9036    9042    9060      15
    9036    9051    9048      16    9033    9027    9036      17    9033    9045
    9063       5    9033    9048    9051      13    9033    9048    9069       5
    9030    9039    9054       9    9030    9042    9036      15    9030    9042
    9060       5    9027    9024    9030      18    9027    9033    9045      19
    9027    9033    9048      19    9027    9036    9042      20    9027    9036
    9051      21    9024    9027    9033      22    9024    9027    9036      23
    9024    9030    9039      13    9024    9030    9042      13    9378    9381
    9393       3    9363    9378    9381       3    9354    9363    9378       3
    9345    9354    9363       3    9336    9345    9354       3    9324    9336
    9345       3    9306    9324    9336       3    9294    9315    9300       5
    9291    9306    9324       3    9288    9300    9315       5    9285    9267
    9288       6    9285    9294    9315       5    9273    9291    9306       7
    9267    9285    9294       9    9267    9288    9300       9    9264    9246
    9267      11    9261    9273    9291      12    9255    9273    9261       5
    9255    9273    9291      12    9246    9264    9252       9    9246    9267
    9285      11    9246    9267    9288      11    9243    9240    9261      13
    9240    9261    9273       5    9237    9225    9240       5    9237    9255
    9273       5    9234    9228    9243      14    9234    9252    9264       5
    9231    9222    9234       5    9231    9246    9264       6    9231    9246
    9267      11    9228    9234    9252      15    9228    9243    9240      16
    9225    9219    9228      17    9225    9237    9255       5    9225    9240
    9243      13    9225    9240    9261       5    9222    9231    9246       9
    9222    9234    9228      15    9222    9234    9252       5    9219    9216
    9222      18    9219    9225    9237      19    9219    9225    9240      19
    9219    9228    9234      20    9219    9228    9243      21    9216    9219
    9225      22    9216    9219    9228      23    9216    9222    9231      13
    9216    9222    9234      13    9570    9573    9585       3    9555    9570
    9573       3    9546    9555    9570       3    9537    9546    9555       3
    9528    9537    9546       3    9516    9528    9537       3    9498    9516
    9528       3    9486    9507    9492       5    9483    9498    9516       3
    9480    9492    9507       5    9477    9459    9480       6    9477    9486
    9507       5    9465    9483    9498       7    9459    9477    9486       9
    9459    9480    9492       9    9456    9438    9459      11    9453    9465
    9483      12    9447    9465    9453       5    9447    9465    9483      12
    9438    9456    9444       9    9438    9459    9477      11    9438    9459
    9480      11    9435    9432    9453      13    9432    9453    9465       5
    9429    9417    9432       5    9429    9447    9465       5    9426    9420
    9435      14    9426    9444    9456       5    9423    9414    9426       5
    9423    9438    9456       6    9423    9438    9459      11    9420    9426
    9444      15    9420    9435    9432      16    9417    9411    9420      17
    9417    9429    9447       5    9417    9432    9435      13    9417    9432
    9453       5    9414    9423    9438       9    9414    9426    9420      15
    9414    9426    9444       5    9411    9408    9414      18    9411    9417
    9429      19    9411    9417    9432      19    9411    9420    9426      20
    9411    9420    9435      21    9408    9411    9417      22    9408    9411
    9420      23    9408    9414    9423      13    9408    9414    9426      13
    9762    9765    9777       3    9747    9762    9765       3    9738    9747
    9762       3    9729    9738    9747       3    9720    9729    9738       3
    9708    9720    9729       3    9690    9708    9720       3    9678    9699
    9684       5    9675    9690    9708       3    9672    9684    9699       5
    9669    9651    9672       6    9669    9678    9699       5    9657    9675
    9690       7    9651    9669    9678       9    9651    9672    9684       9
    9648    9630    9651      11    9645    9657    9675      12    9639    9657
    9645       5    9639    9657    9675      12    9630    9648    9636       9
    9630    9651    9669      11    9630    9651    9672      11    9627    9624
    9645      13    9624    9645    9657       5    9621    9609    9624       5
    9621    9639    9657       5    9618    9612    9627      14    9618    9636
    9648       5    9615    9606    9618       5    9615    9630    9648       6
    9615    9630    9651      11    9612    9618    9636      15    9612    9627
    9624      16    9609    9603    9612      17    9609    9621    9639       5
    9609    9624    9627      13    9609    9624    9645       5    9606    9615
    9630       9    9606    9618    9612      15    9606    9618    9636       5
    9603    9600    9606      18    9603    9609    9621      19    9603    9609
    9624      19    9603    9612    9618      20    9603    9612    9627      21
    9600    9603    9609      22    9600    9603    9612      23    9600    9606
    9615      13    9600    9606    9618      13    9954    9957    9969       3
    9939    9954    9957       3    9930    9939    9954       3    9921    9930
    9939       3    9912    9921    9930       3    9900    9912    9921       3
    9882    9900    9912       3    9870    9891    9876       5    9867    9882
    9900       3    9864    9876    9891       5    9861    9843    9864       6
    9861    9870    9891       5    9849    9867    9882       7    9843    9861
    9870       9    9843    9864    9876       9    9840    9822    9843      11
    9837    9849    9867      12    9831    9849    9837       5    9831    9849
    9867      12    9822    9840    9828       9    9822    9843    9861      11
    9822    9843    9864      11    9819    9816    9837      13    9816    9837
    9849       5    9813    9801    9816       5    9813    9831    9849       5
    9810    9804    9819      14    9810    9828    9840       5    9807    9798
    9810       5    9807    9822    9840       6    9807    9822    9843      11
    9804    9810    9828      15    9804    9819    9816      16    9801    9795
    9804      17    9801    9813    9831       5    9801    9816    9819      13
    9801    9816    9837       5    9798    9807    9822       9    9798    9810
    9804      15    9798    9810    9828       5    9795    9792    9798      18
    9795    9801    9813      19    9795    9801    9816      19    9795    9804
    9810      20    9795    9804    9819      21    9792    9795    9801      22
    9792    9795    9804      23    9792    9798    9807      13    9792    9798
    9810      13   10146   10149   10161       3   10131   10146   10149       3
   10122   10131   10146       3   10113   10122   10131       3   10104   10113
   10122       3   10092   10104   10113       3   10074   10092   10104       3
   10062   10083   10068       5   10059   10074   10092       3   10056   10068
   10083       5   10053   10035   10056       6   10053   10062   10083       5
   10041   10059   10074       7   10035   10053   10062       9   10035   10056
   10068       9   10032   10014   10035      11   10029   10041   10059      12
   10023   10041   10029       5   10023   10041   10059      12   10014   10032
   10020       9   10014   10035   10053      11   10014   10035   10056      11
   10011   10008   10029      13   10008   10029   10041       5   10005    9993
   10008       5   10005   10023   10041       5   10002    9996   10011      14
   10002   10020   10032       5    9999    9990   10002       5    9999   10014
   10032       6    9999   10014   10035      11    9996   10002   10020      15
    9996   10011   10008      16    9993    9987    9996      17    9993   10005
   10023       5    9993   10008   10011      13    9993   10008   10029       5
    9990    9999   10014       9    9990   10002    9996      15    9990   10002
   10020       5    9987    9984    9990      18    9987    9993   10005      19
    9987    9993   10008      19    9987    9996   10002      20    9987    9996
   10011      21    9984    9987    9993      22    9984    9987    9996      23
    9984    9990    9999      13    9984    9990   10002      13   10338   10341
   10353       3   10323   10338   10341       3   10314   10323   10338       3
   10305   10314   10323       3   10296   10305   10314       3   10284   10296
   10305       3   10266   10284   10296       3   10254   10275   10260       5
   10251   10266   10284       3   10248   10260   10275       5   10245   10227
   10248       6   10245   10254   10275       5   10233   10251   10266       7
   10227   10245   10254       9   10227   10248   10260       9   10224   10206
   10227      11   10221   10233   10251      12   10215   10233   10221       5
   10215   10233   10251      12   10206   10224   10212       9   10206   10227
   10245      11   10206   10227   10248      11   10203   10200   10221      13
   10200   10221   10233       5   10197   10185   10200       5   10197   10215
   10233       5   10194   10188   10203      14   10194   10212   10224       5
   10191   10182   10194       5   10191   10206   10224       6   10191   10206
   10227      11   10188   10194   10212      15   10188   10203   10200      16
   10185   10179   10188      17   10185   10197   10215       5   10185   10200
   10203      13   10185   10200   10221       5   10182   10191   10206       9
   10182   10194   10188      15   10182   10194   10212       5   10179   10176
   10182      18   10179   10185   10197      19   10179   10185   10200      19
   10179   10188   10194      20   10179   10188   10203      21   10176   10179
   10185      22   10176   10179   10188      23   10176   10182   10191      13
   10176   10182   10194      13   10530   10533   10545       3   10515   10530
   10533       3   10506   10515   10530       3   10497   10506   10515       3
   10488   10497   10506       3   10476   10488   10497       3   10458   10476
   10488       3   10446   10467   10452       5   10443   10458   10476       3
   10440   10452   10467       5   10437   10419   10440       6   10437   10446
   10467       5   10425   10443   10458       7   10419   10437   10446       9
   10419   10440   10452       9   10416   10398   10419      11   10413   10425
   10443      12   10407   10425   10413       5   10407   10425   10443      12
   10398   10416   10404       9   10398   10419   10437      11   10398   10419
   10440      11   10395   10392   10413      13   10392   10413   10425       5
   10389   10377   10392       5   10389   10407   10425       5   10386   10380
   10395      14   10386   10404   10416       5   10383   10374   10386       5
   10383   10398   10416       6   10383   10398   10419      11   10380   10386
   10404      15   10380   10395   10392      16   10377   10371   10380      17
   10377   10389   10407       5   10377   10392   10395      13   10377   10392
   10413       5   10374   10383   10398       9   10374   10386   10380      15
   10374   10386   10404       5   10371   10368   10374      18   10371   10377
   10389      19   10371   10377   10392      19   10371   10380   10386      20
   10371   10380   10395      21   10368   10371   10377      22   10368   10371
   10380      23   10368   10374   10383      13   10368   10374   10386      13
   10722   10725   10737       3   10707   10722   10725       3   10698   10707
   10722       3   10689   10698   10707       3   10680   10689   10698       3
   10668   10680   10689       3   10650   10668   10680       3   10638   10659
   10644       5   10635   10650   10668       3   10632   10644   10659       5
   10629   10611   10632       6   10629   10638   10659       5   10617   10635
   10650       7   10611   10629   10638       9   10611   10632   10644       9
   10608   10590   10611      11   10605   10617   10635      12   10599   10617
   10605       5   10599   10617   10635      12   10590   10608   10596       9
   10590   10611   10629      11   10590   10611   10632      11   10587   10584
   10605      13   10584   10605   10617       5   10581   10569   10584       5
   10581   10599   10617       5   10578   10572   10587      14   10578   10596
   10608       5   10575   10566   10578       5   10575   10590   10608       6
   10575   10590   10611      11   10572   10578   10596      15   10572   10587
   10584      16   10569   10563   10572      17   10569   10581   10599       5
   10569   10584   10587      13   10569   10584   10605       5   10566   10575
   10590       9   10566   10578   10572      15   10566   10578   10596       5
   10563   10560   10566      18   10563   10569   10581      19   10563   10569
   10584      19   10563   10572   10578      20   10563   10572   10587      21
   10560   10563   10569      22   10560   10563   10572      23   10560   10566
   10575      13   10560   10566   10578      13   10914   10917   10929       3
   10899   10914   10917       3   10890   10899   10914       3   10881   10890
   10899       3   10872   10881   10890       3   10860   10872   10881       3
   10842   10860   10872       3   10830   10851   10836       5   10827   10842
   10860       3   10824   10836   10851       5   10821   10803   10824       6
   10821   10830   10851       5   10809   10827   10842       7   10803   10821
   10830       9   10803   10824   10836       9   10800   10782   10803      11
   10797   10809   10827      12   10791   10809   10797       5   10791   10809
   10827      12   10782   10800   10788       9   10782   10803   10821      11
   10782   10803   10824      11   10779   10776   10797      13   10776   10797
   10809       5   10773   10761   10776       5   10773   10791   10809       5
   10770   10764   10779      14   10770   10788   10800       5   10767   10758
   10770       5   10767   10782   10800       6   10767   10782   10803      11
   10764   10770   10788      15   10764   10779   10776      16   10761   10755
   10764      17   10761   10773   10791       5   10761   10776   10779      13
   10761   10776   10797       5   10758   10767   10782       9   10758   10770
   10764      15   10758   10770   10788       5   10755   10752   10758      18
   10755   10761   10773      19   10755   10761   10776      19   10755   10764
   10770      20   10755   10764   10779      21   10752   10755   10761      22
   10752   10755   10764      23   10752   10758   10767      13   10752   10758
   10770      13   11106   11109   11121       3   11091   11106   11109       3
   11082   11091   11106       3   11073   11082   11091       3   11064   11073
   11082       3   11052   11064   11073       3   11034   11052   11064       3
   11022   11043   11028       5   11019   11034   11052       3   11016   11028
   11043       5   11013   10995   11016       6   11013   11022   11043       5
   11001   11019   11034       7   10995   11013   11022       9   10995   11016
   11028       9   10992   10974   10995      11   10989   11001   11019      12
   10983   11001   10989       5   10983   11001   11019      12   10974   10992
   10980       9   10974   10995   11013      11   10974   10995   11016      11
   10971   10968   10989      13   10968   10989   11001       5   10965   10953
   10968       5   10965   10983   11001       5   10962   10956   10971      14
   10962   10980   10992       5   10959   10950   10962       5   10959   10974
   10992       6   10959   10974   10995      11   10956   10962   10980      15
   10956   10971   10968      16   10953   10947   10956      17   10953   10965
   10983       5   10953   10968   10971      13   10953   10968   10989       5
   10950   10959   10974       9   10950   10962   10956      15   10950   10962
   10980       5   10947   10944   10950      18   10947   10953   10965      19
   10947   10953   10968      19   10947   10956   10962      20   10947   10956
   10971      21   10944   10947   10953      22   10944   10947   10956      23
   10944   10950   10959      13   10944   10950   10962      13   11298   11301
   11313       3   11283   11298   11301       3   11274   11283   11298       3
   11265   11274   11283       3   11256   11265   11274       3   11244   11256
   11265       3   11226   11244   11256       3   11214   11235   11220       5
   11211   11226   11244       3   11208   11220   11235       5   11205   11187
   11208       6   11205   11214   11235       5   11193   11211   11226       7
   11187   11205   11214       9   11187   11208   11220       9   11184   11166
   11187      11   11181   11193   11211      12   11175   11193   11181       5
   11175   11193   11211      12   11166   11184   11172       9   11166   11187
   11205      11   11166   11187   11208      11   11163   11160   11181      13
   11160   11181   11193       5   11157   11145   11160       5   11157   11175
   11193       5   11154   11148   11163      14   11154   11172   11184       5
   11151   11142   11154       5   11151   11166   11184       6   11151   11166
   11187      11   11148   11154   11172      15   11148   11163   11160      16
   11145   11139   11148      17   11145   11157   11175       5   11145   11160
   11163      13   11145   11160   11181       5   11142   11151   11166       9
   11142   11154   11148      15   11142   11154   11172       5   11139   11136
   11142      18   11139   11145   11157      19   11139   11145   11160      19
   11139   11148   11154      20   11139   11148   11163      21   11136   11139
   11145      22   11136   11139   11148      23   11136   11142   11151      13
   11136   11142   11154      13   11490   11493   11505       3   11475   11490
   11493       3   11466   11475   11490       3   11457   11466   11475       3
   11448   11457   11466       3   11436   11448   11457       3   11418   11436
   11448       3   11406   11427   11412       5   11403   11418   11436       3
   11400   11412   11427       5   11397   11379   11400       6   11397   11406
   11427       5   11385   11403   11418       7   11379   11397   11406       9
   11379   11400   11412       9   11376   11358   11379      11   11373   11385
   11403      12   11367   11385   11373       5   11367   11385   11403      12
   11358   11376   11364       9   11358   11379   11397      11   11358   11379
   11400      11   11355   11352   11373      13   11352   11373   11385       5
   11349   11337   11352       5   11349   11367   11385       5   11346   11340
   11355      14   11346   11364   11376       5   11343   11334   11346       5
   11343   11358   11376       6   11343   11358   11379      11   11340   11346
   11364      15   11340   11355   11352      16   11337   11331   11340      17
   11337   11349   11367       5   11337   11352   11355      13   11337   11352
   11373       5   11334   11343   11358       9   11334   11346   11340      15
   11334   11346   11364       5   11331   11328   11334      18   11331   11337
   11349      19   11331   11337   11352      19   11331   11340   11346      20
   11331   11340   11355      21   11328   11331   11337      22   11328   11331
   11340      23   11328   11334   11343      13   11328   11334   11346      13
   11682   11685   11697       3   11667   11682   11685       3   11658   11667
   11682       3   11649   11658   11667       3   11640   11649   11658       3
   11628   11640   11649       3   11610   11628   11640       3   11598   11619
   11604       5   11595   11610   11628       3   11592   11604   11619       5
   11589   11571   11592       6   11589   11598   11619       5   11577   11595
   11610       7   11571   11589   11598       9   11571   11592   11604       9
   11568   11550   11571      11   11565   11577   11595      12   11559   11577
   11565       5   11559   11577   11595      12   11550   11568   11556       9
   11550   11571   11589      11   11550   11571   11592      11   11547   11544
   11565      13   11544   11565   11577       5   11541   11529   11544       5
   11541   11559   11577       5   11538   11532   11547      14   11538   11556
   11568       5   11535   11526   11538       5   11535   11550   11568       6
   11535   11550   11571      11   11532   11538   11556      15   11532   11547
   11544      16   11529   11523   11532      17   11529   11541   11559       5
   11529   11544   11547      13   11529   11544   11565       5   11526   11535
   11550       9   11526   11538   11532      15   11526   11538   11556       5
   11523   11520   11526      18   11523   11529   11541      19   11523   11529
   11544      19   11523   11532   11538      20   11523   11532   11547      21
   11520   11523   11529      22   11520   11523   11532      23   11520   11526
   11535      13   11520   11526   11538      13   11874   11877   11889       3
   11859   11874   11877       3   11850   11859   11874       3   11841   11850
   11859       3   11832   11841   11850       3   11820   11832   11841       3
   11802   11820   11832       3   11790   11811   11796       5   11787   11802
   11820       3   11784   11796   11811       5   11781   11763   11784       6
   11781   11790   11811       5   11769   11787   11802       7   11763   11781
   11790       9   11763   11784   11796       9   11760   11742   11763      11
   11757   11769   11787      12   11751   11769   11757       5   11751   11769
   11787      12   11742   11760   11748       9   11742   11763   11781      11
   11742   11763   11784      11   11739   11736   11757      13   11736   11757
   11769       5   11733   11721   11736       5   11733   11751   11769       5
   11730   11724   11739      14   11730   11748   11760       5   11727   11718
   11730       5   11727   11742   11760       6   11727   11742   11763      11
   11724   11730   11748      15   11724   11739   11736      16   11721   11715
   11724      17   11721   11733   11751       5   11721   11736   11739      13
   11721   11736   11757       5   11718   11727   11742       9   11718   11730
   11724      15   11718   11730   11748       5   11715   11712   11718      18
   11715   11721   11733      19   11715   11721   11736      19   11715   11724
   11730      20   11715   11724   11739      21   11712   11715   11721      22
   11712   11715   11724      23   11712   11718   11727      13   11712   11718
   11730      13   12066   12069   12081       3   12051   12066   12069       3
   12042   12051   12066       3   12033   12042   12051       3   12024   12033
   12042       3   12012   12024   12033       3   11994   12012   12024       3
   11982   12003   11988       5   11979   11994   12012       3   11976   11988
   12003       5   11973   11955   11976       6   11973   11982   12003       5
   11961   11979   11994       7   11955   11973   11982       9   11955   11976
   11988       9   11952   11934   11955      11   11949   11961   11979      12
   11943   11961   11949       5   11943   11961   11979      12   11934   11952
   11940       9   11934   11955   11973      11   11934   11955   11976      11
   11931   11928   11949      13   11928   11949   11961       5   11925   11913
   11928       5   11925   11943   11961       5   11922   11916   11931      14
   11922   11940   11952       5   11919   11910   11922       5   11919   11934
   11952       6   11919   11934   11955      11   11916   11922   11940      15
   11916   11931   11928      16   11913   11907   11916      17   11913   11925
   11943       5   11913   11928   11931      13   11913   11928   11949       5
   11910   11919   11934       9   11910   11922   11916      15   11910   11922
   11940       5   11907   11904   11910      18   11907   11913   11925      19
   11907   11913   11928      19   11907   11916   11922      20   11907   11916
   11931      21   11904   11907   11913      22   11904   11907   11916      23
   11904   11910   11919      13   11904   11910   11922      13   12258   12261
   12273       3   12243   12258   12261       3   12234   12243   12258       3
   12225   12234   12243       3   12216   12225   12234       3   12204   12216
   12225       3   12186   12204   12216       3   12174   12195   12180       5
   12171   12186   12204       3   12168   12180   12195       5   12165   12147
   12168       6   12165   12174   12195       5   12153   12171   12186       7
   12147   12165   12174       9   12147   12168   12180       9   12144   12126
   12147      11   12141   12153   12171      12   12135   12153   12141       5
   12135   12153   12171      12   12126   12144   12132       9   12126   12147
   12165      11   12126   12147   12168      11   12123   12120   12141      13
   12120   12141   12153       5   12117   12105   12120       5   12117   12135
   12153       5   12114   12108   12123      14   12114   12132   12144       5
   12111   12102   12114       5   12111   12126   12144       6   12111   12126
   12147      11   12108   12114   12132      15   12108   12123   12120      16
   12105   12099   12108      17   12105   12117   12135       5   12105   12120
   12123      13   12105   12120   12141       5   12102   12111   12126       9
   12102   12114   12108      15   12102   12114   12132       5   12099   12096
   12102      18   12099   12105   12117      19   12099   12105   12120      19
   12099   12108   12114      20   12099   12108   12123      21   12096   12099
   12105      22   12096   12099   12108      23   12096   12102   12111      13
   12096   12102   12114      13   12450   12453   12465       3   12435   12450
   12453       3   12426   12435   12450       3   12417   12426   12435       3
   12408   12417   12426       3   12396   12408   12417       3   12378   12396
   12408       3   12366   12387   12372       5   12363   12378   12396       3
   12360   12372   12387       5   12357   12339   12360       6   12357   12366
   12387       5   12345   12363   12378       7   12339   12357   12366       9
   12339   12360   12372       9   12336   12318   12339      11   12333   12345
   12363      12   12327   12345   12333       5   12327   12345   12363      12
   12318   12336   12324       9   12318   12339   12357      11   12318   12339
   12360      11   12315   12312   12333      13   12312   12333   12345       5
   12309   12297   12312       5   12309   12327   12345       5   12306   12300
   12315      14   12306   12324   12336       5   12303   12294   12306       5
   12303   12318   12336       6   12303   12318   12339      11   12300   12306
   12324      15   12300   12315   12312      16   12297   12291   12300      17
   12297   12309   12327       5   12297   12312   12315      13   12297   12312
   12333       5   12294   12303   12318       9   12294   12306   12300      15
   12294   12306   12324       5   12291   12288   12294      18   12291   12297
   12309      19   12291   12297   12312      19   12291   12300   12306      20
   12291   12300   12315      21   12288   12291   12297      22   12288   12291
   12300      23   12288   12294   12303      13   12288   12294   12306      13
   12642   12645   12657       3   12627   12642   12645       3   12618   12627
   12642       3   12609   12618   12627       3   12600   12609   12618       3
   12588   12600   12609       3   12570   12588   12600       3   12558   12579
   12564       5   12555   12570   12588       3   12552   12564   12579       5
   12549   12531   12552       6   12549   12558   12579       5   12537   12555
   12570       7   12531   12549   12558       9   12531   12552   12564       9
   12528   12510   12531      11   12525   12537   12555      12   12519   12537
   12525       5   12519   12537   12555      12   12510   12528   12516       9
   12510   12531   12549      11   12510   12531   12552      11   12507   12504
   12525      13   12504   12525   12537       5   12501   12489   12504       5
   12501   12519   12537       5   12498   12492   12507      14   12498   12516
   12528       5   12495   12486   12498       5   12495   12510   12528       6
   12495   12510   12531      11   12492   12498   12516      15   12492   12507
   12504      16   12489   12483   12492      17   12489   12501   12519       5
   12489   12504   12507      13   12489   12504   12525       5   12486   12495
   12510       9   12486   12498   12492      15   12486   12498   12516       5
   12483   12480   12486      18   12483   12489   12501      19   12483   12489
   12504      19   12483   12492   12498      20   12483   12492   12507      21
   12480   12483   12489      22   12480   12483   12492      23   12480   12486
   12495      13   12480   12486   12498      13   12834   12837   12849       3
   12819   12834   12837       3   12810   12819   12834       3   12801   12810
   12819       3   12792   12801   12810       3   12780   12792   12801       3
   12762   12780   12792       3   12750   12771   12756       5   12747   12762
   12780       3   12744   12756   12771       5   12741   12723   12744       6
   12741   12750   12771       5   12729   12747   12762       7   12723   12741
   12750       9   12723   12744   12756       9   12720   12702   12723      11
   12717   12729   12747      12   12711   12729   12717       5   12711   12729
   12747      12   12702   12720   12708       9   12702   12723   12741      11
   12702   12723   12744      11   12699   12696   12717      13   12696   12717
   12729       5   12693   12681   12696       5   12693   12711   12729       5
   12690   12684   12699      14   12690   12708   12720       5   12687   12678
   12690       5   12687   12702   12720       6   12687   12702   12723      11
   12684   12690   12708      15   12684   12699   12696      16   12681   12675
   12684      17   12681   12693   12711       5   12681   12696   12699      13
   12681   12696   12717       5   12678   12687   12702       9   12678   12690
   12684      15   12678   12690   12708       5   12675   12672   12678      18
   12675   12681   12693      19   12675   12681   12696      19   12675   12684
   12690      20   12675   12684   12699      21   12672   12675   12681      22
   12672   12675   12684      23   12672   12678   12687      13   12672   12678
   12690      13   13026   13029   13041       3   13011   13026   13029       3
   13002   13011   13026       3   12993   13002   13011       3   12984   12993
   13002       3   12972   12984   12993       3   12954   12972   12984       3
   12942   12963   12948       5   12939   12954   12972       3   12936   12948
   12963       5   12933   12915   12936       6   12933   12942   12963       5
   12921   12939   12954       7   12915   12933   12942       9   12915   12936
   12948       9   12912   12894   12915      11   12909   12921   12939      12
   12903   12921   12909       5   12903   12921   12939      12   12894   12912
   12900       9   12894   12915   12933      11   12894   12915   12936      11
   12891   12888   12909      13   12888   12909   12921       5   12885   12873
   12888       5   12885   12903   12921       5   12882   12876   12891      14
   12882   12900   12912       5   12879   12870   12882       5   12879   12894
   12912       6   12879   12894   12915      11   12876   12882   12900      15
   12876   12891   12888      16   12873   12867   12876      17   12873   12885
   12903       5   12873   12888   12891      13   12873   12888   12909       5
   12870   12879   12894       9   12870   12882   12876      15   12870   12882
   12900       5   12867   12864   12870      18   12867   12873   12885      19
   12867   12873   12888      19   12867   12876   12882      20   12867   12876
   12891      21   12864   12867   12873      22   12864   12867   12876      23
   12864   12870   12879      13   12864   12870   12882      13   13218   13221
   13233       3   13203   13218   13221       3   13194   13203   13218       3
   13185   13194   13203       3   13176   13185   13194       3   13164   13176
   13185       3   13146   13164   13176       3   13134   13155   13140       5
   13131   13146   13164       3   13128   13140   13155       5   13125   13107
   13128       6   13125   13134   13155       5   13113   13131   13146       7
   13107   13125   13134       9   13107   13128   13140       9   13104   13086
   13107      11   13101   13113   13131      12   13095   13113   13101       5
   13095   13113   13131      12   13086   13104   13092       9   13086   13107
   13125      11   13086   13107   13128      11   13083   13080   13101      13
   13080   13101   13113       5   13077   13065   13080       5   13077   13095
   13113       5   13074   13068   13083      14   13074   13092   13104       5
   13071   13062   13074       5   13071   13086   13104       6   13071   13086
   13107      11   13068   13074   13092      15   13068   13083   13080      16
   13065   13059   13068      17   13065   13077   13095       5   13065   13080
   13083      13   13065   13080   13101       5   13062   13071   13086       9
   13062   13074   13068      15   13062   13074   13092       5   13059   13056
   13062      18   13059   13065   13077      19   13059   13065   13080      19
   13059   13068   13074      20   13059   13068   13083      21   13056   13059
   13065      22   13056   13059   13068      23   13056   13062   13071      13
   13056   13062   13074      13   13410   13413   13425       3   13395   13410
   13413       3   13386   13395   13410       3   13377   13386   13395       3
   13368   13377   13386       3   13356   13368   13377       3   13338   13356
   13368       3   13326   13347   13332       5   13323   13338   13356       3
   13320   13332   13347       5   13317   13299   13320       6   13317   13326
   13347       5   13305   13323   13338       7   13299   13317   13326       9
   13299   13320   13332       9   13296   13278   13299      11   13293   13305
   13323      12   13287   13305   13293       5   13287   13305   13323      12
   13278   13296   13284       9   13278   13299   13317      11   13278   13299
   13320      11   13275   13272   13293      13   13272   13293   13305       5
   13269   13257   13272       5   13269   13287   13305       5   13266   13260
   13275      14   13266   13284   13296       5   13263   13254   13266       5
   13263   13278   13296       6   13263   13278   13299      11   13260   13266
   13284      15   13260   13275   13272      16   13257   13251   13260      17
   13257   13269   13287       5   13257   13272   13275      13   13257   13272
   13293       5   13254   13263   13278       9   13254   13266   13260      15
   13254   13266   13284       5   13251   13248   13254      18   13251   13257
   13269      19   13251   13257   13272      19   13251   13260   13266      20
   13251   13260   13275      21   13248   13251   13257      22   13248   13251
   13260      23   13248   13254   13263      13   13248   13254   13266      13
   13602   13605   13617       3   13587   13602   13605       3   13578   13587
   13602       3   13569   13578   13587       3   13560   13569   13578       3
   13548   13560   13569       3   13530   13548   13560       3   13518   13539
   13524       5   13515   13530   13548       3   13512   13524   13539       5
   13509   13491   13512       6   13509   13518   13539       5   13497   13515
   13530       7   13491   13509   13518       9   13491   13512   13524       9
   13488   13470   13491      11   13485   13497   13515      12   13479   13497
   13485       5   13479   13497   13515      12   13470   13488   13476       9
   13470   13491   13509      11   13470   13491   13512      11   13467   13464
   13485      13   13464   13485   13497       5   13461   13449   13464       5
   13461   13479   13497       5   13458   13452   13467      14   13458   13476
   13488       5   13455   13446   13458       5   13455   13470   13488       6
   13455   13470   13491      11   13452   13458   13476      15   13452   13467
   13464      16   13449   13443   13452      17   13449   13461   13479       5
   13449   13464   13467      13   13449   13464   13485       5   13446   13455
   13470       9   13446   13458   13452      15   13446   13458   13476       5
   13443   13440   13446      18   13443   13449   13461      19   13443   13449
   13464      19   13443   13452   13458      20   13443   13452   13467      21
   13440   13443   13449      22   13440   13443   13452      23   13440   13446
   13455      13   13440   13446   13458      13   13794   13797   13809       3
   13779   13794   13797       3   13770   13779   13794       3   13761   13770
   13779       3   13752   13761   13770       3   13740   13752   13761       3
   13722   13740   13752       3   13710   13731   13716       5   13707   13722
   13740       3   13704   13716   13731       5   13701   13683   13704       6
   13701   13710   13731       5   13689   13707   13722       7   13683   13701
   13710       9   13683   13704   13716       9   13680   13662   13683      11
   13677   13689   13707      12   13671   13689   13677       5   13671   13689
   13707      12   13662   13680   13668       9   13662   13683   13701      11
   13662   13683   13704      11   13659   13656   13677      13   13656   13677
   13689       5   13653   13641   13656       5   13653   13671   13689       5
   13650   13644   13659      14   13650   13668   13680       5   13647   13638
   13650       5   13647   13662   13680       6   13647   13662   13683      11
   13644   13650   13668      15   13644   13659   13656      16   13641   13635
   13644      17   13641   13653   13671       5   13641   13656   13659      13
   13641   13656   13677       5   13638   13647   13662       9   13638   13650
   13644      15   13638   13650   13668       5   13635   13632   13638      18
   13635   13641   13653      19   13635   13641   13656      19   13635   13644
   13650      20   13635   13644   13659      21   13632   13635   13641      22
   13632   13635   13644      23   13632   13638   13647      13   13632   13638
   13650      13   13986   13989   14001       3   13971   13986   13989       3
   13962   13971   13986       3   13953   13962   13971       3   13944   13953
   13962       3   13932   13944   13953       3   13914   13932   13944       3
   13902   13923   13908       5   13899   13914   13932       3   13896   13908
   13923       5   13893   13875   13896       6   13893   13902   13923       5
   13881   13899   13914       7   13875   13893   13902       9   13875   13896
   13908       9   13872   13854   13875      11   13869   13881   13899      12
   13863   13881   13869       5   13863   13881   13899      12   13854   13872
   13860       9   13854   13875   13893      11   13854   13875   13896      11
   13851   13848   13869      13   13848   13869   13881       5   13845   13833
   13848       5   13845   13863   13881       5   13842   13836   13851      14
   13842   13860   13872       5   13839   13830   13842       5   13839   13854
   13872       6   13839   13854   13875      11   13836   13842   13860      15
   13836   13851   13848      16   13833   13827   13836      17   13833   13845
   13863       5   13833   13848   13851      13   13833   13848   13869       5
   13830   13839   13854       9   13830   13842   13836      15   13830   13842
   13860       5   13827   13824   13830      18   13827   13833   13845      19
   13827   13833   13848      19   13827   13836   13842      20   13827   13836
   13851      21   13824   13827   13833      22   13824   13827   13836      23
   13824   13830   13839      13   13824   13830   13842      13   14178   14181
   14193       3   14163   14178   14181       3   14154   14163   14178       3
   14145   14154   14163       3   14136   14145   14154       3   14124   14136
   14145       3   14106   14124   14136       3   14094   14115   14100       5
   14091   14106   14124       3   14088   14100   14115       5   14085   14067
   14088       6   14085   14094   14115       5   14073   14091   14106       7
   14067   14085   14094       9   14067   14088   14100       9   14064   14046
   14067      11   14061   14073   14091      12   14055   14073   14061       5
   14055   14073   14091      12   14046   14064   14052       9   14046   14067
   14085      11   14046   14067   14088      11   14043   14040   14061      13
   14040   14061   14073       5   14037   14025   14040       5   14037   14055
   14073       5   14034   14028   14043      14   14034   14052   14064       5
   14031   14022   14034       5   14031   14046   14064       6   14031   14046
   14067      11   14028   14034   14052      15   14028   14043   14040      16
   14025   14019   14028      17   14025   14037   14055       5   14025   14040
   14043      13   14025   14040   14061       5   14022   14031   14046       9
   14022   14034   14028      15   14022   14034   14052       5   14019   14016
   14022      18   14019   14025   14037      19   14019   14025   14040      19
   14019   14028   14034      20   14019   14028   14043      21   14016   14019
   14025      22   14016   14019   14028      23   14016   14022   14031      13
   14016   14022   14034      13   14370   14373   14385       3   14355   14370
   14373       3   14346   14355   14370       3   14337   14346   14355       3
   14328   14337   14346       3   14316   14328   14337       3   14298   14316
   14328       3   14286   14307   14292       5   14283   14298   14316       3
   14280   14292   14307       5   14277   14259   14280       6   14277   14286
   14307       5   14265   14283   14298       7   14259   14277   14286       9
   14259   14280   14292       9   14256   14238   14259      11   14253   14265
   14283      12   14247   14265   14253       5   14247   14265   14283      12
   14238   14256   14244       9   14238   14259   14277      11   14238   14259
   14280      11   14235   14232   14253      13   14232   14253   14265       5
   14229   14217   14232       5   14229   14247   14265       5   14226   14220
   14235      14   14226   14244   14256       5   14223   14214   14226       5
   14223   14238   14256       6   14223   14238   14259      11   14220   14226
   14244      15   14220   14235   14232      16   14217   14211   14220      17
   14217   14229   14247       5   14217   14232   14235      13   14217   14232
   14253       5   14214   14223   14238       9   14214   14226   14220      15
   14214   14226   14244       5   14211   14208   14214      18   14211   14217
   14229      19   14211   14217   14232      19   14211   14220   14226      20
   14211   14220   14235      21   14208   14211   14217      22   14208   14211
   14220      23   14208   14214   14223      13   14208   14214   14226      13
   14562   14565   14577       3   14547   14562   14565       3   14538   14547
   14562       3   14529   14538   14547       3   14520   14529   14538       3
   14508   14520   14529       3   14490   14508   14520       3   14478   14499
   14484       5   14475   14490   14508       3   14472   14484   14499       5
   14469   14451   14472       6   14469   14478   14499       5   14457   14475
   14490       7   14451   14469   14478       9   14451   14472   14484       9
   14448   14430   14451      11   14445   14457   14475      12   14439   14457
   14445       5   14439   14457   14475      12   14430   14448   14436       9
   14430   14451   14469      11   14430   14451   14472      11   14427   14424
   14445      13   14424   14445   14457       5   14421   14409   14424       5
   14421   14439   14457       5   14418   14412   14427      14   14418   14436
   14448       5   14415   14406   14418       5   14415   14430   14448       6
   14415   14430   14451      11   14412   14418   14436      15   14412   14427
   14424      16   14409   14403   14412      17   14409   14421   14439       5
   14409   14424   14427      13   14409   14424   14445       5   14406   14415
   14430       9   14406   14418   14412      15   14406   14418   14436       5
   14403   14400   14406      18   14403   14409   14421      19   14403   14409
   14424      19   14403   14412   14418      20   14403   14412   14427      21
   14400   14403   14409      22   14400   14403   14412      23   14400   14406
   14415      13   14400   14406   14418      13   14754   14757   14769       3
   14739   14754   14757       3   14730   14739   14754       3   14721   14730
   14739       3   14712   14721   14730       3   14700   14712   14721       3
   14682   14700   14712       3   14670   14691   14676       5   14667   14682
   14700       3   14664   14676   14691       5   14661   14643   14664       6
   14661   14670   14691       5   14649   14667   14682       7   14643   14661
   14670       9   14643   14664   14676       9   14640   14622   14643      11
   14637   14649   14667      12   14631   14649   14637       5   14631   14649
   14667      12   14622   14640   14628       9   14622   14643   14661      11
   14622   14643   14664      11   14619   14616   14637      13   14616   14637
   14649       5   14613   14601   14616       5   14613   14631   14649       5
   14610   14604   14619      14   14610   14628   14640       5   14607   14598
   14610       5   14607   14622   14640       6   14607   14622   14643      11
   14604   14610   14628      15   14604   14619   14616      16   14601   14595
   14604      17   14601   14613   14631       5   14601   14616   14619      13
   14601   14616   14637       5   14598   14607   14622       9   14598   14610
   14604      15   14598   14610   14628       5   14595   14592   14598      18
   14595   14601   14613      19   14595   14601   14616      19   14595   14604
   14610      20   14595   14604   14619      21   14592   14595   14601      22
   14592   14595   14604      23   14592   14598   14607      13   14592   14598
   14610      13   14946   14949   14961       3   14931   14946   14949       3
   14922   14931   14946       3   14913   14922   14931       3   14904   14913
   14922       3   14892   14904   14913       3   14874   14892   14904       3
   14862   14883   14868       5   14859   14874   14892       3   14856   14868
   14883       5   14853   14835   14856       6   14853   14862   14883       5
   14841   14859   14874       7   14835   14853   14862       9   14835   14856
   14868       9   14832   14814   14835      11   14829   14841   14859      12
   14823   14841   14829       5   14823   14841   14859      12   14814   14832
   14820       9   14814   14835   14853      11   14814   14835   14856      11
   14811   14808   14829      13   14808   14829   14841       5   14805   14793
   14808       5   14805   14823   14841       5   14802   14796   14811      14
   14802   14820   14832       5   14799   14790   14802       5   14799   14814
   14832       6   14799   14814   14835      11   14796   14802   14820      15
   14796   14811   14808      16   14793   14787   14796      17   14793   14805
   14823       5   14793   14808   14811      13   14793   14808   14829       5
   14790   14799   14814       9   14790   14802   14796      15   14790   14802
   14820       5   14787   14784   14790      18   14787   14793   14805      19
   14787   14793   14808      19   14787   14796   14802      20   14787   14796
   14811      21   14784   14787   14793      22   14784   14787   14796      23
   14784   14790   14799      13   14784   14790   14802      13   15138   15141
   15153       3   15123   15138   15141       3   15114   15123   15138       3
   15105   15114   15123       3   15096   15105   15114       3   15084   15096
   15105       3   15066   15084   15096       3   15054   15075   15060       5
   15051   15066   15084       3   15048   15060   15075       5   15045   15027
   15048       6   15045   15054   15075       5   15033   15051   15066       7
   15027   15045   15054       9   15027   15048   15060       9   15024   15006
   15027      11   15021   15033   15051      12   15015   15033   15021       5
   15015   15033   15051      12   15006   15024   15012       9   15006   15027
   15045      11   15006   15027   15048      11   15003   15000   15021      13
   15000   15021   15033       5   14997   14985   15000       5   14997   15015
   15033       5   14994   14988   15003      14   14994   15012   15024       5
   14991   14982   14994       5   14991   15006   15024       6   14991   15006
   15027      11   14988   14994   15012      15   14988   15003   15000      16
   14985   14979   14988      17   14985   14997   15015       5   14985   15000
   15003      13   14985   15000   15021       5   14982   14991   15006       9
   14982   14994   14988      15   14982   14994   15012       5   14979   14976
   14982      18   14979   14985   14997      19   14979   14985   15000      19
   14979   14988   14994      20   14979   14988   15003      21   14976   14979
   14985      22   14976   14979   14988      23   14976   14982   14991      13
   14976   14982   14994      13   15330   15333   15345       3   15315   15330
   15333       3   15306   15315   15330       3   15297   15306   15315       3
   15288   15297   15306       3   15276   15288   15297       3   15258   15276
   15288       3   15246   15267   15252       5   15243   15258   15276       3
   15240   15252   15267       5   15237   15219   15240       6   15237   15246
   15267       5   15225   15243   15258       7   15219   15237   15246       9
   15219   15240   15252       9   15216   15198   15219      11   15213   15225
   15243      12   15207   15225   15213       5   15207   15225   15243      12
   15198   15216   15204       9   15198   15219   15237      11   15198   15219
   15240      11   15195   15192   15213      13   15192   15213   15225       5
   15189   15177   15192       5   15189   15207   15225       5   15186   15180
   15195      14   15186   15204   15216       5   15183   15174   15186       5
   15183   15198   15216       6   15183   15198   15219      11   15180   15186
   15204      15   15180   15195   15192      16   15177   15171   15180      17
   15177   15189   15207       5   15177   15192   15195      13   15177   15192
   15213       5   15174   15183   15198       9   15174   15186   15180      15
   15174   15186   15204       5   15171   15168   15174      18   15171   15177
   15189      19   15171   15177   15192      19   15171   15180   15186      20
   15171   15180   15195      21   15168   15171   15177      22   15168   15171
   15180      23   15168   15174   15183      13   15168   15174   15186      13
   15522   15525   15537       3   15507   15522   15525       3   15498   15507
   15522       3   15489   15498   15507       3   15480   15489   15498       3
   15468   15480   15489       3   15450   15468   15480       3   15438   15459
   15444       5   15435   15450   15468       3   15432   15444   15459       5
   15429   15411   15432       6   15429   15438   15459       5   15417   15435
   15450       7   15411   15429   15438       9   15411   15432   15444       9
   15408   15390   15411      11   15405   15417   15435      12   15399   15417
   15405       5   15399   15417   15435      12   15390   15408   15396       9
   15390   15411   15429      11   15390   15411   15432      11   15387   15384
   15405      13   15384   15405   15417       5   15381   15369   15384       5
   15381   15399   15417       5   15378   15372   15387      14   15378   15396
   15408       5   15375   15366   15378       5   15375   15390   15408       6
   15375   15390   15411      11   15372   15378   15396      15   15372   15387
   15384      16   15369   15363   15372      17   15369   15381   15399       5
   15369   15384   15387      13   15369   15384   15405       5   15366   15375
   15390       9   15366   15378   15372      15   15366   15378   15396       5
   15363   15360   15366      18   15363   15369   15381      19   15363   15369
   15384      19   15363   15372   15378      20   15363   15372   15387      21
   15360   15363   15369      22   15360   15363   15372      23   15360   15366
   15375      13   15360   15366   15378      13   15714   15717   15729       3
   15699   15714   15717       3   15690   15699   15714       3   15681   15690
   15699       3   15672   15681   15690       3   15660   15672   15681       3
   15642   15660   15672       3   15630   15651   15636       5   15627   15642
   15660       3   15624   15636   15651       5   15621   15603   15624       6
   15621   15630   15651       5   15609   15627   15642       7   15603   15621
   15630       9   15603   15624   15636       9   15600   15582   15603      11
   15597   15609   15627      12   15591   15609   15597       5   15591   15609
   15627      12   15582   15600   15588       9   15582   15603   15621      11
   15582   15603   15624      11   15579   15576   15597      13   15576   15597
   15609       5   15573   15561   15576       5   15573   15591   15609       5
   15570   15564   15579      14   15570   15588   15600       5   15567   15558
   15570       5   15567   15582   15600       6   15567   15582   15603      11
   15564   15570   15588      15   15564   15579   15576      16   15561   15555
   15564      17   15561   15573   15591       5   15561   15576   15579      13
   15561   15576   15597       5   15558   15567   15582       9   15558   15570
   15564      15   15558   15570   15588       5   15555   15552   15558      18
   15555   15561   15573      19   15555   15561   15576      19   15555   15564
   15570      20   15555   15564   15579      21   15552   15555   15561      22
   15552   15555   15564      23   15552   15558   15567      13   15552   15558
   15570      13   15906   15909   15921       3   15891   15906   15909       3
   15882   15891   15906       3   15873   15882   15891       3   15864   15873
   15882       3   15852   15864   15873       3   15834   15852   15864       3
   15822   15843   15828       5   15819   15834   15852       3   15816   15828
   15843       5   15813   15795   15816       6   15813   15822   15843       5
   15801   15819   15834       7   15795   15813   15822       9   15795   15816
   15828       9   15792   15774   15795      11   15789   15801   15819      12
   15783   15801   15789       5   15783   15801   15819      12   15774   15792
   15780       9   15774   15795   15813      11   15774   15795   15816      11
   15771   15768   15789      13   15768   15789   15801       5   15765   15753
   15768       5   15765   15783   15801       5   15762   15756   15771      14
   15762   15780   15792       5   15759   15750   15762       5   15759   15774
   15792       6   15759   15774   15795      11   15756   15762   15780      15
   15756   15771   15768      16   15753   15747   15756      17   15753   15765
   15783       5   15753   15768   15771      13   15753   15768   15789       5
   15750   15759   15774       9   15750   15762   15756      15   15750   15762
   15780       5   15747   15744   15750      18   15747   15753   15765      19
   15747   15753   15768      19   15747   15756   15762      20   15747   15756
   15771      21   15744   15747   15753      22   15744   15747   15756      23
   15744   15750   15759      13   15744   15750   15762      13   16098   16101
   16113       3   16083   16098   16101       3   16074   16083   16098       3
   16065   16074   16083       3   16056   16065   16074       3   16044   16056
   16065       3   16026   16044   16056       3   16014   16035   16020       5
   16011   16026   16044       3   16008   16020   16035       5   16005   15987
   16008       6   16005   16014   16035       5   15993   16011   16026       7
   15987   16005   16014       9   15987   16008   16020       9   15984   15966
   15987      11   15981   15993   16011      12   15975   15993   15981       5
   15975   15993   16011      12   15966   15984   15972       9   15966   15987
   16005      11   15966   15987   16008      11   15963   15960   15981      13
   15960   15981   15993       5   15957   15945   15960       5   15957   15975
   15993       5   15954   15948   15963      14   15954   15972   15984       5
   15951   15942   15954       5   15951   15966   15984       6   15951   15966
   15987      11   15948   15954   15972      15   15948   15963   15960      16
   15945   15939   15948      17   15945   15957   15975       5   15945   15960
   15963      13   15945   15960   15981       5   15942   15951   15966       9
   15942   15954   15948      15   15942   15954   15972       5   15939   15936
   15942      18   15939   15945   15957      19   15939   15945   15960      19
   15939   15948   15954      20   15939   15948   15963      21   15936   15939
   15945      22   15936   15939   15948      23   15936   15942   15951      13
   15936   15942   15954      13   16290   16293   16305       3   16275   16290
   16293       3   16266   16275   16290       3   16257   16266   16275       3
   16248   16257   16266       3   16236   16248   16257       3   16218   16236
   16248       3   16206   16227   16212       5   16203   16218   16236       3
   16200   16212   16227       5   16197   16179   16200       6   16197   16206
   16227       5   16185   16203   16218       7   16179   16197   16206       9
   16179   16200   16212       9   16176   16158   16179      11   16173   16185
   16203      12   16167   16185   16173       5   16167   16185   16203      12
   16158   16176   16164       9   16158   16179   16197      11   16158   16179
   16200      11   16155   16152   16173      13   16152   16173   16185       5
   16149   16137   16152       5   16149   16167   16185       5   16146   16140
   16155      14   16146   16164   16176       5   16143   16134   16146       5
   16143   16158   16176       6   16143   16158   16179      11   16140   16146
   16164      15   16140   16155   16152      16   16137   16131   16140      17
   16137   16149   16167       5   16137   16152   16155      13   16137   16152
   16173       5   16134   16143   16158       9   16134   16146   16140      15
   16134   16146   16164       5   16131   16128   16134      18   16131   16137
   16149      19   16131   16137   16152      19   16131   16140   16146      20
   16131   16140   16155      21   16128   16131   16137      22   16128   16131
   16140      23   16128   16134   16143      13   16128   16134   16146      13
   16482   16485   16497       3   16467   16482   16485       3   16458   16467
   16482       3   16449   16458   16467       3   16440   16449   16458       3
   16428   16440   16449       3   16410   16428   16440       3   16398   16419
   16404       5   16395   16410   16428       3   16392   16404   16419       5
   16389   16371   16392       6   16389   16398   16419       5   16377   16395
   16410       7   16371   16389   16398       9   16371   16392   16404       9
   16368   16350   16371      11   16365   16377   16395      12   16359   16377
   16365       5   16359   16377   16395      12   16350   16368   16356       9
   16350   16371   16389      11   16350   16371   16392      11   16347   16344
   16365      13   16344   16365   16377       5   16341   16329   16344       5
   16341   16359   16377       5   16338   16332   16347      14   16338   16356
   16368       5   16335   16326   16338       5   16335   16350   16368       6
   16335   16350   16371      11   16332   16338   16356      15   16332   16347
   16344      16   16329   16323   16332      17   16329   16341   16359       5
   16329   16344   16347      13   16329   16344   16365       5   16326   16335
   16350       9   16326   16338   16332      15   16326   16338   16356       5
   16323   16320   16326      18   16323   16329   16341      19   16323   16329
   16344      19   16323   16332   16338      20   16323   16332   16347      21
   16320   16323   16329      22   16320   16323   16332      23   16320   16326
   16335      13   16320   16326   16338      13   16674   16677   16689       3
   16659   16674   16677       3   16650   16659   16674       3   16641   16650
   16659       3   16632   16641   16650       3   16620   16632   16641       3
   16602   16620   16632       3   16590   16611   16596       5   16587   16602
   16620       3   16584   16596   16611       5   16581   16563   16584       6
   16581   16590   16611       5   16569   16587   16602       7   16563   16581
   16590       9   16563   16584   16596       9   16560   16542   16563      11
   16557   16569   16587      12   16551   16569   16557       5   16551   16569
   16587      12   16542   16560   16548       9   16542   16563   16581      11
   16542   16563   16584      11   16539   16536   16557      13   16536   16557
   16569       5   16533   16521   16536       5   16533   16551   16569       5
   16530   16524   16539      14   16530   16548   16560       5   16527   16518
   16530       5   16527   16542   16560       6   16527   16542   16563      11
   16524   16530   16548      15   16524   16539   16536      16   16521   16515
   16524      17   16521   16533   16551       5   16521   16536   16539      13
   16521   16536   16557       5   16518   16527   16542       9   16518   16530
   16524      15   16518   16530   16548       5   16515   16512   16518      18
   16515   16521   16533      19   16515   16521   16536      19   16515   16524
   16530      20   16515   16524   16539      21   16512   16515   16521      22
   16512   16515   16524      23   16512   16518   16527      13   16512   16518
   16530      13   16866   16869   16881       3   16851   16866   16869       3
   16842   16851   16866       3   16833   16842   16851       3   16824   16833
   16842       3   16812   16824   16833       3   16794   16812   16824       3
   16782   16803   16788       5   16779   16794   16812       3   16776   16788
   16803       5   16773   16755   16776       6   16773   16782   16803       5
   16761   16779   16794       7   16755   16773   16782       9   16755   16776
   16788       9   16752   16734   16755      11   16749   16761   16779      12
   16743   16761   16749       5   16743   16761   16779      12   16734   16752
   16740       9   16734   16755   16773      11   16734   16755   16776      11
   16731   16728   16749      13   16728   16749   16761       5   16725   16713
   16728       5   16725   16743   16761       5   16722   16716   16731      14
   16722   16740   16752       5   16719   16710   16722       5   16719   16734
   16752       6   16719   16734   16755      11   16716   16722   16740      15
   16716   16731   16728      16   16713   16707   16716      17   16713   16725
   16743       5   16713   16728   16731      13   16713   16728   16749       5
   16710   16719   16734       9   16710   16722   16716      15   16710   16722
   16740       5   16707   16704   16710      18   16707   16713   16725      19
   16707   16713   16728      19   16707   16716   16722      20   16707   16716
   16731      21   16704   16707   16713      22   16704   16707   16716      23
   16704   16710   16719      13   16704   16710   16722      13   17058   17061
   17073       3   17043   17058   17061       3   17034   17043   17058       3
   17025   17034   17043       3   17016   17025   17034       3   17004   17016
   17025       3   16986   17004   17016       3   16974   16995   16980       5
   16971   16986   17004       3   16968   16980   16995       5   16965   16947
   16968       6   16965   16974   16995       5   16953   16971   16986       7
   16947   16965   16974       9   16947   16968   16980       9   16944   16926
   16947      11   16941   16953   16971      12   16935   16953   16941       5
   16935   16953   16971      12   16926   16944   16932       9   16926   16947
   16965      11   16926   16947   16968      11   16923   16920   16941      13
   16920   16941   16953       5   16917   16905   16920       5   16917   16935
   16953       5   16914   16908   16923      14   16914   16932   16944       5
   16911   16902   16914       5   16911   16926   16944       6   16911   16926
   16947      11   16908   16914   16932      15   16908   16923   16920      16
   16905   16899   16908      17   16905   16917   16935       5   16905   16920
   16923      13   16905   16920   16941       5   16902   16911   16926       9
   16902   16914   16908      15   16902   16914   16932       5   16899   16896
   16902      18   16899   16905   16917      19   16899   16905   16920      19
   16899   16908   16914      20   16899   16908   16923      21   16896   16899
   16905      22   16896   16899   16908      23   16896   16902   16911      13
   16896   16902   16914      13   17250   17253   17265       3   17235   17250
   17253       3   17226   17235   17250       3   17217   17226   17235       3
   17208   17217   17226       3   17196   17208   17217       3   17178   17196
   17208       3   17166   17187   17172       5   17163   17178   17196       3
   17160   17172   17187       5   17157   17139   17160       6   17157   17166
   17187       5   17145   17163   17178       7   17139   17157   17166       9
   17139   17160   17172       9   17136   17118   17139      11   17133   17145
   17163      12   17127   17145   17133       5   17127   17145   17163      12
   17118   17136   17124       9   17118   17139   17157      11   17118   17139
   17160      11   17115   17112   17133      13   17112   17133   17145       5
   17109   17097   17112       5   17109   17127   17145       5   17106   17100
   17115      14   17106   17124   17136       5   17103   17094   17106       5
   17103   17118   17136       6   17103   17118   17139      11   17100   17106
   17124      15   17100   17115   17112      16   17097   17091   17100      17
   17097   17109   17127       5   17097   17112   17115      13   17097   17112
   17133       5   17094   17103   17118       9   17094   17106   17100      15
   17094   17106   17124       5   17091   17088   17094      18   17091   17097
   17109      19   17091   17097   17112      19   17091   17100   17106      20
   17091   17100   17115      21   17088   17091   17097      22   17088   17091
   17100      23   17088   17094   17103      13   17088   17094   17106      13
   17442   17445   17457       3   17427   17442   17445       3   17418   17427
   17442       3   17409   17418   17427       3   17400   17409   17418       3
   17388   17400   17409       3   17370   17388   17400       3   17358   17379
   17364       5   17355   17370   17388       3   17352   17364   17379       5
   17349   17331   17352       6   17349   17358   17379       5   17337   17355
   17370       7   17331   17349   17358       9   17331   17352   17364       9
   17328   17310   17331      11   17325   17337   17355      12   17319   17337
   17325       5   17319   17337   17355      12   17310   17328   17316       9
   17310   17331   17349      11   17310   17331   17352      11   17307   17304
   17325      13   17304   17325   17337       5   17301   17289   17304       5
   17301   17319   17337       5   17298   17292   17307      14   17298   17316
   17328       5   17295   17286   17298       5   17295   17310   17328       6
   17295   17310   17331      11   17292   17298   17316      15   17292   17307
   17304      16   17289   17283   17292      17   17289   17301   17319       5
   17289   17304   17307      13   17289   17304   17325       5   17286   17295
   17310       9   17286   17298   17292      15   17286   17298   17316       5
   17283   17280   17286      18   17283   17289   17301      19   17283   17289
   17304      19   17283   17292   17298      20   17283   17292   17307      21
   17280   17283   17289      22   17280   17283   17292      23   17280   17286
   17295      13   17280   17286   17298      13   17634   17637   17649       3
   17619   17634   17637       3   17610   17619   17634       3   17601   17610
   17619       3   17592   17601   17610       3   17580   17592   17601       3
   17562   17580   17592       3   17550   17571   17556       5   17547   17562
   17580       3   17544   17556   17571       5   17541   17523   17544       6
   17541   17550   17571       5   17529   17547   17562       7   17523   17541
   17550       9   17523   17544   17556       9   17520   17502   17523      11
   17517   17529   17547      12   17511   17529   17517       5   17511   17529
   17547      12   17502   17520   17508       9   17502   17523   17541      11
   17502   17523   17544      11   17499   17496   17517      13   17496   17517
   17529       5   17493   17481   17496       5   17493   17511   17529       5
   17490   17484   17499      14   17490   17508   17520       5   17487   17478
   17490       5   17487   17502   17520       6   17487   17502   17523      11
   17484   17490   17508      15   17484   17499   17496      16   17481   17475
   17484      17   17481   17493   17511       5   17481   17496   17499      13
   17481   17496   17517       5   17478   17487   17502       9   17478   17490
   17484      15   17478   17490   17508       5   17475   17472   17478      18
   17475   17481   17493      19   17475   17481   17496      19   17475   17484
   17490      20   17475   17484   17499      21   17472   17475   17481      22
   17472   17475   17484      23   17472   17478   17487      13   17472   17478
   17490      13   17826   17829   17841       3   17811   17826   17829       3
   17802   17811   17826       3   17793   17802   17811       3   17784   17793
   17802       3   17772   17784   17793       3   17754   17772   17784       3
   17742   17763   17748       5   17739   17754   17772       3   17736   17748
   17763       5   17733   17715   17736       6   17733   17742   17763       5
   17721   17739   17754       7   17715   17733   17742       9   17715   17736
   17748       9   17712   17694   17715      11   17709   17721   17739      12
   17703   17721   17709       5   17703   17721   17739      12   17694   17712
   17700       9   17694   17715   17733      11   17694   17715   17736      11
   17691   17688   17709      13   17688   17709   17721       5   17685   17673
   17688       5   17685   17703   17721       5   17682   17676   17691      14
   17682   17700   17712       5   17679   17670   17682       5   17679   17694
   17712       6   17679   17694   17715      11   17676   17682   17700      15
   17676   17691   17688      16   17673   17667   17676      17   17673   17685
   17703       5   17673   17688   17691      13   17673   17688   17709       5
   17670   17679   17694       9   17670   17682   17676      15   17670   17682
   17700       5   17667   17664   17670      18   17667   17673   17685      19
   17667   17673   17688      19   17667   17676   17682      20   17667   17676
   17691      21   17664   17667   17673      22   17664   17667   17676      23
   17664   17670   17679      13   17664   17670   17682      13   18018   18021
   18033       3   18003   18018   18021       3   17994   18003   18018       3
   17985   17994   18003       3   17976   17985   17994       3   17964   17976
   17985       3   17946   17964   17976       3   17934   17955   17940       5
   17931   17946   17964       3   17928   17940   17955       5   17925   17907
   17928       6   17925   17934   17955       5   17913   17931   17946       7
   17907   17925   17934       9   17907   17928   17940       9   17904   17886
   17907      11   17901   17913   17931      12   17895   17913   17901       5
   17895   17913   17931      12   17886   17904   17892       9   17886   17907
   17925      11   17886   17907   17928      11   17883   17880   17901      13
   17880   17901   17913       5   17877   17865   17880       5   17877   17895
   17913       5   17874   17868   17883      14   17874   17892   17904       5
   17871   17862   17874       5   17871   17886   17904       6   17871   17886
   17907      11   17868   17874   17892      15   17868   17883   17880      16
   17865   17859   17868      17   17865   17877   17895       5   17865   17880
   17883      13   17865   17880   17901       5   17862   17871   17886       9
   17862   17874   17868      15   17862   17874   17892       5   17859   17856
   17862      18   17859   17865   17877      19   17859   17865   17880      19
   17859   17868   17874      20   17859   17868   17883      21   17856   17859
   17865      22   17856   17859   17868      23   17856   17862   17871      13
   17856   17862   17874      13   18210   18213   18225       3   18195   18210
   18213       3   18186   18195   18210       3   18177   18186   18195       3
   18168   18177   18186       3   18156   18168   18177       3   18138   18156
   18168       3   18126   18147   18132       5   18123   18138   18156       3
   18120   18132   18147       5   18117   18099   18120       6   18117   18126
   18147       5   18105   18123   18138       7   18099   18117   18126       9
   18099   18120   18132       9   18096   18078   18099      11   18093   18105
   18123      12   18087   18105   18093       5   18087   18105   18123      12
   18078   18096   18084       9   18078   18099   18117      11   18078   18099
   18120      11   18075   18072   18093      13   18072   18093   18105       5
   18069   18057   18072       5   18069   18087   18105       5   18066   18060
   18075      14   18066   18084   18096       5   18063   18054   18066       5
   18063   18078   18096       6   18063   18078   18099      11   18060   18066
   18084      15   18060   18075   18072      16   18057   18051   18060      17
   18057   18069   18087       5   18057   18072   18075      13   18057   18072
   18093       5   18054   18063   18078       9   18054   18066   18060      15
   18054   18066   18084       5   18051   18048   18054      18   18051   18057
   18069      19   18051   18057   18072      19   18051   18060   18066      20
   18051   18060   18075      21   18048   18051   18057      22   18048   18051
   18060      23   18048   18054   18063      13   18048   18054   18066      13
   18402   18405   18417       3   18387   18402   18405       3   18378   18387
   18402       3   18369   18378   18387       3   18360   18369   18378       3
   18348   18360   18369       3   18330   18348   18360       3   18318   18339
   18324       5   18315   18330   18348       3   18312   18324   18339       5
   18309   18291   18312       6   18309   18318   18339       5   18297   18315
   18330       7   18291   18309   18318       9   18291   18312   18324       9
   18288   18270   18291      11   18285   18297   18315      12   18279   18297
   18285       5   18279   18297   18315      12   18270   18288   18276       9
   18270   18291   18309      11   18270   18291   18312      11   18267   18264
   18285      13   18264   18285   18297       5   18261   18249   18264       5
   18261   18279   18297       5   18258   18252   18267      14   18258   18276
   18288       5   18255   18246   18258       5   18255   18270   18288       6
   18255   18270   18291      11   18252   18258   18276      15   18252   18267
   18264      16   18249   18243   18252      17   18249   18261   18279       5
   18249   18264   18267      13   18249   18264   18285       5   18246   18255
   18270       9   18246   18258   18252      15   18246   18258   18276       5
   18243   18240   18246      18   18243   18249   18261      19   18243   18249
   18264      19   18243   18252   18258      20   18243   18252   18267      21
   18240   18243   18249      22   18240   18243   18252      23   18240   18246
   18255      13   18240   18246   18258      13   18594   18597   18609       3
   18579   18594   18597       3   18570   18579   18594       3   18561   18570
   18579       3   18552   18561   18570       3   18540   18552   18561       3
   18522   18540   18552       3   18510   18531   18516       5   18507   18522
   18540       3   18504   18516   18531       5   18501   18483   18504       6
   18501   18510   18531       5   18489   18507   18522       7   18483   18501
   18510       9   18483   18504   18516       9   18480   18462   18483      11
   18477   18489   18507      12   18471   18489   18477       5   18471   18489
   18507      12   18462   18480   18468       9   18462   18483   18501      11
   18462   18483   18504      11   18459   18456   18477      13   18456   18477
   18489       5   18453   18441   18456       5   18453   18471   18489       5
   18450   18444   18459      14   18450   18468   18480       5   18447   18438
   18450       5   18447   18462   18480       6   18447   18462   18483      11
   18444   18450   18468      15   18444   18459   18456      16   18441   18435
   18444      17   18441   18453   18471       5   18441   18456   18459      13
   18441   18456   18477       5   18438   18447   18462       9   18438   18450
   18444      15   18438   18450   18468       5   18435   18432   18438      18
   18435   18441   18453      19   18435   18441   18456      19   18435   18444
   18450      20   18435   18444   18459      21   18432   18435   18441      22
   18432   18435   18444      23   18432   18438   18447      13   18432   18438
   18450      13   18786   18789   18801       3   18771   18786   18789       3
   18762   18771   18786       3   18753   18762   18771       3   18744   18753
   18762       3   18732   18744   18753       3   18714   18732   18744       3
   18702   18723   18708       5   18699   18714   18732       3   18696   18708
   18723       5   18693   18675   18696       6   18693   18702   18723       5
   18681   18699   18714       7   18675   18693   18702       9   18675   18696
   18708       9   18672   18654   18675      11   18669   18681   18699      12
   18663   18681   18669       5   18663   18681   18699      12   18654   18672
   18660       9   18654   18675   18693      11   18654   18675   18696      11
   18651   18648   18669      13   18648   18669   18681       5   18645   18633
   18648       5   18645   18663   18681       5   18642   18636   18651      14
   18642   18660   18672       5   18639   18630   18642       5   18639   18654
   18672       6   18639   18654   18675      11   18636   18642   18660      15
   18636   18651   18648      16   18633   18627   18636      17   18633   18645
   18663       5   18633   18648   18651      13   18633   18648   18669       5
   18630   18639   18654       9   18630   18642   18636      15   18630   18642
   18660       5   18627   18624   18630      18   18627   18633   18645      19
   18627   18633   18648      19   18627   18636   18642      20   18627   18636
   18651      21   18624   18627   18633      22   18624   18627   18636      23
   18624   18630   18639      13   18624   18630   18642      13   18978   18981
   18993       3   18963   18978   18981       3   18954   18963   18978       3
   18945   18954   18963       3   18936   18945   18954       3   18924   18936
   18945       3   18906   18924   18936       3   18894   18915   18900       5
   18891   18906   18924       3   18888   18900   18915       5   18885   18867
   18888       6   18885   18894   18915       5   18873   18891   18906       7
   18867   18885   18894       9   18867   18888   18900       9   18864   18846
   18867      11   18861   18873   18891      12   18855   18873   18861       5
   18855   18873   18891      12   18846   18864   18852       9   18846   18867
   18885      11   18846   18867   18888      11   18843   18840   18861      13
   18840   18861   18873       5   18837   18825   18840       5   18837   18855
   18873       5   18834   18828   18843      14   18834   18852   18864       5
   18831   18822   18834       5   18831   18846   18864       6   18831   18846
   18867      11   18828   18834   18852      15   18828   18843   18840      16
   18825   18819   18828      17   18825   18837   18855       5   18825   18840
   18843      13   18825   18840   18861       5   18822   18831   18846       9
   18822   18834   18828      15   18822   18834   18852       5   18819   18816
   18822      18   18819   18825   18837      19   18819   18825   18840      19
   18819   18828   18834      20   18819   18828   18843      21   18816   18819
   18825      22   18816   18819   18828      23   18816   18822   18831      13
   18816   18822   18834      13   19170   19173   19185       3   19155   19170
   19173       3   19146   19155   19170       3   19137   19146   19155       3
   19128   19137   19146       3   19116   19128   19137       3   19098   19116
   19128       3   19086   19107   19092       5   19083   19098   19116       3
   19080   19092   19107       5   19077   19059   19080       6   19077   19086
   19107       5   19065   19083   19098       7   19059   19077   19086       9
   19059   19080   19092       9   19056   19038   19059      11   19053   19065
   19083      12   19047   19065   19053       5   19047   19065   19083      12
   19038   19056   19044       9   19038   19059   19077      11   19038   19059
   19080      11   19035   19032   19053      13   19032   19053   19065       5
   19029   19017   19032       5   19029   19047   19065       5   19026   19020
   19035      14   19026   19044   19056       5   19023   19014   19026       5
   19023   19038   19056       6   19023   19038   19059      11   19020   19026
   19044      15   19020   19035   19032      16   19017   19011   19020      17
   19017   19029   19047       5   19017   19032   19035      13   19017   19032
   19053       5   19014   19023   19038       9   19014   19026   19020      15
   19014   19026   19044       5   19011   19008   19014      18   19011   19017
   19029      19   19011   19017   19032      19   19011   19020   19026      20
   19011   19020   19035      21   19008   19011   19017      22   19008   19011
   19020      23   19008   19014   19023      13   19008   19014   19026      13
   19362   19365   19377       3   19347   19362   19365       3   19338   19347
   19362       3   19329   19338   19347       3   19320   19329   19338       3
   19308   19320   19329       3   19290   19308   19320       3   19278   19299
   19284       5   19275   19290   19308       3   19272   19284   19299       5
   19269   19251   19272       6   19269   19278   19299       5   19257   19275
   19290       7   19251   19269   19278       9   19251   19272   19284       9
   19248   19230   19251      11   19245   19257   19275      12   19239   19257
   19245       5   19239   19257   19275      12   19230   19248   19236       9
   19230   19251   19269      11   19230   19251   19272      11   19227   19224
   19245      13   19224   19245   19257       5   19221   19209   19224       5
   19221   19239   19257       5   19218   19212   19227      14   19218   19236
   19248       5   19215   19206   19218       5   19215   19230   19248       6
   19215   19230   19251      11   19212   19218   19236      15   19212   19227
   19224      16   19209   19203   19212      17   19209   19221   19239       5
   19209   19224   19227      13   19209   19224   19245       5   19206   19215
   19230       9   19206   19218   19212      15   19206   19218   19236       5
   19203   19200   19206      18   19203   19209   19221      19   19203   19209
   19224      19   19203   19212   19218      20   19203   19212   19227      21
   19200   19203   19209      22   19200   19203   19212      23   19200   19206
   19215      13   19200   19206   19218      13   19554   19557   19569       3
   19539   19554   19557       3   19530   19539   19554       3   19521   19530
   19539       3   19512   19521   19530       3   19500   19512   19521       3
   19482   19500   19512       3   19470   19491   19476       5   19467   19482
   19500       3   19464   19476   19491       5   19461   19443   19464       6
   19461   19470   19491       5   19449   19467   19482       7   19443   19461
   19470       9   19443   19464   19476       9   19440   19422   19443      11
   19437   19449   19467      12   19431   19449   19437       5   19431   19449
   19467      12   19422   19440   19428       9   19422   19443   19461      11
   19422   19443   19464      11   19419   19416   19437      13   19416   19437
   19449       5   19413   19401   19416       5   19413   19431   19449       5
   19410   19404   19419      14   19410   19428   19440       5   19407   19398
   19410       5   19407   19422   19440       6   19407   19422   19443      11
   19404   19410   19428      15   19404   19419   19416      16   19401   19395
   19404      17   19401   19413   19431       5   19401   19416   19419      13
   19401   19416   19437       5   19398   19407   19422       9   19398   19410
   19404      15   19398   19410   19428       5   19395   19392   19398      18
   19395   19401   19413      19   19395   19401   19416      19   19395   19404
   19410      20   19395   19404   19419      21   19392   19395   19401      22
   19392   19395   19404      23   19392   19398   19407      13   19392   19398
   19410      13   19746   19749   19761       3   19731   19746   19749       3
   19722   19731   19746       3   19713   19722   19731       3   19704   19713
   19722       3   19692   19704   19713       3   19674   19692   19704       3
   19662   19683   19668       5   19659   19674   19692       3   19656   19668
   19683       5   19653   19635   19656       6   19653   19662   19683       5
   19641   19659   19674       7   19635   19653   19662       9   19635   19656
   19668       9   19632   19614   19635      11   19629   19641   19659      12
   19623   19641   19629       5   19623   19641   19659      12   19614   19632
   19620       9   19614   19635   19653      11   19614   19635   19656      11
   19611   19608   19629      13   19608   19629   19641       5   19605   19593
   19608       5   19605   19623   19641       5   19602   19596   19611      14
   19602   19620   19632       5   19599   19590   19602       5   19599   19614
   19632       6   19599   19614   19635      11   19596   19602   19620      15
   19596   19611   19608      16   19593   19587   19596      17   19593   19605
   19623       5   19593   19608   19611      13   19593   19608   19629       5
   19590   19599   19614       9   19590   19602   19596      15   19590   19602
   19620       5   19587   19584   19590      18   19587   19593   19605      19
   19587   19593   19608      19   19587   19596   19602      20   19587   19596
   19611      21   19584   19587   19593      22   19584   19587   19596      23
   19584   19590   19599      13   19584   19590   19602      13   19938   19941
   19953       3   19923   19938   19941       3   19914   19923   19938       3
   19905   19914   19923       3   19896   19905   19914       3   19884   19896
   19905       3   19866   19884   19896       3   19854   19875   19860       5
   19851   19866   19884       3   19848   19860   19875       5   19845   19827
   19848       6   19845   19854   19875       5   19833   19851   19866       7
   19827   19845   19854       9   19827   19848   19860       9   19824   19806
   19827      11   19821   19833   19851      12   19815   19833   19821       5
   19815   19833   19851      12   19806   19824   19812       9   19806   19827
   19845      11   19806   19827   19848      11   19803   19800   19821      13
   19800   19821   19833       5   19797   19785   19800       5   19797   19815
   19833       5   19794   19788   19803      14   19794   19812   19824       5
   19791   19782   19794       5   19791   19806   19824       6   19791   19806
   19827      11   19788   19794   19812      15   19788   19803   19800      16
   19785   19779   19788      17   19785   19797   19815       5   19785   19800
   19803      13   19785   19800   19821       5   19782   19791   19806       9
   19782   19794   19788      15   19782   19794   19812       5   19779   19776
   19782      18   19779   19785   19797      19   19779   19785   19800      19
   19779   19788   19794      20   19779   19788   19803      21   19776   19779
   19785      22   19776   19779   19788      23   19776   19782   19791      13
   19776   19782   19794      13   20130   20133   20145       3   20115   20130
   20133       3   20106   20115   20130       3   20097   20106   20115       3
   20088   20097   20106       3   20076   20088   20097       3   20058   20076
   20088       3   20046   20067   20052       5   20043   20058   20076       3
   20040   20052   20067       5   20037   20019   20040       6   20037   20046
   20067       5   20025   20043   20058       7   20019   20037   20046       9
   20019   20040   20052       9   20016   19998   20019      11   20013   20025
   20043      12   20007   20025   20013       5   20007   20025   20043      12
   19998   20016   20004       9   19998   20019   20037      11   19998   20019
   20040      11   19995   19992   20013      13   19992   20013   20025       5
   19989   19977   19992       5   19989   20007   20025       5   19986   19980
   19995      14   19986   20004   20016       5   19983   19974   19986       5
   19983   19998   20016       6   19983   19998   20019      11   19980   19986
   20004      15   19980   19995   19992      16   19977   19971   19980      17
   19977   19989   20007       5   19977   19992   19995      13   19977   19992
   20013       5   19974   19983   19998       9   19974   19986   19980      15
   19974   19986   20004       5   19971   19968   19974      18   19971   19977
   19989      19   19971   19977   19992      19   19971   19980   19986      20
   19971   19980   19995      21   19968   19971   19977      22   19968   19971
   19980      23   19968   19974   19983      13   19968   19974   19986      13
   20322   20325   20337       3   20307   20322   20325       3   20298   20307
   20322       3   20289   20298   20307       3   20280   20289   20298       3
   20268   20280   20289       3   20250   20268   20280       3   20238   20259
   20244       5   20235   20250   20268       3   20232   20244   20259       5
   20229   20211   20232       6   20229   20238   20259       5   20217   20235
   20250       7   20211   20229   20238       9   20211   20232   20244       9
   20208   20190   20211      11   20205   20217   20235      12   20199   20217
   20205       5   20199   20217   20235      12   20190   20208   20196       9
   20190   20211   20229      11   20190   20211   20232      11   20187   20184
   20205      13   20184   20205   20217       5   20181   20169   20184       5
   20181   20199   20217       5   20178   20172   20187      14   20178   20196
   20208       5   20175   20166   20178       5   20175   20190   20208       6
   20175   20190   20211      11   20172   20178   20196      15   20172   20187
   20184      16   20169   20163   20172      17   20169   20181   20199       5
   20169   20184   20187      13   20169   20184   20205       5   20166   20175
   20190       9   20166   20178   20172      15   20166   20178   20196       5
   20163   20160   20166      18   20163   20169   20181      19   20163   20169
   20184      19   20163   20172   20178      20   20163   20172   20187      21
   20160   20163   20169      22   20160   20163   20172      23   20160   20166
   20175      13   20160   20166   20178      13   20514   20517   20529       3
   20499   20514   20517       3   20490   20499   20514       3   20481   20490
   20499       3   20472   20481   20490       3   20460   20472   20481       3
   20442   20460   20472       3   20430   20451   20436       5   20427   20442
   20460       3   20424   20436   20451       5   20421   20403   20424       6
   20421   20430   20451       5   20409   20427   20442       7   20403   20421
   20430       9   20403   20424   20436       9   20400   20382   20403      11
   20397   20409   20427      12   20391   20409   20397       5   20391   20409
   20427      12   20382   20400   20388       9   20382   20403   20421      11
   20382   20403   20424      11   20379   20376   20397      13   20376   20397
   20409       5   20373   20361   20376       5   20373   20391   20409       5
   20370   20364   20379      14   20370   20388   20400       5   20367   20358
   20370       5   20367   20382   20400       6   20367   20382   20403      11
   20364   20370   20388      15   20364   20379   20376      16   20361   20355
   20364      17   20361   20373   20391       5   20361   20376   20379      13
   20361   20376   20397       5   20358   20367   20382       9   20358   20370
   20364      15   20358   20370   20388       5   20355   20352   20358      18
   20355   20361   20373      19   20355   20361   20376      19   20355   20364
   20370      20   20355   20364   20379      21   20352   20355   20361      22
   20352   20355   20364      23   20352   20358   20367      13   20352   20358
   20370      13   20706   20709   20721       3   20691   20706   20709       3
   20682   20691   20706       3   20673   20682   20691       3   20664   20673
   20682       3   20652   20664   20673       3   20634   20652   20664       3
   20622   20643   20628       5   20619   20634   20652       3   20616   20628
   20643       5   20613   20595   20616       6   20613   20622   20643       5
   20601   20619   20634       7   20595   20613   20622       9   20595   20616
   20628       9   20592   20574   20595      11   20589   20601   20619      12
   20583   20601   20589       5   20583   20601   20619      12   20574   20592
   20580       9   20574   20595   20613      11   20574   20595   20616      11
   20571   20568   20589      13   20568   20589   20601       5   20565   20553
   20568       5   20565   20583   20601       5   20562   20556   20571      14
   20562   20580   20592       5   20559   20550   20562       5   20559   20574
   20592       6   20559   20574   20595      11   20556   20562   20580      15
   20556   20571   20568      16   20553   20547   20556      17   20553   20565
   20583       5   20553   20568   20571      13   20553   20568   20589       5
   20550   20559   20574       9   20550   20562   20556      15   20550   20562
   20580       5   20547   20544   20550      18   20547   20553   20565      19
   20547   20553   20568      19   20547   20556   20562      20   20547   20556
   20571      21   20544   20547   20553      22   20544   20547   20556      23
   20544   20550   20559      13   20544   20550   20562      13   20898   20901
   20913       3   20883   20898   20901       3   20874   20883   20898       3
   20865   20874   20883       3   20856   20865   20874       3   20844   20856
   20865       3   20826   20844   20856       3   20814   20835   20820       5
   20811   20826   20844       3   20808   20820   20835       5   20805   20787
   20808       6   20805   20814   20835       5   20793   20811   20826       7
   20787   20805   20814       9   20787   20808   20820       9   20784   20766
   20787      11   20781   20793   20811      12   20775   20793   20781       5
   20775   20793   20811      12   20766   20784   20772       9   20766   20787
   20805      11   20766   20787   20808      11   20763   20760   20781      13
   20760   20781   20793       5   20757   20745   20760       5   20757   20775
   20793       5   20754   20748   20763      14   20754   20772   20784       5
   20751   20742   20754       5   20751   20766   20784       6   20751   20766
   20787      11   20748   20754   20772      15   20748   20763   20760      16
   20745   20739   20748      17   20745   20757   20775       5   20745   20760
   20763      13   20745   20760   20781       5   20742   20751   20766       9
   20742   20754   20748      15   20742   20754   20772       5   20739   20736
   20742      18   20739   20745   20757      19   20739   20745   20760      19
   20739   20748   20754      20   20739   20748   20763      21   20736   20739
   20745      22   20736   20739   20748      23   20736   20742   20751      13
   20736   20742   20754      13   21090   21093   21105       3   21075   21090
   21093       3   21066   21075   21090       3   21057   21066   21075       3
   21048   21057   21066       3   21036   21048   21057       3   21018   21036
   21048       3   21006   21027   21012       5   21003   21018   21036       3
   21000   21012   21027       5   20997   20979   21000       6   20997   21006
   21027       5   20985   21003   21018       7   20979   20997   21006       9
   20979   21000   21012       9   20976   20958   20979      11   20973   20985
   21003      12   20967   20985   20973       5   20967   20985   21003      12
   20958   20976   20964       9   20958   20979   20997      11   20958   20979
   21000      11   20955   20952   20973      13   20952   20973   20985       5
   20949   20937   20952       5   20949   20967   20985       5   20946   20940
   20955      14   20946   20964   20976       5   20943   20934   20946       5
   20943   20958   20976       6   20943   20958   20979      11   20940   20946
   20964      15   20940   20955   20952      16   20937   20931   20940      17
   20937   20949   20967       5   20937   20952   20955      13   20937   20952
   20973       5   20934   20943   20958       9   20934   20946   20940      15
   20934   20946   20964       5   20931   20928   20934      18   20931   20937
   20949      19   20931   20937   20952      19   20931   20940   20946      20
   20931   20940   20955      21   20928   20931   20937      22   20928   20931
   20940      23   20928   20934   20943      13   20928   20934   20946      13
   21282   21285   21297       3   21267   21282   21285       3   21258   21267
   21282       3   21249   21258   21267       3   21240   21249   21258       3
   21228   21240   21249       3   21210   21228   21240       3   21198   21219
   21204       5   21195   21210   21228       3   21192   21204   21219       5
   21189   21171   21192       6   21189   21198   21219       5   21177   21195
   21210       7   21171   21189   21198       9   21171   21192   21204       9
   21168   21150   21171      11   21165   21177   21195      12   21159   21177
   21165       5   21159   21177   21195      12   21150   21168   21156       9
   21150   21171   21189      11   21150   21171   21192      11   21147   21144
   21165      13   21144   21165   21177       5   21141   21129   21144       5
   21141   21159   21177       5   21138   21132   21147      14   21138   21156
   21168       5   21135   21126   21138       5   21135   21150   21168       6
   21135   21150   21171      11   21132   21138   21156      15   21132   21147
   21144      16   21129   21123   21132      17   21129   21141   21159       5
   21129   21144   21147      13   21129   21144   21165       5   21126   21135
   21150       9   21126   21138   21132      15   21126   21138   21156       5
   21123   21120   21126      18   21123   21129   21141      19   21123   21129
   21144      19   21123   21132   21138      20   21123   21132   21147      21
   21120   21123   21129      22   21120   21123   21132      23   21120   21126
   21135      13   21120   21126   21138      13   21474   21477   21489       3
   21459   21474   21477       3   21450   21459   21474       3   21441   21450
   21459       3   21432   21441   21450       3   21420   21432   21441       3
   21402   21420   21432       3   21390   21411   21396       5   21387   21402
   21420       3   21384   21396   21411       5   21381   21363   21384       6
   21381   21390   21411       5   21369   21387   21402       7   21363   21381
   21390       9   21363   21384   21396       9   21360   21342   21363      11
   21357   21369   21387      12   21351   21369   21357       5   21351   21369
   21387      12   21342   21360   21348       9   21342   21363   21381      11
   21342   21363   21384      11   21339   21336   21357      13   21336   21357
   21369       5   21333   21321   21336       5   21333   21351   21369       5
   21330   21324   21339      14   21330   21348   21360       5   21327   21318
   21330       5   21327   21342   21360       6   21327   21342   21363      11
   21324   21330   21348      15   21324   21339   21336      16   21321   21315
   21324      17   21321   21333   21351       5   21321   21336   21339      13
   21321   21336   21357       5   21318   21327   21342       9   21318   21330
   21324      15   21318   21330   21348       5   21315   21312   21318      18
   21315   21321   21333      19   21315   21321   21336      19   21315   21324
   21330      20   21315   21324   21339      21   21312   21315   21321      22
   21312   21315   21324      23   21312   21318   21327      13   21312   21318
   21330      13   21666   21669   21681       3   21651   21666   21669       3
   21642   21651   21666       3   21633   21642   21651       3   21624   21633
   21642       3   21612   21624   21633       3   21594   21612   21624       3
   21582   21603   21588       5   21579   21594   21612       3   21576   21588
   21603       5   21573   21555   21576       6   21573   21582   21603       5
   21561   21579   21594       7   21555   21573   21582       9   21555   21576
   21588       9   21552   21534   21555      11   21549   21561   21579      12
   21543   21561   21549       5   21543   21561   21579      12   21534   21552
   21540       9   21534   21555   21573      11   21534   21555   21576      11
   21531   21528   21549      13   21528   21549   21561       5   21525   21513
   21528       5   21525   21543   21561       5   21522   21516   21531      14
   21522   21540   21552       5   21519   21510   21522       5   21519   21534
   21552       6   21519   21534   21555      11   21516   21522   21540      15
   21516   21531   21528      16   21513   21507   21516      17   21513   21525
   21543       5   21513   21528   21531      13   21513   21528   21549       5
   21510   21519   21534       9   21510   21522   21516      15   21510   21522
   21540       5   21507   21504   21510      18   21507   21513   21525      19
   21507   21513   21528      19   21507   21516   21522      20   21507   21516
   21531      21   21504   21507   21513      22   21504   21507   21516      23
   21504   21510   21519      13   21504   21510   21522      13   21858   21861
   21873       3   21843   21858   21861       3   21834   21843   21858       3
   21825   21834   21843       3   21816   21825   21834       3   21804   21816
   21825       3   21786   21804   21816       3   21774   21795   21780       5
   21771   21786   21804       3   21768   21780   21795       5   21765   21747
   21768       6   21765   21774   21795       5   21753   21771   21786       7
   21747   21765   21774       9   21747   21768   21780       9   21744   21726
   21747      11   21741   21753   21771      12   21735   21753   21741       5
   21735   21753   21771      12   21726   21744   21732       9   21726   21747
   21765      11   21726   21747   21768      11   21723   21720   21741      13
   21720   21741   21753       5   21717   21705   21720       5   21717   21735
   21753       5   21714   21708   21723      14   21714   21732   21744       5
   21711   21702   21714       5   21711   21726   21744       6   21711   21726
   21747      11   21708   21714   21732      15   21708   21723   21720      16
   21705   21699   21708      17   21705   21717   21735       5   21705   21720
   21723      13   21705   21720   21741       5   21702   21711   21726       9
   21702   21714   21708      15   21702   21714   21732       5   21699   21696
   21702      18   21699   21705   21717      19   21699   21705   21720      19
   21699   21708   21714      20   21699   21708   21723      21   21696   21699
   21705      22   21696   21699   21708      23   21696   21702   21711      13
   21696   21702   21714      13   22050   22053   22065       3   22035   22050
   22053       3   22026   22035   22050       3   22017   22026   22035       3
   22008   22017   22026       3   21996   22008   22017       3   21978   21996
   22008       3   21966   21987   21972       5   21963   21978   21996       3
   21960   21972   21987       5   21957   21939   21960       6   21957   21966
   21987       5   21945   21963   21978       7   21939   21957   21966       9
   21939   21960   21972       9   21936   21918   21939      11   21933   21945
   21963      12   21927   21945   21933       5   21927   21945   21963      12
   21918   21936   21924       9   21918   21939   21957      11   21918   21939
   21960      11   21915   21912   21933      13   21912   21933   21945       5
   21909   21897   21912       5   21909   21927   21945       5   21906   21900
   21915      14   21906   21924   21936       5   21903   21894   21906       5
   21903   21918   21936       6   21903   21918   21939      11   21900   21906
   21924      15   21900   21915   21912      16   21897   21891   21900      17
   21897   21909   21927       5   21897   21912   21915      13   21897   21912
   21933       5   21894   21903   21918       9   21894   21906   21900      15
   21894   21906   21924       5   21891   21888   21894      18   21891   21897
   21909      19   21891   21897   21912      19   21891   21900   21906      20
   21891   21900   21915      21   21888   21891   21897      22   21888   21891
   21900      23   21888   21894   21903      13   21888   21894   21906      13
   22242   22245   22257       3   22227   22242   22245       3   22218   22227
   22242       3   22209   22218   22227       3   22200   22209   22218       3
   22188   22200   22209       3   22170   22188   22200       3   22158   22179
   22164       5   22155   22170   22188       3   22152   22164   22179       5
   22149   22131   22152       6   22149   22158   22179       5   22137   22155
   22170       7   22131   22149   22158       9   22131   22152   22164       9
   22128   22110   22131      11   22125   22137   22155      12   22119   22137
   22125       5   22119   22137   22155      12   22110   22128   22116       9
   22110   22131   22149      11   22110   22131   22152      11   22107   22104
   22125      13   22104   22125   22137       5   22101   22089   22104       5
   22101   22119   22137       5   22098   22092   22107      14   22098   22116
   22128       5   22095   22086   22098       5   22095   22110   22128       6
   22095   22110   22131      11   22092   22098   22116      15   22092   22107
   22104      16   22089   22083   22092      17   22089   22101   22119       5
   22089   22104   22107      13   22089   22104   22125       5   22086   22095
   22110       9   22086   22098   22092      15   22086   22098   22116       5
   22083   22080   22086      18   22083   22089   22101      19   22083   22089
   22104      19   22083   22092   22098      20   22083   22092   22107      21
   22080   22083   22089      22   22080   22083   22092      23   22080   22086
   22095      13   22080   22086   22098      13   22434   22437   22449       3
   22419   22434   22437       3   22410   22419   22434       3   22401   22410
   22419       3   22392   22401   22410       3   22380   22392   22401       3
   22362   22380   22392       3   22350   22371   22356       5   22347   22362
   22380       3   22344   22356   22371       5   22341   22323   22344       6
   22341   22350   22371       5   22329   22347   22362       7   22323   22341
   22350       9   22323   22344   22356       9   22320   22302   22323      11
   22317   22329   22347      12   22311   22329   22317       5   22311   22329
   22347      12   22302   22320   22308       9   22302   22323   22341      11
   22302   22323   22344      11   22299   22296   22317      13   22296   22317
   22329       5   22293   22281   22296       5   22293   22311   22329       5
   22290   22284   22299      14   22290   22308   22320       5   22287   22278
   22290       5   22287   22302   22320       6   22287   22302   22323      11
   22284   22290   22308      15   22284   22299   22296      16   22281   22275
   22284      17   22281   22293   22311       5   22281   22296   22299      13
   22281   22296   22317       5   22278   22287   22302       9   22278   22290
   22284      15   22278   22290   22308       5   22275   22272   22278      18
   22275   22281   22293      19   22275   22281   22296      19   22275   22284
   22290      20   22275   22284   22299      21   22272   22275   22281      22
   22272   22275   22284      23   22272   22278   22287      13   22272   22278
   22290      13   22626   22629   22641       3   22611   22626   22629       3
   22602   22611   22626       3   22593   22602   22611       3   22584   22593
   22602       3   22572   22584   22593       3   22554   22572   22584       3
   22542   22563   22548       5   22539   22554   22572       3   22536   22548
   22563       5   22533   22515   22536       6   22533   22542   22563       5
   22521   22539   22554       7   22515   22533   22542       9   22515   22536
   22548       9   22512   22494   22515      11   22509   22521   22539      12
   22503   22521   22509       5   22503   22521   22539      12   22494   22512
   22500       9   22494   22515   22533      11   22494   22515   22536      11
   22491   22488   22509      13   22488   22509   22521       5   22485   22473
   22488       5   22485   22503   22521       5   22482   22476   22491      14
   22482   22500   22512       5   22479   22470   22482       5   22479   22494
   22512       6   22479   22494   22515      11   22476   22482   22500      15
   22476   22491   22488      16   22473   22467   22476      17   22473   22485
   22503       5   22473   22488   22491      13   22473   22488   22509       5
   22470   22479   22494       9   22470   22482   22476      15   22470   22482
   22500       5   22467   22464   22470      18   22467   22473   22485      19
   22467   22473   22488      19   22467   22476   22482      20   22467   22476
   22491      21   22464   22467   22473      22   22464   22467   22476      23
   22464   22470   22479      13   22464   22470   22482      13   22818   22821
   22833       3   22803   22818   22821       3   22794   22803   22818       3
   22785   22794   22803       3   22776   22785   22794       3   22764   22776
   22785       3   22746   22764   22776       3   22734   22755   22740       5
   22731   22746   22764       3   22728   22740   22755       5   22725   22707
   22728       6   22725   22734   22755       5   22713   22731   22746       7
   22707   22725   22734       9   22707   22728   22740       9   22704   22686
   22707      11   22701   22713   22731      12   22695   22713   22701       5
   22695   22713   22731      12   22686   22704   22692       9   22686   22707
   22725      11   22686   22707   22728      11   22683   22680   22701      13
   22680   22701   22713       5   22677   22665   22680       5   22677   22695
   22713       5   22674   22668   22683      14   22674   22692   22704       5
   22671   22662   22674       5   22671   22686   22704       6   22671   22686
   22707      11   22668   22674   22692      15   22668   22683   22680      16
   22665   22659   22668      17   22665   22677   22695       5   22665   22680
   22683      13   22665   22680   22701       5   22662   22671   22686       9
   22662   22674   22668      15   22662   22674   22692       5   22659   22656
   22662      18   22659   22665   22677      19   22659   22665   22680      19
   22659   22668   22674      20   22659   22668   22683      21   22656   22659
   22665      22   22656   22659   22668      23   22656   22662   22671      13
   22656   22662   22674      13   23010   23013   23025       3   22995   23010
   23013       3   22986   22995   23010       3   22977   22986   22995       3
   22968   22977   22986       3   22956   22968   22977       3   22938   22956
   22968       3   22926   22947   22932       5   22923   22938   22956       3
   22920   22932   22947       5   22917   22899   22920       6   22917   22926
   22947       5   22905   22923   22938       7   22899   22917   22926       9
   22899   22920   22932       9   22896   22878   22899      11   22893   22905
   22923      12   22887   22905   22893       5   22887   22905   22923      12
   22878   22896   22884       9   22878   22899   22917      11   22878   22899
   22920      11   22875   22872   22893      13   22872   22893   22905       5
   22869   22857   22872       5   22869   22887   22905       5   22866   22860
   22875      14   22866   22884   22896       5   22863   22854   22866       5
   22863   22878   22896       6   22863   22878   22899      11   22860   22866
   22884      15   22860   22875   22872      16   22857   22851   22860      17
   22857   22869   22887       5   22857   22872   22875      13   22857   22872
   22893       5   22854   22863   22878       9   22854   22866   22860      15
   22854   22866   22884       5   22851   22848   22854      18   22851   22857
   22869      19   22851   22857   22872      19   22851   22860   22866      20
   22851   22860   22875      21   22848   22851   22857      22   22848   22851
   22860      23   22848   22854   22863      13   22848   22854   22866      13
   23202   23205   23217       3   23187   23202   23205       3   23178   23187
   23202       3   23169   23178   23187       3   23160   23169   23178       3
   23148   23160   23169       3   23130   23148   23160       3   23118   23139
   23124       5   23115   23130   23148       3   23112   23124   23139       5
   23109   23091   23112       6   23109   23118   23139       5   23097   23115
   23130       7   23091   23109   23118       9   23091   23112   23124       9
   23088   23070   23091      11   23085   23097   23115      12   23079   23097
   23085       5   23079   23097   23115      12   23070   23088   23076       9
   23070   23091   23109      11   23070   23091   23112      11   23067   23064
   23085      13   23064   23085   23097       5   23061   23049   23064       5
   23061   23079   23097       5   23058   23052   23067      14   23058   23076
   23088       5   23055   23046   23058       5   23055   23070   23088       6
   23055   23070   23091      11   23052   23058   23076      15   23052   23067
   23064      16   23049   23043   23052      17   23049   23061   23079       5
   23049   23064   23067      13   23049   23064   23085       5   23046   23055
   23070       9   23046   23058   23052      15   23046   23058   23076       5
   23043   23040   23046      18   23043   23049   23061      19   23043   23049
   23064      19   23043   23052   23058      20   23043   23052   23067      21
   23040   23043   23049      22   23040   23043   23052      23   23040   23046
   23055      13   23040   23046   23058      13   23394   23397   23409       3
   23379   23394   23397       3   23370   23379   23394       3   23361   23370
   23379       3   23352   23361   23370       3   23340   23352   23361       3
   23322   23340   23352       3   23310   23331   23316       5   23307   23322
   23340       3   23304   23316   23331       5   23301   23283   23304       6
   23301   23310   23331       5   23289   23307   23322       7   23283   23301
   23310       9   23283   23304   23316       9   23280   23262   23283      11
   23277   23289   23307      12   23271   23289   23277       5   23271   23289
   23307      12   23262   23280   23268       9   23262   23283   23301      11
   23262   23283   23304      11   23259   23256   23277      13   23256   23277
   23289       5   23253   23241   23256       5   23253   23271   23289       5
   23250   23244   23259      14   23250   23268   23280       5   23247   23238
   23250       5   23247   23262   23280       6   23247   23262   23283      11
   23244   23250   23268      15   23244   23259   23256      16   23241   23235
   23244      17   23241   23253   23271       5   23241   23256   23259      13
   23241   23256   23277       5   23238   23247   23262       9   23238   23250
   23244      15   23238   23250   23268       5   23235   23232   23238      18
   23235   23241   23253      19   23235   23241   23256      19   23235   23244
   23250      20   23235   23244   23259      21   23232   23235   23241      22
   23232   23235   23244      23   23232   23238   23247      13   23232   23238
   23250      13   23586   23589   23601       3   23571   23586   23589       3
   23562   23571   23586       3   23553   23562   23571       3   23544   23553
   23562       3   23532   23544   23553       3   23514   23532   23544       3
   23502   23523   23508       5   23499   23514   23532       3   23496   23508
   23523       5   23493   23475   23496       6   23493   23502   23523       5
   23481   23499   23514       7   23475   23493   23502       9   23475   23496
   23508       9   23472   23454   23475      11   23469   23481   23499      12
   23463   23481   23469       5   23463   23481   23499      12   23454   23472
   23460       9   23454   23475   23493      11   23454   23475   23496      11
   23451   23448   23469      13   23448   23469   23481       5   23445   23433
   23448       5   23445   23463   23481       5   23442   23436   23451      14
   23442   23460   23472       5   23439   23430   23442       5   23439   23454
   23472       6   23439   23454   23475      11   23436   23442   23460      15
   23436   23451   23448      16   23433   23427   23436      17   23433   23445
   23463       5   23433   23448   23451      13   23433   23448   23469       5
   23430   23439   23454       9   23430   23442   23436      15   23430   23442
   23460       5   23427   23424   23430      18   23427   23433   23445      19
   23427   23433   23448      19   23427   23436   23442      20   23427   23436
   23451      21   23424   23427   23433      22   23424   23427   23436      23
   23424   23430   23439      13   23424   23430   23442      13   23778   23781
   23793       3   23763   23778   23781       3   23754   23763   23778       3
   23745   23754   23763       3   23736   23745   23754       3   23724   23736
   23745       3   23706   23724   23736       3   23694   23715   23700       5
   23691   23706   23724       3   23688   23700   23715       5   23685   23667
   23688       6   23685   23694   23715       5   23673   23691   23706       7
   23667   23685   23694       9   23667   23688   23700       9   23664   23646
   23667      11   23661   23673   23691      12   23655   23673   23661       5
   23655   23673   23691      12   23646   23664   23652       9   23646   23667
   23685      11   23646   23667   23688      11   23643   23640   23661      13
   23640   23661   23673       5   23637   23625   23640       5   23637   23655
   23673       5   23634   23628   23643      14   23634   23652   23664       5
   23631   23622   23634       5   23631   23646   23664       6   23631   23646
   23667      11   23628   23634   23652      15   23628   23643   23640      16
   23625   23619   23628      17   23625   23637   23655       5   23625   23640
   23643      13   23625   23640   23661       5   23622   23631   23646       9
   23622   23634   23628      15   23622   23634   23652       5   23619   23616
   23622      18   23619   23625   23637      19   23619   23625   23640      19
   23619   23628   23634      20   23619   23628   23643      21   23616   23619
   23625      22   23616   23619   23628      23   23616   23622   23631      13
   23616   23622   23634      13   23970   23973   23985       3   23955   23970
   23973       3   23946   23955   23970       3   23937   23946   23955       3
   23928   23937   23946       3   23916   23928   23937       3   23898   23916
   23928       3   23886   23907   23892       5   23883   23898   23916       3
   23880   23892   23907       5   23877   23859   23880       6   23877   23886
   23907       5   23865   23883   23898       7   23859   23877   23886       9
   23859   23880   23892       9   23856   23838   23859      11   23853   23865
   23883      12   23847   23865   23853       5   23847   23865   23883      12
   23838   23856   23844       9   23838   23859   23877      11   23838   23859
   23880      11   23835   23832   23853      13   23832   23853   23865       5
   23829   23817   23832       5   23829   23847   23865       5   23826   23820
   23835      14   23826   23844   23856       5   23823   23814   23826       5
   23823   23838   23856       6   23823   23838   23859      11   23820   23826
   23844      15   23820   23835   23832      16   23817   23811   23820      17
   23817   23829   23847       5   23817   23832   23835      13   23817   23832
   23853       5   23814   23823   23838       9   23814   23826   23820      15
   23814   23826   23844       5   23811   23808   23814      18   23811   23817
   23829      19   23811   23817   23832      19   23811   23820   23826      20
   23811   23820   23835      21   23808   23811   23817      22   23808   23811
   23820      23   23808   23814   23823      13   23808   23814   23826      13
   24162   24165   24177       3   24147   24162   24165       3   24138   24147
   24162       3   24129   24138   24147       3   24120   24129   24138       3
   24108   24120   24129       3   24090   24108   24120       3   24078   24099
   24084       5   24075   24090   24108       3   24072   24084   24099       5
   24069   24051   24072       6   24069   24078   24099       5   24057   24075
   24090       7   24051   24069   24078       9   24051   24072   24084       9
   24048   24030   24051      11   24045   24057   24075      12   24039   24057
   24045       5   24039   24057   24075      12   24030   24048   24036       9
   24030   24051   24069      11   24030   24051   24072      11   24027   24024
   24045      13   24024   24045   24057       5   24021   24009   24024       5
   24021   24039   24057       5   24018   24012   24027      14   24018   24036
   24048       5   24015   24006   24018       5   24015   24030   24048       6
   24015   24030   24051      11   24012   24018   24036      15   24012   24027
   24024      16   24009   24003   24012      17   24009   24021   24039       5
   24009   24024   24027      13   24009   24024   24045       5   24006   24015
   24030       9   24006   24018   24012      15   24006   24018   24036       5
   24003   24000   24006      18   24003   24009   24021      19   24003   24009
   24024      19   24003   24012   24018      20   24003   24012   24027      21
   24000   24003   24009      22   24000   24003   24012      23   24000   24006
   24015      13   24000   24006   24018      13   24354   24357   24369       3
   24339   24354   24357       3   24330   24339   24354       3   24321   24330
   24339       3   24312   24321   24330       3   24300   24312   24321       3
   24282   24300   24312       3   24270   24291   24276       5   24267   24282
   24300       3   24264   24276   24291       5   24261   24243   24264       6
   24261   24270   24291       5   24249   24267   24282       7   24243   24261
   24270       9   24243   24264   24276       9   24240   24222   24243      11
   24237   24249   24267      12   24231   24249   24237       5   24231   24249
   24267      12   24222   24240   24228       9   24222   24243   24261      11
   24222   24243   24264      11   24219   24216   24237      13   24216   24237
   24249       5   24213   24201   24216       5   24213   24231   24249       5
   24210   24204   24219      14   24210   24228   24240       5   24207   24198
   24210       5   24207   24222   24240       6   24207   24222   24243      11
   24204   24210   24228      15   24204   24219   24216      16   24201   24195
   24204      17   24201   24213   24231       5   24201   24216   24219      13
   24201   24216   24237       5   24198   24207   24222       9   24198   24210
   24204      15   24198   24210   24228       5   24195   24192   24198      18
   24195   24201   24213      19   24195   24201   24216      19   24195   24204
   24210      20   24195   24204   24219      21   24192   24195   24201      22
   24192   24195   24204      23   24192   24198   24207      13   24192   24198
   24210      13   24546   24549   24561       3   24531   24546   24549       3
   24522   24531   24546       3   24513   24522   24531       3   24504   24513
   24522       3   24492   24504   24513       3   24474   24492   24504       3
   24462   24483   24468       5   24459   24474   24492       3   24456   24468
   24483       5   24453   24435   24456       6   24453   24462   24483       5
   24441   24459   24474       7   24435   24453   24462       9   24435   24456
   24468       9   24432   24414   24435      11   24429   24441   24459      12
   24423   24441   24429       5   24423   24441   24459      12   24414   24432
   24420       9   24414   24435   24453      11   24414   24435   24456      11
   24411   24408   24429      13   24408   24429   24441       5   24405   24393
   24408       5   24405   24423   24441       5   24402   24396   24411      14
   24402   24420   24432       5   24399   24390   24402       5   24399   24414
   24432       6   24399   24414   24435      11   24396   24402   24420      15
   24396   24411   24408      16   24393   24387   24396      17   24393   24405
   24423       5   24393   24408   24411      13   24393   24408   24429       5
   24390   24399   24414       9   24390   24402   24396      15   24390   24402
   24420       5   24387   24384   24390      18   24387   24393   24405      19
   24387   24393   24408      19   24387   24396   24402      20   24387   24396
   24411      21   24384   24387   24393      22   24384   24387   24396      23
   24384   24390   24399      13   24384   24390   24402      13   24738   24741
   24753       3   24723   24738   24741       3   24714   24723   24738       3
   24705   24714   24723       3   24696   24705   24714       3   24684   24696
   24705       3   24666   24684   24696       3   24654   24675   24660       5
   24651   24666   24684       3   24648   24660   24675       5   24645   24627
   24648       6   24645   24654   24675       5   24633   24651   24666       7
   24627   24645   24654       9   24627   24648   24660       9   24624   24606
   24627      11   24621   24633   24651      12   24615   24633   24621       5
   24615   24633   24651      12   24606   24624   24612       9   24606   24627
   24645      11   24606   24627   24648      11   24603   24600   24621      13
   24600   24621   24633       5   24597   24585   24600       5   24597   24615
   24633       5   24594   24588   24603      14   24594   24612   24624       5
   24591   24582   24594       5   24591   24606   24624       6   24591   24606
   24627      11   24588   24594   24612      15   24588   24603   24600      16
   24585   24579   24588      17   24585   24597   24615       5   24585   24600
   24603      13   24585   24600   24621       5   24582   24591   24606       9
   24582   24594   24588      15   24582   24594   24612       5   24579   24576
   24582      18   24579   24585   24597      19   24579   24585   24600      19
   24579   24588   24594      20   24579   24588   24603      21   24576   24579
   24585      22   24576   24579   24588      23   24576   24582   24591      13
   24576   24582   24594      13   24930   24933   24945       3   24915   24930
   24933       3   24906   24915   24930       3   24897   24906   24915       3
   24888   24897   24906       3   24876   24888   24897       3   24858   24876
   24888       3   24846   24867   24852       5   24843   24858   24876       3
   24840   24852   24867       5   24837   24819   24840       6   24837   24846
   24867       5   24825   24843   24858       7   24819   24837   24846       9
   24819   24840   24852       9   24816   24798   24819      11   24813   24825
   24843      12   24807   24825   24813       5   24807   24825   24843      12
   24798   24816   24804       9   24798   24819   24837      11   24798   24819
   24840      11   24795   24792   24813      13   24792   24813   24825       5
   24789   24777   24792       5   24789   24807   24825       5   24786   24780
   24795      14   24786   24804   24816       5   24783   24774   24786       5
   24783   24798   24816       6   24783   24798   24819      11   24780   24786
   24804      15   24780   24795   24792      16   24777   24771   24780      17
   24777   24789   24807       5   24777   24792   24795      13   24777   24792
   24813       5   24774   24783   24798       9   24774   24786   24780      15
   24774   24786   24804       5   24771   24768   24774      18   24771   24777
   24789      19   24771   24777   24792      19   24771   24780   24786      20
   24771   24780   24795      21   24768   24771   24777      22   24768   24771
   24780      23   24768   24774   24783      13   24768   24774   24786      13
   25122   25125   25137       3   25107   25122   25125       3   25098   25107
   25122       3   25089   25098   25107       3   25080   25089   25098       3
   25068   25080   25089       3   25050   25068   25080       3   25038   25059
   25044       5   25035   25050   25068       3   25032   25044   25059       5
   25029   25011   25032       6   25029   25038   25059       5   25017   25035
   25050       7   25011   25029   25038       9   25011   25032   25044       9
   25008   24990   25011      11   25005   25017   25035      12   24999   25017
   25005       5   24999   25017   25035      12   24990   25008   24996       9
   24990   25011   25029      11   24990   25011   25032      11   24987   24984
   25005      13   24984   25005   25017       5   24981   24969   24984       5
   24981   24999   25017       5   24978   24972   24987      14   24978   24996
   25008       5   24975   24966   24978       5   24975   24990   25008       6
   24975   24990   25011      11   24972   24978   24996      15   24972   24987
   24984      16   24969   24963   24972      17   24969   24981   24999       5
   24969   24984   24987      13   24969   24984   25005       5   24966   24975
   24990       9   24966   24978   24972      15   24966   24978   24996       5
   24963   24960   24966      18   24963   24969   24981      19   24963   24969
   24984      19   24963   24972   24978      20   24963   24972   24987      21
   24960   24963   24969      22   24960   24963   24972      23   24960   24966
   24975      13   24960   24966   24978      13   25314   25317   25329       3
   25299   25314   25317       3   25290   25299   25314       3   25281   25290
   25299       3   25272   25281   25290       3   25260   25272   25281       3
   25242   25260   25272       3   25230   25251   25236       5   25227   25242
   25260       3   25224   25236   25251       5   25221   25203   25224       6
   25221   25230   25251       5   25209   25227   25242       7   25203   25221
   25230       9   25203   25224   25236       9   25200   25182   25203      11
   25197   25209   25227      12   25191   25209   25197       5   25191   25209
   25227      12   25182   25200   25188       9   25182   25203   25221      11
   25182   25203   25224      11   25179   25176   25197      13   25176   25197
   25209       5   25173   25161   25176       5   25173   25191   25209       5
   25170   25164   25179      14   25170   25188   25200       5   25167   25158
   25170       5   25167   25182   25200       6   25167   25182   25203      11
   25164   25170   25188      15   25164   25179   25176      16   25161   25155
   25164      17   25161   25173   25191       5   25161   25176   25179      13
   25161   25176   25197       5   25158   25167   25182       9   25158   25170
   25164      15   25158   25170   25188       5   25155   25152   25158      18
   25155   25161   25173      19   25155   25161   25176      19   25155   25164
   25170      20   25155   25164   25179      21   25152   25155   25161      22
   25152   25155   25164      23   25152   25158   25167      13   25152   25158
   25170      13   25506   25509   25521       3   25491   25506   25509       3
   25482   25491   25506       3   25473   25482   25491       3   25464   25473
   25482       3   25452   25464   25473       3   25434   25452   25464       3
   25422   25443   25428       5   25419   25434   25452       3   25416   25428
   25443       5   25413   25395   25416       6   25413   25422   25443       5
   25401   25419   25434       7   25395   25413   25422       9   25395   25416
   25428       9   25392   25374   25395      11   25389   25401   25419      12
   25383   25401   25389       5   25383   25401   25419      12   25374   25392
   25380       9   25374   25395   25413      11   25374   25395   25416      11
   25371   25368   25389      13   25368   25389   25401       5   25365   25353
   25368       5   25365   25383   25401       5   25362   25356   25371      14
   25362   25380   25392       5   25359   25350   25362       5   25359   25374
   25392       6   25359   25374   25395      11   25356   25362   25380      15
   25356   25371   25368      16   25353   25347   25356      17   25353   25365
   25383       5   25353   25368   25371      13   25353   25368   25389       5
   25350   25359   25374       9   25350   25362   25356      15   25350   25362
   25380       5   25347   25344   25350      18   25347   25353   25365      19
   25347   25353   25368      19   25347   25356   25362      20   25347   25356
   25371      21   25344   25347   25353      22   25344   25347   25356      23
   25344   25350   25359      13   25344   25350   25362      13   25698   25701
   25713       3   25683   25698   25701       3   25674   25683   25698       3
   25665   25674   25683       3   25656   25665   25674       3   25644   25656
   25665       3   25626   25644   25656       3   25614   25635   25620       5
   25611   25626   25644       3   25608   25620   25635       5   25605   25587
   25608       6   25605   25614   25635       5   25593   25611   25626       7
   25587   25605   25614       9   25587   25608   25620       9   25584   25566
   25587      11   25581   25593   25611      12   25575   25593   25581       5
   25575   25593   25611      12   25566   25584   25572       9   25566   25587
   25605      11   25566   25587   25608      11   25563   25560   25581      13
   25560   25581   25593       5   25557   25545   25560       5   25557   25575
   25593       5   25554   25548   25563      14   25554   25572   25584       5
   25551   25542   25554       5   25551   25566   25584       6   25551   25566
   25587      11   25548   25554   25572      15   25548   25563   25560      16
   25545   25539   25548      17   25545   25557   25575       5   25545   25560
   25563      13   25545   25560   25581       5   25542   25551   25566       9
   25542   25554   25548      15   25542   25554   25572       5   25539   25536
   25542      18   25539   25545   25557      19   25539   25545   25560      19
   25539   25548   25554      20   25539   25548   25563      21   25536   25539
   25545      22   25536   25539   25548      23   25536   25542   25551      13
   25536   25542   25554      13   25890   25893   25905       3   25875   25890
   25893       3   25866   25875   25890       3   25857   25866   25875       3
   25848   25857   25866       3   25836   25848   25857       3   25818   25836
   25848       3   25806   25827   25812       5   25803   25818   25836       3
   25800   25812   25827       5   25797   25779   25800       6   25797   25806
   25827       5   25785   25803   25818       7   25779   25797   25806       9
   25779   25800   25812       9   25776   25758   25779      11   25773   25785
   25803      12   25767   25785   25773       5   25767   25785   25803      12
   25758   25776   25764       9   25758   25779   25797      11   25758   25779
   25800      11   25755   25752   25773      13   25752   25773   25785       5
   25749   25737   25752       5   25749   25767   25785       5   25746   25740
   25755      14   25746   25764   25776       5   25743   25734   25746       5
   25743   25758   25776       6   25743   25758   25779      11   25740   25746
   25764      15   25740   25755   25752      16   25737   25731   25740      17
   25737   25749   25767       5   25737   25752   25755      13   25737   25752
   25773       5   25734   25743   25758       9   25734   25746   25740      15
   25734   25746   25764       5   25731   25728   25734      18   25731   25737
   25749      19   25731   25737   25752      19   25731   25740   25746      20
   25731   25740   25755      21   25728   25731   25737      22   25728   25731
   25740      23   25728   25734   25743      13   25728   25734   25746      13
   26082   26085   26097       3   26067   26082   26085       3   26058   26067
   26082       3   26049   26058   26067       3   26040   26049   26058       3
   26028   26040   26049       3   26010   26028   26040       3   25998   26019
   26004       5   25995   26010   26028       3   25992   26004   26019       5
   25989   25971   25992       6   25989   25998   26019       5   25977   25995
   26010       7   25971   25989   25998       9   25971   25992   26004       9
   25968   25950   25971      11   25965   25977   25995      12   25959   25977
   25965       5   25959   25977   25995      12   25950   25968   25956       9
   25950   25971   25989      11   25950   25971   25992      11   25947   25944
   25965      13   25944   25965   25977       5   25941   25929   25944       5
   25941   25959   25977       5   25938   25932   25947      14   25938   25956
   25968       5   25935   25926   25938       5   25935   25950   25968       6
   25935   25950   25971      11   25932   25938   25956      15   25932   25947
   25944      16   25929   25923   25932      17   25929   25941   25959       5
   25929   25944   25947      13   25929   25944   25965       5   25926   25935
   25950       9   25926   25938   25932      15   25926   25938   25956       5
   25923   25920   25926      18   25923   25929   25941      19   25923   25929
   25944      19   25923   25932   25938      20   25923   25932   25947      21
   25920   25923   25929      22   25920   25923   25932      23   25920   25926
   25935      13   25920   25926   25938      13   26274   26277   26289       3
   26259   26274   26277       3   26250   26259   26274       3   26241   26250
   26259       3   26232   26241   26250       3   26220   26232   26241       3
   26202   26220   26232       3   26190   26211   26196       5   26187   26202
   26220       3   26184   26196   26211       5   26181   26163   26184       6
   26181   26190   26211       5   26169   26187   26202       7   26163   26181
   26190       9   26163   26184   26196       9   26160   26142   26163      11
   26157   26169   26187      12   26151   26169   26157       5   26151   26169
   26187      12   26142   26160   26148       9   26142   26163   26181      11
   26142   26163   26184      11   26139   26136   26157      13   26136   26157
   26169       5   26133   26121   26136       5   26133   26151   26169       5
   26130   26124   26139      14   26130   26148   26160       5   26127   26118
   26130       5   26127   26142   26160       6   26127   26142   26163      11
   26124   26130   26148      15   26124   26139   26136      16   26121   26115
   26124      17   26121   26133   26151       5   26121   26136   26139      13
   26121   26136   26157       5   26118   26127   26142       9   26118   26130
   26124      15   26118   26130   26148       5   26115   26112   26118      18
   26115   26121   26133      19   26115   26121   26136      19   26115   26124
   26130      20   26115   26124   26139      21   26112   26115   26121      22
   26112   26115   26124      23   26112   26118   26127      13   26112   26118
   26130      13   26466   26469   26481       3   26451   26466   26469       3
   26442   26451   26466       3   26433   26442   26451       3   26424   26433
   26442       3   26412   26424   26433       3   26394   26412   26424       3
   26382   26403   26388       5   26379   26394   26412       3   26376   26388
   26403       5   26373   26355   26376       6   26373   26382   26403       5
   26361   26379   26394       7   26355   26373   26382       9   26355   26376
   26388       9   26352   26334   26355      11   26349   26361   26379      12
   26343   26361   26349       5   26343   26361   26379      12   26334   26352
   26340       9   26334   26355   26373      11   26334   26355   26376      11
   26331   26328   26349      13   26328   26349   26361       5   26325   26313
   26328       5   26325   26343   26361       5   26322   26316   26331      14
   26322   26340   26352       5   26319   26310   26322       5   26319   26334
   26352       6   26319   26334   26355      11   26316   26322   26340      15
   26316   26331   26328      16   26313   26307   26316      17   26313   26325
   26343       5   26313   26328   26331      13   26313   26328   26349       5
   26310   26319   26334       9   26310   26322   26316      15   26310   26322
   26340       5   26307   26304   26310      18   26307   26313   26325      19
   26307   26313   26328      19   26307   26316   26322      20   26307   26316
   26331      21   26304   26307   26313      22   26304   26307   26316      23
   26304   26310   26319      13   26304   26310   26322      13   26658   26661
   26673       3   26643   26658   26661       3   26634   26643   26658       3
   26625   26634   26643       3   26616   26625   26634       3   26604   26616
   26625       3   26586   26604   26616       3   26574   26595   26580       5
   26571   26586   26604       3   26568   26580   26595       5   26565   26547
   26568       6   26565   26574   26595       5   26553   26571   26586       7
   26547   26565   26574       9   26547   26568   26580       9   26544   26526
   26547      11   26541   26553   26571      12   26535   26553   26541       5
   26535   26553   26571      12   26526   26544   26532       9   26526   26547
   26565      11   26526   26547   26568      11   26523   26520   26541      13
   26520   26541   26553       5   26517   26505   26520       5   26517   26535
   26553       5   26514   26508   26523      14   26514   26532   26544       5
   26511   26502   26514       5   26511   26526   26544       6   26511   26526
   26547      11   26508   26514   26532      15   26508   26523   26520      16
   26505   26499   26508      17   26505   26517   26535       5   26505   26520
   26523      13   26505   26520   26541       5   26502   26511   26526       9
   26502   26514   26508      15   26502   26514   26532       5   26499   26496
   26502      18   26499   26505   26517      19   26499   26505   26520      19
   26499   26508   26514      20   26499   26508   26523      21   26496   26499
   26505      22   26496   26499   26508      23   26496   26502   26511      13
   26496   26502   26514      13   26850   26853   26865       3   26835   26850
   26853       3   26826   26835   26850       3   26817   26826   26835       3
   26808   26817   26826       3   26796   26808   26817       3   26778   26796
   26808       3   26766   26787   26772       5   26763   26778   26796       3
   26760   26772   26787       5   26757   26739   26760       6   26757   26766
   26787       5   26745   26763   26778       7   26739   26757   26766       9
   26739   26760   26772       9   26736   26718   26739      11   26733   26745
   26763      12   26727   26745   26733       5   26727   26745   26763      12
   26718   26736   26724       9   26718   26739   26757      11   26718   26739
   26760      11   26715   26712   26733      13   26712   26733   26745       5
   26709   26697   26712       5   26709   26727   26745       5   26706   26700
   26715      14   26706   26724   26736       5   26703   26694   26706       5
   26703   26718   26736       6   26703   26718   26739      11   26700   26706
   26724      15   26700   26715   26712      16   26697   26691   26700      17
   26697   26709   26727       5   26697   26712   26715      13   26697   26712
   26733       5   26694   26703   26718       9   26694   26706   26700      15
   26694   26706   26724       5   26691   26688   26694      18   26691   26697
   26709      19   26691   26697   26712      19   26691   26700   26706      20
   26691   26700   26715      21   26688   26691   26697      22   26688   26691
   26700      23   26688   26694   26703      13   26688   26694   26706      13
   27042   27045   27057       3   27027   27042   27045       3   27018   27027
   27042       3   27009   27018   27027       3   27000   27009   27018       3
   26988   27000   27009       3   26970   26988   27000       3   26958   26979
   26964       5   26955   26970   26988       3   26952   26964   26979       5
   26949   26931   26952       6   26949   26958   26979       5   26937   26955
   26970       7   26931   26949   26958       9   26931   26952   26964       9
   26928   26910   26931      11   26925   26937   26955      12   26919   26937
   26925       5   26919   26937   26955      12   26910   26928   26916       9
   26910   26931   26949      11   26910   26931   26952      11   26907   26904
   26925      13   26904   26925   26937       5   26901   26889   26904       5
   26901   26919   26937       5   26898   26892   26907      14   26898   26916
   26928       5   26895   26886   26898       5   26895   26910   26928       6
   26895   26910   26931      11   26892   26898   26916      15   26892   26907
   26904      16   26889   26883   26892      17   26889   26901   26919       5
   26889   26904   26907      13   26889   26904   26925       5   26886   26895
   26910       9   26886   26898   26892      15   26886   26898   26916       5
   26883   26880   26886      18   26883   26889   26901      19   26883   26889
   26904      19   26883   26892   26898      20   26883   26892   26907      21
   26880   26883   26889      22   26880   26883   26892      23   26880   26886
   26895      13   26880   26886   26898      13   27234   27237   27249       3
   27219   27234   27237       3   27210   27219   27234       3   27201   27210
   27219       3   27192   27201   27210       3   27180   27192   27201       3
   27162   27180   27192       3   27150   27171   27156       5   27147   27162
   27180       3   27144   27156   27171       5   27141   27123   27144       6
   27141   27150   27171       5   27129   27147   27162       7   27123   27141
   27150       9   27123   27144   27156       9   27120   27102   27123      11
   27117   27129   27147      12   27111   27129   27117       5   27111   27129
   27147      12   27102   27120   27108       9   27102   27123   27141      11
   27102   27123   27144      11   27099   27096   27117      13   27096   27117
   27129       5   27093   27081   27096       5   27093   27111   27129       5
   27090   27084   27099      14   27090   27108   27120       5   27087   27078
   27090       5   27087   27102   27120       6   27087   27102   27123      11
   27084   27090   27108      15   27084   27099   27096      16   27081   27075
   27084      17   27081   27093   27111       5   27081   27096   27099      13
   27081   27096   27117       5   27078   27087   27102       9   27078   27090
   27084      15   27078   27090   27108       5   27075   27072   27078      18
   27075   27081   27093      19   27075   27081   27096      19   27075   27084
   27090      20   27075   27084   27099      21   27072   27075   27081      22
   27072   27075   27084      23   27072   27078   27087      13   27072   27078
   27090      13   27426   27429   27441       3   27411   27426   27429       3
   27402   27411   27426       3   27393   27402   27411       3   27384   27393
   27402       3   27372   27384   27393       3   27354   27372   27384       3
   27342   27363   27348       5   27339   27354   27372       3   27336   27348
   27363       5   27333   27315   27336       6   27333   27342   27363       5
   27321   27339   27354       7   27315   27333   27342       9   27315   27336
   27348       9   27312   27294   27315      11   27309   27321   27339      12
   27303   27321   27309       5   27303   27321   27339      12   27294   27312
   27300       9   27294   27315   27333      11   27294   27315   27336      11
   27291   27288   27309      13   27288   27309   27321       5   27285   27273
   27288       5   27285   27303   27321       5   27282   27276   27291      14
   27282   27300   27312       5   27279   27270   27282       5   27279   27294
   27312       6   27279   27294   27315      11   27276   27282   27300      15
   27276   27291   27288      16   27273   27267   27276      17   27273   27285
   27303       5   27273   27288   27291      13   27273   27288   27309       5
   27270   27279   27294       9   27270   27282   27276      15   27270   27282
   27300       5   27267   27264   27270      18   27267   27273   27285      19
   27267   27273   27288      19   27267   27276   27282      20   27267   27276
   27291      21   27264   27267   27273      22   27264   27267   27276      23
   27264   27270   27279      13   27264   27270   27282      13   27618   27621
   27633       3   27603   27618   27621       3   27594   27603   27618       3
   27585   27594   27603       3   27576   27585   27594       3   27564   27576
   27585       3   27546   27564   27576       3   27534   27555   27540       5
   27531   27546   27564       3   27528   27540   27555       5   27525   27507
   27528       6   27525   27534   27555       5   27513   27531   27546       7
   27507   27525   27534       9   27507   27528   27540       9   27504   27486
   27507      11   27501   27513   27531      12   27495   27513   27501       5
   27495   27513   27531      12   27486   27504   27492       9   27486   27507
   27525      11   27486   27507   27528      11   27483   27480   27501      13
   27480   27501   27513       5   27477   27465   27480       5   27477   27495
   27513       5   27474   27468   27483      14   27474   27492   27504       5
   27471   27462   27474       5   27471   27486   27504       6   27471   27486
   27507      11   27468   27474   27492      15   27468   27483   27480      16
   27465   27459   27468      17   27465   27477   27495       5   27465   27480
   27483      13   27465   27480   27501       5   27462   27471   27486       9
   27462   27474   27468      15   27462   27474   27492       5   27459   27456
   27462      18   27459   27465   27477      19   27459   27465   27480      19
   27459   27468   27474      20   27459   27468   27483      21   27456   27459
   27465      22   27456   27459   27468      23   27456   27462   27471      13
   27456   27462   27474      13   27810   27813   27825       3   27795   27810
   27813       3   27786   27795   27810       3   27777   27786   27795       3
   27768   27777   27786       3   27756   27768   27777       3   27738   27756
   27768       3   27726   27747   27732       5   27723   27738   27756       3
   27720   27732   27747       5   27717   27699   27720       6   27717   27726
   27747       5   27705   27723   27738       7   27699   27717   27726       9
   27699   27720   27732       9   27696   27678   27699      11   27693   27705
   27723      12   27687   27705   27693       5   27687   27705   27723      12
   27678   27696   27684       9   27678   27699   27717      11   27678   27699
   27720      11   27675   27672   27693      13   27672   27693   27705       5
   27669   27657   27672       5   27669   27687   27705       5   27666   27660
   27675      14   27666   27684   27696       5   27663   27654   27666       5
   27663   27678   27696       6   27663   27678   27699      11   27660   27666
   27684      15   27660   27675   27672      16   27657   27651   27660      17
   27657   27669   27687       5   27657   27672   27675      13   27657   27672
   27693       5   27654   27663   27678       9   27654   27666   27660      15
   27654   27666   27684       5   27651   27648   27654      18   27651   27657
   27669      19   27651   27657   27672      19   27651   27660   27666      20
   27651   27660   27675      21   27648   27651   27657      22   27648   27651
   27660      23   27648   27654   27663      13   27648   27654   27666      13
   28002   28005   28017       3   27987   28002   28005       3   27978   27987
   28002       3   27969   27978   27987       3   27960   27969   27978       3
   27948   27960   27969       3   27930   27948   27960       3   27918   27939
   27924       5   27915   27930   27948       3   27912   27924   27939       5
   27909   27891   27912       6   27909   27918   27939       5   27897   27915
   27930       7   27891   27909   27918       9   27891   27912   27924       9
   27888   27870   27891      11   27885   27897   27915      12   27879   27897
   27885       5   27879   27897   27915      12   27870   27888   27876       9
   27870   27891   27909      11   27870   27891   27912      11   27867   27864
   27885      13   27864   27885   27897       5   27861   27849   27864       5
   27861   27879   27897       5   27858   27852   27867      14   27858   27876
   27888       5   27855   27846   27858       5   27855   27870   27888       6
   27855   27870   27891      11   27852   27858   27876      15   27852   27867
   27864      16   27849   27843   27852      17   27849   27861   27879       5
   27849   27864   27867      13   27849   27864   27885       5   27846   27855
   27870       9   27846   27858   27852      15   27846   27858   27876       5
   27843   27840   27846      18   27843   27849   27861      19   27843   27849
   27864      19   27843   27852   27858      20   27843   27852   27867      21
   27840   27843   27849      22   27840   27843   27852      23   27840   27846
   27855      13   27840   27846   27858      13   28194   28197   28209       3
   28179   28194   28197       3   28170   28179   28194       3   28161   28170
   28179       3   28152   28161   28170       3   28140   28152   28161       3
   28122   28140   28152       3   28110   28131   28116       5   28107   28122
   28140       3   28104   28116   28131       5   28101   28083   28104       6
   28101   28110   28131       5   28089   28107   28122       7   28083   28101
   28110       9   28083   28104   28116       9   28080   28062   28083      11
   28077   28089   28107      12   28071   28089   28077       5   28071   28089
   28107      12   28062   28080   28068       9   28062   28083   28101      11
   28062   28083   28104      11   28059   28056   28077      13   28056   28077
   28089       5   28053   28041   28056       5   28053   28071   28089       5
   28050   28044   28059      14   28050   28068   28080       5   28047   28038
   28050       5   28047   28062   28080       6   28047   28062   28083      11
   28044   28050   28068      15   28044   28059   28056      16   28041   28035
   28044      17   28041   28053   28071       5   28041   28056   28059      13
   28041   28056   28077       5   28038   28047   28062       9   28038   28050
   28044      15   28038   28050   28068       5   28035   28032   28038      18
   28035   28041   28053      19   28035   28041   28056      19   28035   28044
   28050      20   28035   28044   28059      21   28032   28035   28041      22
   28032   28035   28044      23   28032   28038   28047      13   28032   28038
   28050      13   28386   28389   28401       3   28371   28386   28389       3
   28362   28371   28386       3   28353   28362   28371       3   28344   28353
   28362       3   28332   28344   28353       3   28314   28332   28344       3
   28302   28323   28308       5   28299   28314   28332       3   28296   28308
   28323       5   28293   28275   28296       6   28293   28302   28323       5
   28281   28299   28314       7   28275   28293   28302       9   28275   28296
   28308       9   28272   28254   28275      11   28269   28281   28299      12
   28263   28281   28269       5   28263   28281   28299      12   28254   28272
   28260       9   28254   28275   28293      11   28254   28275   28296      11
   28251   28248   28269      13   28248   28269   28281       5   28245   28233
   28248       5   28245   28263   28281       5   28242   28236   28251      14
   28242   28260   28272       5   28239   28230   28242       5   28239   28254
   28272       6   28239   28254   28275      11   28236   28242   28260      15
   28236   28251   28248      16   28233   28227   28236      17   28233   28245
   28263       5   28233   28248   28251      13   28233   28248   28269       5
   28230   28239   28254       9   28230   28242   28236      15   28230   28242
   28260       5   28227   28224   28230      18   28227   28233   28245      19
   28227   28233   28248      19   28227   28236   28242      20   28227   28236
   28251      21   28224   28227   28233      22   28224   28227   28236      23
   28224   28230   28239      13   28224   28230   28242      13   28578   28581
   28593       3   28563   28578   28581       3   28554   28563   28578       3
   28545   28554   28563       3   28536   28545   28554       3   28524   28536
   28545       3   28506   28524   28536       3   28494   28515   28500       5
   28491   28506   28524       3   28488   28500   28515       5   28485   28467
   28488       6   28485   28494   28515       5   28473   28491   28506       7
   28467   28485   28494       9   28467   28488   28500       9   28464   28446
   28467      11   28461   28473   28491      12   28455   28473   28461       5
   28455   28473   28491      12   28446   28464   28452       9   28446   28467
   28485      11   28446   28467   28488      11   28443   28440   28461      13
   28440   28461   28473       5   28437   28425   28440       5   28437   28455
   28473       5   28434   28428   28443      14   28434   28452   28464       5
   28431   28422   28434       5   28431   28446   28464       6   28431   28446
   28467      11   28428   28434   28452      15   28428   28443   28440      16
   28425   28419   28428      17   28425   28437   28455       5   28425   28440
   28443      13   28425   28440   28461       5   28422   28431   28446       9
   28422   28434   28428      15   28422   28434   28452       5   28419   28416
   28422      18   28419   28425   28437      19   28419   28425   28440      19
   28419   28428   28434      20   28419   28428   28443      21   28416   28419
   28425      22   28416   28419   28428      23   28416   28422   28431      13
   28416   28422   28434      13   28770   28773   28785       3   28755   28770
   28773       3   28746   28755   28770       3   28737   28746   28755       3
   28728   28737   28746       3   28716   28728   28737       3   28698   28716
   28728       3   28686   28707   28692       5   28683   28698   28716       3
   28680   28692   28707       5   28677   28659   28680       6   28677   28686
   28707       5   28665   28683   28698       7   28659   28677   28686       9
   28659   28680   28692       9   28656   28638   28659      11   28653   28665
   28683      12   28647   28665   28653       5   28647   28665   28683      12
   28638   28656   28644       9   28638   28659   28677      11   28638   28659
   28680      11   28635   28632   28653      13   28632   28653   28665       5
   28629   28617   28632       5   28629   28647   28665       5   28626   28620
   28635      14   28626   28644   28656       5   28623   28614   28626       5
   28623   28638   28656       6   28623   28638   28659      11   28620   28626
   28644      15   28620   28635   28632      16   28617   28611   28620      17
   28617   28629   28647       5   28617   28632   28635      13   28617   28632
   28653       5   28614   28623   28638       9   28614   28626   28620      15
   28614   28626   28644       5   28611   28608   28614      18   28611   28617
   28629      19   28611   28617   28632      19   28611   28620   28626      20
   28611   28620   28635      21   28608   28611   28617      22   28608   28611
   28620      23   28608   28614   28623      13   28608   28614   28626      13
   28962   28965   28977       3   28947   28962   28965       3   28938   28947
   28962       3   28929   28938   28947       3   28920   28929   28938       3
   28908   28920   28929       3   28890   28908   28920       3   28878   28899
   28884       5   28875   28890   28908       3   28872   28884   28899       5
   28869   28851   28872       6   28869   28878   28899       5   28857   28875
   28890       7   28851   28869   28878       9   28851   28872   28884       9
   28848   28830   28851      11   28845   28857   28875      12   28839   28857
   28845       5   28839   28857   28875      12   28830   28848   28836       9
   28830   28851   28869      11   28830   28851   28872      11   28827   28824
   28845      13   28824   28845   28857       5   28821   28809   28824       5
   28821   28839   28857       5   28818   28812   28827      14   28818   28836
   28848       5   28815   28806   28818       5   28815   28830   28848       6
   28815   28830   28851      11   28812   28818   28836      15   28812   28827
   28824      16   28809   28803   28812      17   28809   28821   28839       5
   28809   28824   28827      13   28809   28824   28845       5   28806   28815
   28830       9   28806   28818   28812      15   28806   28818   28836       5
   28803   28800   28806      18   28803   28809   28821      19   28803   28809
   28824      19   28803   28812   28818      20   28803   28812   28827      21
   28800   28803   28809      22   28800   28803   28812      23   28800   28806
   28815      13   28800   28806   28818      13   29154   29157   29169       3
   29139   29154   29157       3   29130   29139   29154       3   29121   29130
   29139       3   29112   29121   29130       3   29100   29112   29121       3
   29082   29100   29112       3   29070   29091   29076       5   29067   29082
   29100       3   29064   29076   29091       5   29061   29043   29064       6
   29061   29070   29091       5   29049   29067   29082       7   29043   29061
   29070       9   29043   29064   29076       9   29040   29022   29043      11
   29037   29049   29067      12   29031   29049   29037       5   29031   29049
   29067      12   29022   29040   29028       9   29022   29043   29061      11
   29022   29043   29064      11   29019   29016   29037      13   29016   29037
   29049       5   29013   29001   29016       5   29013   29031   29049       5
   29010   29004   29019      14   29010   29028   29040       5   29007   28998
   29010       5   29007   29022   29040       6   29007   29022   29043      11
   29004   29010   29028      15   29004   29019   29016      16   29001   28995
   29004      17   29001   29013   29031       5   29001   29016   29019      13
   29001   29016   29037       5   28998   29007   29022       9   28998   29010
   29004      15   28998   29010   29028       5   28995   28992   28998      18
   28995   29001   29013      19   28995   29001   29016      19   28995   29004
   29010      20   28995   29004   29019      21   28992   28995   29001      22
   28992   28995   29004      23   28992   28998   29007      13   28992   28998
   29010      13   29346   29349   29361       3   29331   29346   29349       3
   29322   29331   29346       3   29313   29322   29331       3   29304   29313
   29322       3   29292   29304   29313       3   29274   29292   29304       3
   29262   29283   29268       5   29259   29274   29292       3   29256   29268
   29283       5   29253   29235   29256       6   29253   29262   29283       5
   29241   29259   29274       7   29235   29253   29262       9   29235   29256
   29268       9   29232   29214   29235      11   29229   29241   29259      12
   29223   29241   29229       5   29223   29241   29259      12   29214   29232
   29220       9   29214   29235   29253      11   29214   29235   29256      11
   29211   29208   29229      13   29208   29229   29241       5   29205   29193
   29208       5   29205   29223   29241       5   29202   29196   29211      14
   29202   29220   29232       5   29199   29190   29202       5   29199   29214
   29232       6   29199   29214   29235      11   29196   29202   29220      15
   29196   29211   29208      16   29193   29187   29196      17   29193   29205
   29223       5   29193   29208   29211      13   29193   29208   29229       5
   29190   29199   29214       9   29190   29202   29196      15   29190   29202
   29220       5   29187   29184   29190      18   29187   29193   29205      19
   29187   29193   29208      19   29187   29196   29202      20   29187   29196
   29211      21   29184   29187   29193      22   29184   29187   29196      23
   29184   29190   29199      13   29184   29190   29202      13   29538   29541
   29553       3   29523   29538   29541       3   29514   29523   29538       3
   29505   29514   29523       3   29496   29505   29514       3   29484   29496
   29505       3   29466   29484   29496       3   29454   29475   29460       5
   29451   29466   29484       3   29448   29460   29475       5   29445   29427
   29448       6   29445   29454   29475       5   29433   29451   29466       7
   29427   29445   29454       9   29427   29448   29460       9   29424   29406
   29427      11   29421   29433   29451      12   29415   29433   29421       5
   29415   29433   29451      12   29406   29424   29412       9   29406   29427
   29445      11   29406   29427   29448      11   29403   29400   29421      13
   29400   29421   29433       5   29397   29385   29400       5   29397   29415
   29433       5   29394   29388   29403      14   29394   29412   29424       5
   29391   29382   29394       5   29391   29406   29424       6   29391   29406
   29427      11   29388   29394   29412      15   29388   29403   29400      16
   29385   29379   29388      17   29385   29397   29415       5   29385   29400
   29403      13   29385   29400   29421       5   29382   29391   29406       9
   29382   29394   29388      15   29382   29394   29412       5   29379   29376
   29382      18   29379   29385   29397      19   29379   29385   29400      19
   29379   29388   29394      20   29379   29388   29403      21   29376   29379
   29385      22   29376   29379   29388      23   29376   29382   29391      13
   29376   29382   29394      13   29730   29733   29745       3   29715   29730
   29733       3   29706   29715   29730       3   29697   29706   29715       3
   29688   29697   29706       3   29676   29688   29697       3   29658   29676
   29688       3   29646   29667   29652       5   29643   29658   29676       3
   29640   29652   29667       5   29637   29619   29640       6   29637   29646
   29667       5   29625   29643   29658       7   29619   29637   29646       9
   29619   29640   29652       9   29616   29598   29619      11   29613   29625
   29643      12   29607   29625   29613       5   29607   29625   29643      12
   29598   29616   29604       9   29598   29619   29637      11   29598   29619
   29640      11   29595   29592   29613      13   29592   29613   29625       5
   29589   29577   29592       5   29589   29607   29625       5   29586   29580
   29595      14   29586   29604   29616       5   29583   29574   29586       5
   29583   29598   29616       6   29583   29598   29619      11   29580   29586
   29604      15   29580   29595   29592      16   29577   29571   29580      17
   29577   29589   29607       5   29577   29592   29595      13   29577   29592
   29613       5   29574   29583   29598       9   29574   29586   29580      15
   29574   29586   29604       5   29571   29568   29574      18   29571   29577
   29589      19   29571   29577   29592      19   29571   29580   29586      20
   29571   29580   29595      21   29568   29571   29577      22   29568   29571
   29580      23   29568   29574   29583      13   29568   29574   29586      13
   29922   29925   29937       3   29907   29922   29925       3   29898   29907
   29922       3   29889   29898   29907       3   29880   29889   29898       3
   29868   29880   29889       3   29850   29868   29880       3   29838   29859
   29844       5   29835   29850   29868       3   29832   29844   29859       5
   29829   29811   29832       6   29829   29838   29859       5   29817   29835
   29850       7   29811   29829   29838       9   29811   29832   29844       9
   29808   29790   29811      11   29805   29817   29835      12   29799   29817
   29805       5   29799   29817   29835      12   29790   29808   29796       9
   29790   29811   29829      11   29790   29811   29832      11   29787   29784
   29805      13   29784   29805   29817       5   29781   29769   29784       5
   29781   29799   29817       5   29778   29772   29787      14   29778   29796
   29808       5   29775   29766   29778       5   29775   29790   29808       6
   29775   29790   29811      11   29772   29778   29796      15   29772   29787
   29784      16   29769   29763   29772      17   29769   29781   29799       5
   29769   29784   29787      13   29769   29784   29805       5   29766   29775
   29790       9   29766   29778   29772      15   29766   29778   29796       5
   29763   29760   29766      18   29763   29769   29781      19   29763   29769
   29784      19   29763   29772   29778      20   29763   29772   29787      21
   29760   29763   29769      22   29760   29763   29772      23   29760   29766
   29775      13   29760   29766   29778      13   30114   30117   30129       3
   30099   30114   30117       3   30090   30099   30114       3   30081   30090
   30099       3   30072   30081   30090       3   30060   30072   30081       3
   30042   30060   30072       3   30030   30051   30036       5   30027   30042
   30060       3   30024   30036   30051       5   30021   30003   30024       6
   30021   30030   30051       5   30009   30027   30042       7   30003   30021
   30030       9   30003   30024   30036       9   30000   29982   30003      11
   29997   30009   30027      12   29991   30009   29997       5   29991   30009
   30027      12   29982   30000   29988       9   29982   30003   30021      11
   29982   30003   30024      11   29979   29976   29997      13   29976   29997
   30009       5   29973   29961   29976       5   29973   29991   30009       5
   29970   29964   29979      14   29970   29988   30000       5   29967   29958
   29970       5   29967   29982   30000       6   29967   29982   30003      11
   29964   29970   29988      15   29964   29979   29976      16   29961   29955
   29964      17   29961   29973   29991       5   29961   29976   29979      13
   29961   29976   29997       5   29958   29967   29982       9   29958   29970
   29964      15   29958   29970   29988       5   29955   29952   29958      18
   29955   29961   29973      19   29955   29961   29976      19   29955   29964
   29970      20   29955   29964   29979      21   29952   29955   29961      22
   29952   29955   29964      23   29952   29958   29967      13   29952   29958
   29970      13   30306   30309   30321       3   30291   30306   30309       3
   30282   30291   30306       3   30273   30282   30291       3   30264   30273
   30282       3   30252   30264   30273       3   30234   30252   30264       3
   30222   30243   30228       5   30219   30234   30252       3   30216   30228
   30243       5   30213   30195   30216       6   30213   30222   30243       5
   30201   30219   30234       7   30195   30213   30222       9   30195   30216
   30228       9   30192   30174   30195      11   30189   30201   30219      12
   30183   30201   30189       5   30183   30201   30219      12   30174   30192
   30180       9   30174   30195   30213      11   30174   30195   30216      11
   30171   30168   30189      13   30168   30189   30201       5   30165   30153
   30168       5   30165   30183   30201       5   30162   30156   30171      14
   30162   30180   30192       5   30159   30150   30162       5   30159   30174
   30192       6   30159   30174   30195      11   30156   30162   30180      15
   30156   30171   30168      16   30153   30147   30156      17   30153   30165
   30183       5   30153   30168   30171      13   30153   30168   30189       5
   30150   30159   30174       9   30150   30162   30156      15   30150   30162
   30180       5   30147   30144   30150      18   30147   30153   30165      19
   30147   30153   30168      19   30147   30156   30162      20   30147   30156
   30171      21   30144   30147   30153      22   30144   30147   30156      23
   30144   30150   30159      13   30144   30150   30162      13   30498   30501
   30513       3   30483   30498   30501       3   30474   30483   30498       3
   30465   30474   30483       3   30456   30465   30474       3   30444   30456
   30465       3   30426   30444   30456       3   30414   30435   30420       5
   30411   30426   30444       3   30408   30420   30435       5   30405   30387
   30408       6   30405   30414   30435       5   30393   30411   30426       7
   30387   30405   30414       9   30387   30408   30420       9   30384   30366
   30387      11   30381   30393   30411      12   30375   30393   30381       5
   30375   30393   30411      12   30366   30384   30372       9   30366   30387
   30405      11   30366   30387   30408      11   30363   30360   30381      13
   30360   30381   30393       5   30357   30345   30360       5   30357   30375
   30393       5   30354   30348   30363      14   30354   30372   30384       5
   30351   30342   30354       5   30351   30366   30384       6   30351   30366
   30387      11   30348   30354   30372      15   30348   30363   30360      16
   30345   30339   30348      17   30345   30357   30375       5   30345   30360
   30363      13   30345   30360   30381       5   30342   30351   30366       9
   30342   30354   30348      15   30342   30354   30372       5   30339   30336
   30342      18   30339   30345   30357      19   30339   30345   30360      19
   30339   30348   30354      20   30339   30348   30363      21   30336   30339
   30345      22   30336   30339   30348      23   30336   30342   30351      13
   30336   30342   30354      13   30690   30693   30705       3   30675   30690
   30693       3   30666   30675   30690       3   30657   30666   30675       3
   30648   30657   30666       3   30636   30648   30657       3   30618   30636
   30648       3   30606   30627   30612       5   30603   30618   30636       3
   30600   30612   30627       5   30597   30579   30600       6   30597   30606
   30627       5   30585   30603   30618       7   30579   30597   30606       9
   30579   30600   30612       9   30576   30558   30579      11   30573   30585
   30603      12   30567   30585   30573       5   30567   30585   30603      12
   30558   30576   30564       9   30558   30579   30597      11   30558   30579
   30600      11   30555   30552   30573      13   30552   30573   30585       5
   30549   30537   30552       5   30549   30567   30585       5   30546   30540
   30555      14   30546   30564   30576       5   30543   30534   30546       5
   30543   30558   30576       6   30543   30558   30579      11   30540   30546
   30564      15   30540   30555   30552      16   30537   30531   30540      17
   30537   30549   30567       5   30537   30552   30555      13   30537   30552
   30573       5   30534   30543   30558       9   30534   30546   30540      15
   30534   30546   30564       5   30531   30528   30534      18   30531   30537
   30549      19   30531   30537   30552      19   30531   30540   30546      20
   30531   30540   30555      21   30528   30531   30537      22   30528   30531
   30540      23   30528   30534   30543      13   30528   30534   30546      13
   30882   30885   30897       3   30867   30882   30885       3   30858   30867
   30882       3   30849   30858   30867       3   30840   30849   30858       3
   30828   30840   30849       3   30810   30828   30840       3   30798   30819
   30804       5   30795   30810   30828       3   30792   30804   30819       5
   30789   30771   30792       6   30789   30798   30819       5   30777   30795
   30810       7   30771   30789   30798       9   30771   30792   30804       9
   30768   30750   30771      11   30765   30777   30795      12   30759   30777
   30765       5   30759   30777   30795      12   30750   30768   30756       9
   30750   30771   30789      11   30750   30771   30792      11   30747   30744
   30765      13   30744   30765   30777       5   30741   30729   30744       5
   30741   30759   30777       5   30738   30732   30747      14   30738   30756
   30768       5   30735   30726   30738       5   30735   30750   30768       6
   30735   30750   30771      11   30732   30738   30756      15   30732   30747
   30744      16   30729   30723   30732      17   30729   30741   30759       5
   30729   30744   30747      13   30729   30744   30765       5   30726   30735
   30750       9   30726   30738   30732      15   30726   30738   30756       5
   30723   30720   30726      18   30723   30729   30741      19   30723   30729
   30744      19   30723   30732   30738      20   30723   30732   30747      21
   30720   30723   30729      22   30720   30723   30732      23   30720   30726
   30735      13   30720   30726   30738      13   31074   31077   31089       3
   31059   31074   31077       3   31050   31059   31074       3   31041   31050
   31059       3   31032   31041   31050       3   31020   31032   31041       3
   31002   31020   31032       3   30990   31011   30996       5   30987   31002
   31020       3   30984   30996   31011       5   30981   30963   30984       6
   30981   30990   31011       5   30969   30987   31002       7   30963   30981
   30990       9   30963   30984   30996       9   30960   30942   30963      11
   30957   30969   30987      12   30951   30969   30957       5   30951   30969
   30987      12   30942   30960   30948       9   30942   30963   30981      11
   30942   30963   30984      11   30939   30936   30957      13   30936   30957
   30969       5   30933   30921   30936       5   30933   30951   30969       5
   30930   30924   30939      14   30930   30948   30960       5   30927   30918
   30930       5   30927   30942   30960       6   30927   30942   30963      11
   30924   30930   30948      15   30924   30939   30936      16   30921   30915
   30924      17   30921   30933   30951       5   30921   30936   30939      13
   30921   30936   30957       5   30918   30927   30942       9   30918   30930
   30924      15   30918   30930   30948       5   30915   30912   30918      18
   30915   30921   30933      19   30915   30921   30936      19   30915   30924
   30930      20   30915   30924   30939      21   30912   30915   30921      22
   30912   30915   30924      23   30912   30918   30927      13   30912   30918
   30930      13   31266   31269   31281       3   31251   31266   31269       3
   31242   31251   31266       3   31233   31242   31251       3   31224   31233
   31242       3   31212   31224   31233       3   31194   31212   31224       3
   31182   31203   31188       5   31179   31194   31212       3   31176   31188
   31203       5   31173   31155   31176       6   31173   31182   31203       5
   31161   31179   31194       7   31155   31173   31182       9   31155   31176
   31188       9   31152   31134   31155      11   31149   31161   31179      12
   31143   31161   31149       5   31143   31161   31179      12   31134   31152
   31140       9   31134   31155   31173      11   31134   31155   31176      11
   31131   31128   31149      13   31128   31149   31161       5   31125   31113
   31128       5   31125   31143   31161       5   31122   31116   31131      14
   31122   31140   31152       5   31119   31110   31122       5   31119   31134
   31152       6   31119   31134   31155      11   31116   31122   31140      15
   31116   31131   31128      16   31113   31107   31116      17   31113   31125
   31143       5   31113   31128   31131      13   31113   31128   31149       5
   31110   31119   31134       9   31110   31122   31116      15   31110   31122
   31140       5   31107   31104   31110      18   31107   31113   31125      19
   31107   31113   31128      19   31107   31116   31122      20   31107   31116
   31131      21   31104   31107   31113      22   31104   31107   31116      23
   31104   31110   31119      13   31104   31110   31122      13   31458   31461
   31473       3   31443   31458   31461       3   31434   31443   31458       3
   31425   31434   31443       3   31416   31425   31434       3   31404   31416
   31425       3   31386   31404   31416       3   31374   31395   31380       5
   31371   31386   31404       3   31368   31380   31395       5   31365   31347
   31368       6   31365   31374   31395       5   31353   31371   31386       7
   31347   31365   31374       9   31347   31368   31380       9   31344   31326
   31347      11   31341   31353   31371      12   31335   31353   31341       5
   31335   31353   31371      12   31326   31344   31332       9   31326   31347
   31365      11   31326   31347   31368      11   31323   31320   31341      13
   31320   31341   31353       5   31317   31305   31320       5   31317   31335
   31353       5   31314   31308   31323      14   31314   31332   31344       5
   31311   31302   31314       5   31311   31326   31344       6   31311   31326
   31347      11   31308   31314   31332      15   31308   31323   31320      16
   31305   31299   31308      17   31305   31317   31335       5   31305   31320
   31323      13   31305   31320   31341       5   31302   31311   31326       9
   31302   31314   31308      15   31302   31314   31332       5   31299   31296
   31302      18   31299   31305   31317      19   31299   31305   31320      19
   31299   31308   31314      20   31299   31308   31323      21   31296   31299
   31305      22   31296   31299   31308      23   31296   31302   31311      13
   31296   31302   31314      13   31650   31653   31665       3   31635   31650
   31653       3   31626   31635   31650       3   31617   31626   31635       3
   31608   31617   31626       3   31596   31608   31617       3   31578   31596
   31608       3   31566   31587   31572       5   31563   31578   31596       3
   31560   31572   31587       5   31557   31539   31560       6   31557   31566
   31587       5   31545   31563   31578       7   31539   31557   31566       9
   31539   31560   31572       9   31536   31518   31539      11   31533   31545
   31563      12   31527   31545   31533       5   31527   31545   31563      12
   31518   31536   31524       9   31518   31539   31557      11   31518   31539
   31560      11   31515   31512   31533      13   31512   31533   31545       5
   31509   31497   31512       5   31509   31527   31545       5   31506   31500
   31515      14   31506   31524   31536       5   31503   31494   31506       5
   31503   31518   31536       6   31503   31518   31539      11   31500   31506
   31524      15   31500   31515   31512      16   31497   31491   31500      17
   31497   31509   31527       5   31497   31512   31515      13   31497   31512
   31533       5   31494   31503   31518       9   31494   31506   31500      15
   31494   31506   31524       5   31491   31488   31494      18   31491   31497
   31509      19   31491   31497   31512      19   31491   31500   31506      20
   31491   31500   31515      21   31488   31491   31497      22   31488   31491
   31500      23   31488   31494   31503      13   31488   31494   31506      13
   31842   31845   31857       3   31827   31842   31845       3   31818   31827
   31842       3   31809   31818   31827       3   31800   31809   31818       3
   31788   31800   31809       3   31770   31788   31800       3   31758   31779
   31764       5   31755   31770   31788       3   31752   31764   31779       5
   31749   31731   31752       6   31749   31758   31779       5   31737   31755
   31770       7   31731   31749   31758       9   31731   31752   31764       9
   31728   31710   31731      11   31725   31737   31755      12   31719   31737
   31725       5   31719   31737   31755      12   31710   31728   31716       9
   31710   31731   31749      11   31710   31731   31752      11   31707   31704
   31725      13   31704   31725   31737       5   31701   31689   31704       5
   31701   31719   31737       5   31698   31692   31707      14   31698   31716
   31728       5   31695   31686   31698       5   31695   31710   31728       6
   31695   31710   31731      11   31692   31698   31716      15   31692   31707
   31704      16   31689   31683   31692      17   31689   31701   31719       5
   31689   31704   31707      13   31689   31704   31725       5   31686   31695
   31710       9   31686   31698   31692      15   31686   31698   31716       5
   31683   31680   31686      18   31683   31689   31701      19   31683   31689
   31704      19   31683   31692   31698      20   31683   31692   31707      21
   31680   31683   31689      22   31680   31683   31692      23   31680   31686
   31695      13   31680   31686   31698      13   32034   32037   32049       3
   32019   32034   32037       3   32010   32019   32034       3   32001   32010
   32019       3   31992   32001   32010       3   31980   31992   32001       3
   31962   31980   31992       3   31950   31971   31956       5   31947   31962
   31980       3   31944   31956   31971       5   31941   31923   31944       6
   31941   31950   31971       5   31929   31947   31962       7   31923   31941
   31950       9   31923   31944   31956       9   31920   31902   31923      11
   31917   31929   31947      12   31911   31929   31917       5   31911   31929
   31947      12   31902   31920   31908       9   31902   31923   31941      11
   31902   31923   31944      11   31899   31896   31917      13   31896   31917
   31929       5   31893   31881   31896       5   31893   31911   31929       5
   31890   31884   31899      14   31890   31908   31920       5   31887   31878
   31890       5   31887   31902   31920       6   31887   31902   31923      11
   31884   31890   31908      15   31884   31899   31896      16   31881   31875
   31884      17   31881   31893   31911       5   31881   31896   31899      13
   31881   31896   31917       5   31878   31887   31902       9   31878   31890
   31884      15   31878   31890   31908       5   31875   31872   31878      18
   31875   31881   31893      19   31875   31881   31896      19   31875   31884
   31890      20   31875   31884   31899      21   31872   31875   31881      22
   31872   31875   31884      23   31872   31878   31887      13   31872   31878
   31890      13   32226   32229   32241       3   32211   32226   32229       3
   32202   32211   32226       3   32193   32202   32211       3   32184   32193
   32202       3   32172   32184   32193       3   32154   32172   32184       3
   32142   32163   32148       5   32139   32154   32172       3   32136   32148
   32163       5   32133   32115   32136       6   32133   32142   32163       5
   32121   32139   32154       7   32115   32133   32142       9   32115   32136
   32148       9   32112   32094   32115      11   32109   32121   32139      12
   32103   32121   32109       5   32103   32121   32139      12   32094   32112
   32100       9   32094   32115   32133      11   32094   32115   32136      11
   32091   32088   32109      13   32088   32109   32121       5   32085   32073
   32088       5   32085   32103   32121       5   32082   32076   32091      14
   32082   32100   32112       5   32079   32070   32082       5   32079   32094
   32112       6   32079   32094   32115      11   32076   32082   32100      15
   32076   32091   32088      16   32073   32067   32076      17   32073   32085
   32103       5   32073   32088   32091      13   32073   32088   32109       5
   32070   32079   32094       9   32070   32082   32076      15   32070   32082
   32100       5   32067   32064   32070      18   32067   32073   32085      19
   32067   32073   32088      19   32067   32076   32082      20   32067   32076
   32091      21   32064   32067   32073      22   32064   32067   32076      23
   32064   32070   32079      13   32064   32070   32082      13   32418   32421
   32433       3   32403   32418   32421       3   32394   32403   32418       3
   32385   32394   32403       3   32376   32385   32394       3   32364   32376
   32385       3   32346   32364   32376       3   32334   32355   32340       5
   32331   32346   32364       3   32328   32340   32355       5   32325   32307
   32328       6   32325   32334   32355       5   32313   32331   32346       7
   32307   32325   32334       9   32307   32328   32340       9   32304   32286
   32307      11   32301   32313   32331      12   32295   32313   32301       5
   32295   32313   32331      12   32286   32304   32292       9   32286   32307
   32325      11   32286   32307   32328      11   32283   32280   32301      13
   32280   32301   32313       5   32277   32265   32280       5   32277   32295
   32313       5   32274   32268   32283      14   32274   32292   32304       5
   32271   32262   32274       5   32271   32286   32304       6   32271   32286
   32307      11   32268   32274   32292      15   32268   32283   32280      16
   32265   32259   32268      17   32265   32277   32295       5   32265   32280
   32283      13   32265   32280   32301       5   32262   32271   32286       9
   32262   32274   32268      15   32262   32274   32292       5   32259   32256
   32262      18   32259   32265   32277      19   32259   32265   32280      19
   32259   32268   32274      20   32259   32268   32283      21   32256   32259
   32265      22   32256   32259   32268      23   32256   32262   32271      13
   32256   32262   32274      13   32610   32613   32625       3   32595   32610
   32613       3   32586   32595   32610       3   32577   32586   32595       3
   32568   32577   32586       3   32556   32568   32577       3   32538   32556
   32568       3   32526   32547   32532       5   32523   32538   32556       3
   32520   32532   32547       5   32517   32499   32520       6   32517   32526
   32547       5   32505   32523   32538       7   32499   32517   32526       9
   32499   32520   32532       9   32496   32478   32499      11   32493   32505
   32523      12   32487   32505   32493       5   32487   32505   32523      12
   32478   32496   32484       9   32478   32499   32517      11   32478   32499
   32520      11   32475   32472   32493      13   32472   32493   32505       5
   32469   32457   32472       5   32469   32487   32505       5   32466   32460
   32475      14   32466   32484   32496       5   32463   32454   32466       5
   32463   32478   32496       6   32463   32478   32499      11   32460   32466
   32484      15   32460   32475   32472      16   32457   32451   32460      17
   32457   32469   32487       5   32457   32472   32475      13   32457   32472
   32493       5   32454   32463   32478       9   32454   32466   32460      15
   32454   32466   32484       5   32451   32448   32454      18   32451   32457
   32469      19   32451   32457   32472      19   32451   32460   32466      20
   32451   32460   32475      21   32448   32451   32457      22   32448   32451
   32460      23   32448   32454   32463      13   32448   32454   32466      13
   32802   32805   32817       3   32787   32802   32805       3   32778   32787
   32802       3   32769   32778   32787       3   32760   32769   32778       3
   32748   32760   32769       3   32730   32748   32760       3   32718   32739
   32724       5   32715   32730   32748       3   32712   32724   32739       5
   32709   32691   32712       6   32709   32718   32739       5   32697   32715
   32730       7   32691   32709   32718       9   32691   32712   32724       9
   32688   32670   32691      11   32685   32697   32715      12   32679   32697
   32685       5   32679   32697   32715      12   32670   32688   32676       9
   32670   32691   32709      11   32670   32691   32712      11   32667   32664
   32685      13   32664   32685   32697       5   32661   32649   32664       5
   32661   32679   32697       5   32658   32652   32667      14   32658   32676
   32688       5   32655   32646   32658       5   32655   32670   32688       6
   32655   32670   32691      11   32652   32658   32676      15   32652   32667
   32664      16   32649   32643   32652      17   32649   32661   32679       5
   32649   32664   32667      13   32649   32664   32685       5   32646   32655
   32670       9   32646   32658   32652      15   32646   32658   32676       5
   32643   32640   32646      18   32643   32649   32661      19   32643   32649
   32664      19   32643   32652   32658      20   32643   32652   32667      21
   32640   32643   32649      22   32640   32643   32652      23   32640   32646
   32655      13   32640   32646   32658      13   32994   32997   33009       3
   32979   32994   32997       3   32970   32979   32994       3   32961   32970
   32979       3   32952   32961   32970       3   32940   32952   32961       3
   32922   32940   32952       3   32910   32931   32916       5   32907   32922
   32940       3   32904   32916   32931       5   32901   32883   32904       6
   32901   32910   32931       5   32889   32907   32922       7   32883   32901
   32910       9   32883   32904   32916       9   32880   32862   32883      11
   32877   32889   32907      12   32871   32889   32877       5   32871   32889
   32907      12   32862   32880   32868       9   32862   32883   32901      11
   32862   32883   32904      11   32859   32856   32877      13   32856   32877
   32889       5   32853   32841   32856       5   32853   32871   32889       5
   32850   32844   32859      14   32850   32868   32880       5   32847   32838
   32850       5   32847   32862   32880       6   32847   32862   32883      11
   32844   32850   32868      15   32844   32859   32856      16   32841   32835
   32844      17   32841   32853   32871       5   32841   32856   32859      13
   32841   32856   32877       5   32838   32847   32862       9   32838   32850
   32844      15   32838   32850   32868       5   32835   32832   32838      18
   32835   32841   32853      19   32835   32841   32856      19   32835   32844
   32850      20   32835   32844   32859      21   32832   32835   32841      22
   32832   32835   32844      23   32832   32838   32847      13   32832   32838
   32850      13   33186   33189   33201       3   33171   33186   33189       3
   33162   33171   33186       3   33153   33162   33171       3   33144   33153
   33162       3   33132   33144   33153       3   33114   33132   33144       3
   33102   33123   33108       5   33099   33114   33132       3   33096   33108
   33123       5   33093   33075   33096       6   33093   33102   33123       5
   33081   33099   33114       7   33075   33093   33102       9   33075   33096
   33108       9   33072   33054   33075      11   33069   33081   33099      12
   33063   33081   33069       5   33063   33081   33099      12   33054   33072
   33060       9   33054   33075   33093      11   33054   33075   33096      11
   33051   33048   33069      13   33048   33069   33081       5   33045   33033
   33048       5   33045   33063   33081       5   33042   33036   33051      14
   33042   33060   33072       5   33039   33030   33042       5   33039   33054
   33072       6   33039   33054   33075      11   33036   33042   33060      15
   33036   33051   33048      16   33033   33027   33036      17   33033   33045
   33063       5   33033   33048   33051      13   33033   33048   33069       5
   33030   33039   33054       9   33030   33042   33036      15   33030   33042
   33060       5   33027   33024   33030      18   33027   33033   33045      19
   33027   33033   33048      19   33027   33036   33042      20   33027   33036
   33051      21   33024   33027   33033      22   33024   33027   33036      23
   33024   33030   33039      13   33024   33030   33042      13   33378   33381
   33393       3   33363   33378   33381       3   33354   33363   33378       3
   33345   33354   33363       3   33336   33345   33354       3   33324   33336
   33345       3   33306   33324   33336       3   33294   33315   33300       5
   33291   33306   33324       3   33288   33300   33315       5   33285   33267
   33288       6   33285   33294   33315       5   33273   33291   33306       7
   33267   33285   33294       9   33267   33288   33300       9   33264   33246
   33267      11   33261   33273   33291      12   33255   33273   33261       5
   33255   33273   33291      12   33246   33264   33252       9   33246   33267
   33285      11   33246   33267   33288      11   33243   33240   33261      13
   33240   33261   33273       5   33237   33225   33240       5   33237   33255
   33273       5   33234   33228   33243      14   33234   33252   33264       5
   33231   33222   33234       5   33231   33246   33264       6   33231   33246
   33267      11   33228   33234   33252      15   33228   33243   33240      16
   33225   33219   33228      17   33225   33237   33255       5   33225   33240
   33243      13   33225   33240   33261       5   33222   33231   33246       9
   33222   33234   33228      15   33222   33234   33252       5   33219   33216
   33222      18   33219   33225   33237      19   33219   33225   33240      19
   33219   33228   33234      20   33219   33228   33243      21   33216   33219
   33225      22   33216   33219   33228      23   33216   33222   33231      13
   33216   33222   33234      13   33570   33573   33585       3   33555   33570
   33573       3   33546   33555   33570       3   33537   33546   33555       3
   33528   33537   33546       3   33516   33528   33537       3   33498   33516
   33528       3   33486   33507   33492       5   33483   33498   33516       3
   33480   33492   33507       5   33477   33459   33480       6   33477   33486
   33507       5   33465   33483   33498       7   33459   33477   33486       9
   33459   33480   33492       9   33456   33438   33459      11   33453   33465
   33483      12   33447   33465   33453       5   33447   33465   33483      12
   33438   33456   33444       9   33438   33459   33477      11   33438   33459
   33480      11   33435   33432   33453      13   33432   33453   33465       5
   33429   33417   33432       5   33429   33447   33465       5   33426   33420
   33435      14   33426   33444   33456       5   33423   33414   33426       5
   33423   33438   33456       6   33423   33438   33459      11   33420   33426
   33444      15   33420   33435   33432      16   33417   33411   33420      17
   33417   33429   33447       5   33417   33432   33435      13   33417   33432
   33453       5   33414   33423   33438       9   33414   33426   33420      15
   33414   33426   33444       5   33411   33408   33414      18   33411   33417
   33429      19   33411   33417   33432      19   33411   33420   33426      20
   33411   33420   33435      21   33408   33411   33417      22   33408   33411
   33420      23   33408   33414   33423      13   33408   33414   33426      13
   33762   33765   33777       3   33747   33762   33765       3   33738   33747
   33762       3   33729   33738   33747       3   33720   33729   33738       3
   33708   33720   33729       3   33690   33708   33720       3   33678   33699
   33684       5   33675   33690   33708       3   33672   33684   33699       5
   33669   33651   33672       6   33669   33678   33699       5   33657   33675
   33690       7   33651   33669   33678       9   33651   33672   33684       9
   33648   33630   33651      11   33645   33657   33675      12   33639   33657
   33645       5   33639   33657   33675      12   33630   33648   33636       9
   33630   33651   33669      11   33630   33651   33672      11   33627   33624
   33645      13   33624   33645   33657       5   33621   33609   33624       5
   33621   33639   33657       5   33618   33612   33627      14   33618   33636
   33648       5   33615   33606   33618       5   33615   33630   33648       6
   33615   33630   33651      11   33612   33618   33636      15   33612   33627
   33624      16   33609   33603   33612      17   33609   33621   33639       5
   33609   33624   33627      13   33609   33624   33645       5   33606   33615
   33630       9   33606   33618   33612      15   33606   33618   33636       5
   33603   33600   33606      18   33603   33609   33621      19   33603   33609
   33624      19   33603   33612   33618      20   33603   33612   33627      21
   33600   33603   33609      22   33600   33603   33612      23   33600   33606
   33615      13   33600   33606   33618      13   33954   33957   33969       3
   33939   33954   33957       3   33930   33939   33954       3   33921   33930
   33939       3   33912   33921   33930       3   33900   33912   33921       3
   33882   33900   33912       3   33870   33891   33876       5   33867   33882
   33900       3   33864   33876   33891       5   33861   33843   33864       6
   33861   33870   33891       5   33849   33867   33882       7   33843   33861
   33870       9   33843   33864   33876       9   33840   33822   33843      11
   33837   33849   33867      12   33831   33849   33837       5   33831   33849
   33867      12   33822   33840   33828       9   33822   33843   33861      11
   33822   33843   33864      11   33819   33816   33837      13   33816   33837
   33849       5   33813   33801   33816       5   33813   33831   33849       5
   33810   33804   33819      14   33810   33828   33840       5   33807   33798
   33810       5   33807   33822   33840       6   33807   33822   33843      11
   33804   33810   33828      15   33804   33819   33816      16   33801   33795
   33804      17   33801   33813   33831       5   33801   33816   33819      13
   33801   33816   33837       5   33798   33807   33822       9   33798   33810
   33804      15   33798   33810   33828       5   33795   33792   33798      18
   33795   33801   33813      19   33795   33801   33816      19   33795   33804
   33810      20   33795   33804   33819      21   33792   33795   33801      22
   33792   33795   33804      23   33792   33798   33807      13   33792   33798
   33810      13   34146   34149   34161       3   34131   34146   34149       3
   34122   34131   34146       3   34113   34122   34131       3   34104   34113
   34122       3   34092   34104   34113       3   34074   34092   34104       3
   34062   34083   34068       5   34059   34074   34092       3   34056   34068
   34083       5   34053   34035   34056       6   34053   34062   34083       5
   34041   34059   34074       7   34035   34053   34062       9   34035   34056
   34068       9   34032   34014   34035      11   34029   34041   34059      12
   34023   34041   34029       5   34023   34041   34059      12   34014   34032
   34020       9   34014   34035   34053      11   34014   34035   34056      11
   34011   34008   34029      13   34008   34029   34041       5   34005   33993
   34008       5   34005   34023   34041       5   34002   33996   34011      14
   34002   34020   34032       5   33999   33990   34002       5   33999   34014
   34032       6   33999   34014   34035      11   33996   34002   34020      15
   33996   34011   34008      16   33993   33987   33996      17   33993   34005
   34023       5   33993   34008   34011      13   33993   34008   34029       5
   33990   33999   34014       9   33990   34002   33996      15   33990   34002
   34020       5   33987   33984   33990      18   33987   33993   34005      19
   33987   33993   34008      19   33987   33996   34002      20   33987   33996
   34011      21   33984   33987   33993      22   33984   33987   33996      23
   33984   33990   33999      13   33984   33990   34002      13   34338   34341
   34353       3   34323   34338   34341       3   34314   34323   34338       3
   34305   34314   34323       3   34296   34305   34314       3   34284   34296
   34305       3   34266   34284   34296       3   34254   34275   34260       5
   34251   34266   34284       3   34248   34260   34275       5   34245   34227
   34248       6   34245   34254   34275       5   34233   34251   34266       7
   34227   34245   34254       9   34227   34248   34260       9   34224   34206
   34227      11   34221   34233   34251      12   34215   34233   34221       5
   34215   34233   34251      12   34206   34224   34212       9   34206   34227
   34245      11   34206   34227   34248      11   34203   34200   34221      13
   34200   34221   34233       5   34197   34185   34200       5   34197   34215
   34233       5   34194   34188   34203      14   34194   34212   34224       5
   34191   34182   34194       5   34191   34206   34224       6   34191   34206
   34227      11   34188   34194   34212      15   34188   34203   34200      16
   34185   34179   34188      17   34185   34197   34215       5   34185   34200
   34203      13   34185   34200   34221       5   34182   34191   34206       9
   34182   34194   34188      15   34182   34194   34212       5   34179   34176
   34182      18   34179   34185   34197      19   34179   34185   34200      19
   34179   34188   34194      20   34179   34188   34203      21   34176   34179
   34185      22   34176   34179   34188      23   34176   34182   34191      13
   34176   34182   34194      13   34530   34533   34545       3   34515   34530
   34533       3   34506   34515   34530       3   34497   34506   34515       3
   34488   34497   34506       3   34476   34488   34497       3   34458   34476
   34488       3   34446   34467   34452       5   34443   34458   34476       3
   34440   34452   34467       5   34437   34419   34440       6   34437   34446
   34467       5   34425   34443   34458       7   34419   34437   34446       9
   34419   34440   34452       9   34416   34398   34419      11   34413   34425
   34443      12   34407   34425   34413       5   34407   34425   34443      12
   34398   34416   34404       9   34398   34419   34437      11   34398   34419
   34440      11   34395   34392   34413      13   34392   34413   34425       5
   34389   34377   34392       5   34389   34407   34425       5   34386   34380
   34395      14   34386   34404   34416       5   34383   34374   34386       5
   34383   34398   34416       6   34383   34398   34419      11   34380   34386
   34404      15   34380   34395   34392      16   34377   34371   34380      17
   34377   34389   34407       5   34377   34392   34395      13   34377   34392
   34413       5   34374   34383   34398       9   34374   34386   34380      15
   34374   34386   34404       5   34371   34368   34374      18   34371   34377
   34389      19   34371   34377   34392      19   34371   34380   34386      20
   34371   34380   34395      21   34368   34371   34377      22   34368   34371
   34380      23   34368   34374   34383      13   34368   34374   34386      13
   34722   34725   34737       3   34707   34722   34725       3   34698   34707
   34722       3   34689   34698   34707       3   34680   34689   34698       3
   34668   34680   34689       3   34650   34668   34680       3   34638   34659
   34644       5   34635   34650   34668       3   34632   34644   34659       5
   34629   34611   34632       6   34629   34638   34659       5   34617   34635
   34650       7   34611   34629   34638       9   34611   34632   34644       9
   34608   34590   34611      11   34605   34617   34635      12   34599   34617
   34605       5   34599   34617   34635      12   34590   34608   34596       9
   34590   34611   34629      11   34590   34611   34632      11   34587   34584
   34605      13   34584   34605   34617       5   34581   34569   34584       5
   34581   34599   34617       5   34578   34572   34587      14   34578   34596
   34608       5   34575   34566   34578       5   34575   34590   34608       6
   34575   34590   34611      11   34572   34578   34596      15   34572   34587
   34584      16   34569   34563   34572      17   34569   34581   34599       5
   34569   34584   34587      13   34569   34584   34605       5   34566   34575
   34590       9   34566   34578   34572      15   34566   34578   34596       5
   34563   34560   34566      18   34563   34569   34581      19   34563   34569
   34584      19   34563   34572   34578      20   34563   34572   34587      21
   34560   34563   34569      22   34560   34563   34572      23   34560   34566
   34575      13   34560   34566   34578      13   34914   34917   34929       3
   34899   34914   34917       3   34890   34899   34914       3   34881   34890
   34899       3   34872   34881   34890       3   34860   34872   34881       3
   34842   34860   34872       3   34830   34851   34836       5   34827   34842
   34860       3   34824   34836   34851       5   34821   34803   34824       6
   34821   34830   34851       5   34809   34827   34842       7   34803   34821
   34830       9   34803   34824   34836       9   34800   34782   34803      11
   34797   34809   34827      12   34791   34809   34797       5   34791   34809
   34827      12   34782   34800   34788       9   34782   34803   34821      11
   34782   34803   34824      11   34779   34776   34797      13   34776   34797
   34809       5   34773   34761   34776       5   34773   34791   34809       5
   34770   34764   34779      14   34770   34788   34800       5   34767   34758
   34770       5   34767   34782   34800       6   34767   34782   34803      11
   34764   34770   34788      15   34764   34779   34776      16   34761   34755
   34764      17   34761   34773   34791       5   34761   34776   34779      13
   34761   34776   34797       5   34758   34767   34782       9   34758   34770
   34764      15   34758   34770   34788       5   34755   34752   34758      18
   34755   34761   34773      19   34755   34761   34776      19   34755   34764
   34770      20   34755   34764   34779      21   34752   34755   34761      22
   34752   34755   34764      23   34752   34758   34767      13   34752   34758
   34770      13   35106   35109   35121       3   35091   35106   35109       3
   35082   35091   35106       3   35073   35082   35091       3   35064   35073
   35082       3   35052   35064   35073       3   35034   35052   35064       3
   35022   35043   35028       5   35019   35034   35052       3   35016   35028
   35043       5   35013   34995   35016       6   35013   35022   35043       5
   35001   35019   35034       7   34995   35013   35022       9   34995   35016
   35028       9   34992   34974   34995      11   34989   35001   35019      12
   34983   35001   34989       5   34983   35001   35019      12   34974   34992
   34980       9   34974   34995   35013      11   34974   34995   35016      11
   34971   34968   34989      13   34968   34989   35001       5   34965   34953
   34968       5   34965   34983   35001       5   34962   34956   34971      14
   34962   34980   34992       5   34959   34950   34962       5   34959   34974
   34992       6   34959   34974   34995      11   34956   34962   34980      15
   34956   34971   34968      16   34953   34947   34956      17   34953   34965
   34983       5   34953   34968   34971      13   34953   34968   34989       5
   34950   34959   34974       9   34950   34962   34956      15   34950   34962
   34980       5   34947   34944   34950      18   34947   34953   34965      19
   34947   34953   34968      19   34947   34956   34962      20   34947   34956
   34971      21   34944   34947   34953      22   34944   34947   34956      23
   34944   34950   34959      13   34944   34950   34962      13   35298   35301
   35313       3   35283   35298   35301       3   35274   35283   35298       3
   35265   35274   35283       3   35256   35265   35274       3   35244   35256
   35265       3   35226   35244   35256       3   35214   35235   35220       5
   35211   35226   35244       3   35208   35220   35235       5   35205   35187
   35208       6   35205   35214   35235       5   35193   35211   35226       7
   35187   35205   35214       9   35187   35208   35220       9   35184   35166
   35187      11   35181   35193   35211      12   35175   35193   35181       5
   35175   35193   35211      12   35166   35184   35172       9   35166   35187
   35205      11   35166   35187   35208      11   35163   35160   35181      13
   35160   35181   35193       5   35157   35145   35160       5   35157   35175
   35193       5   35154   35148   35163      14   35154   35172   35184       5
   35151   35142   35154       5   35151   35166   35184       6   35151   35166
   35187      11   35148   35154   35172      15   35148   35163   35160      16
   35145   35139   35148      17   35145   35157   35175       5   35145   35160
   35163      13   35145   35160   35181       5   35142   35151   35166       9
   35142   35154   35148      15   35142   35154   35172       5   35139   35136
   35142      18   35139   35145   35157      19   35139   35145   35160      19
   35139   35148   35154      20   35139   35148   35163      21   35136   35139
   35145      22   35136   35139   35148      23   35136   35142   35151      13
   35136   35142   35154      13   35490   35493   35505       3   35475   35490
   35493       3   35466   35475   35490       3   35457   35466   35475       3
   35448   35457   35466       3   35436   35448   35457       3   35418   35436
   35448       3   35406   35427   35412       5   35403   35418   35436       3
   35400   35412   35427       5   35397   35379   35400       6   35397   35406
   35427       5   35385   35403   35418       7   35379   35397   35406       9
   35379   35400   35412       9   35376   35358   35379      11   35373   35385
   35403      12   35367   35385   35373       5   35367   35385   35403      12
   35358   35376   35364       9   35358   35379   35397      11   35358   35379
   35400      11   35355   35352   35373      13   35352   35373   35385       5
   35349   35337   35352       5   35349   35367   35385       5   35346   35340
   35355      14   35346   35364   35376       5   35343   35334   35346       5
   35343   35358   35376       6   35343   35358   35379      11   35340   35346
   35364      15   35340   35355   35352      16   35337   35331   35340      17
   35337   35349   35367       5   35337   35352   35355      13   35337   35352
   35373       5   35334   35343   35358       9   35334   35346   35340      15
   35334   35346   35364       5   35331   35328   35334      18   35331   35337
   35349      19   35331   35337   35352      19   35331   35340   35346      20
   35331   35340   35355      21   35328   35331   35337      22   35328   35331
   35340      23   35328   35334   35343      13   35328   35334   35346      13
   35682   35685   35697       3   35667   35682   35685       3   35658   35667
   35682       3   35649   35658   35667       3   35640   35649   35658       3
   35628   35640   35649       3   35610   35628   35640       3   35598   35619
   35604       5   35595   35610   35628       3   35592   35604   35619       5
   35589   35571   35592       6   35589   35598   35619       5   35577   35595
   35610       7   35571   35589   35598       9   35571   35592   35604       9
   35568   35550   35571      11   35565   35577   35595      12   35559   35577
   35565       5   35559   35577   35595      12   35550   35568   35556       9
   35550   35571   35589      11   35550   35571   35592      11   35547   35544
   35565      13   35544   35565   35577       5   35541   35529   35544       5
   35541   35559   35577       5   35538   35532   35547      14   35538   35556
   35568       5   35535   35526   35538       5   35535   35550   35568       6
   35535   35550   35571      11   35532   35538   35556      15   35532   35547
   35544      16   35529   35523   35532      17   35529   35541   35559       5
   35529   35544   35547      13   35529   35544   35565       5   35526   35535
   35550       9   35526   35538   35532      15   35526   35538   35556       5
   35523   35520   35526      18   35523   35529   35541      19   35523   35529
   35544      19   35523   35532   35538      20   35523   35532   35547      21
   35520   35523   35529      22   35520   35523   35532      23   35520   35526
   35535      13   35520   35526   35538      13   35874   35877   35889       3
   35859   35874   35877       3   35850   35859   35874       3   35841   35850
   35859       3   35832   35841   35850       3   35820   35832   35841       3
   35802   35820   35832       3   35790   35811   35796       5   35787   35802
   35820       3   35784   35796   35811       5   35781   35763   35784       6
   35781   35790   35811       5   35769   35787   35802       7   35763   35781
   35790       9   35763   35784   35796       9   35760   35742   35763      11
   35757   35769   35787      12   35751   35769   35757       5   35751   35769
   35787      12   35742   35760   35748       9   35742   35763   35781      11
   35742   35763   35784      11   35739   35736   35757      13   35736   35757
   35769       5   35733   35721   35736       5   35733   35751   35769       5
   35730   35724   35739      14   35730   35748   35760       5   35727   35718
   35730       5   35727   35742   35760       6   35727   35742   35763      11
   35724   35730   35748      15   35724   35739   35736      16   35721   35715
   35724      17   35721   35733   35751       5   35721   35736   35739      13
   35721   35736   35757       5   35718   35727   35742       9   35718   35730
   35724      15   35718   35730   35748       5   35715   35712   35718      18
   35715   35721   35733      19   35715   35721   35736      19   35715   35724
   35730      20   35715   35724   35739      21   35712   35715   35721      22
   35712   35715   35724      23   35712   35718   35727      13   35712   35718
   35730      13   36066   36069   36081       3   36051   36066   36069       3
   36042   36051   36066       3   36033   36042   36051       3   36024   36033
   36042       3   36012   36024   36033       3   35994   36012   36024       3
   35982   36003   35988       5   35979   35994   36012       3   35976   35988
   36003       5   35973   35955   35976       6   35973   35982   36003       5
   35961   35979   35994       7   35955   35973   35982       9   35955   35976
   35988       9   35952   35934   35955      11   35949   35961   35979      12
   35943   35961   35949       5   35943   35961   35979      12   35934   35952
   35940       9   35934   35955   35973      11   35934   35955   35976      11
   35931   35928   35949      13   35928   35949   35961       5   35925   35913
   35928       5   35925   35943   35961       5   35922   35916   35931      14
   35922   35940   35952       5   35919   35910   35922       5   35919   35934
   35952       6   35919   35934   35955      11   35916   35922   35940      15
   35916   35931   35928      16   35913   35907   35916      17   35913   35925
   35943       5   35913   35928   35931      13   35913   35928   35949       5
   35910   35919   35934       9   35910   35922   35916      15   35910   35922
   35940       5   35907   35904   35910      18   35907   35913   35925      19
   35907   35913   35928      19   35907   35916   35922      20   35907   35916
   35931      21   35904   35907   35913      22   35904   35907   35916      23
   35904   35910   35919      13   35904   35910   35922      13   36258   36261
   36273       3   36243   36258   36261       3   36234   36243   36258       3
   36225   36234   36243       3   36216   36225   36234       3   36204   36216
   36225       3   36186   36204   36216       3   36174   36195   36180       5
   36171   36186   36204       3   36168   36180   36195       5   36165   36147
   36168       6   36165   36174   36195       5   36153   36171   36186       7
   36147   36165   36174       9   36147   36168   36180       9   36144   36126
   36147      11   36141   36153   36171      12   36135   36153   36141       5
   36135   36153   36171      12   36126   36144   36132       9   36126   36147
   36165      11   36126   36147   36168      11   36123   36120   36141      13
   36120   36141   36153       5   36117   36105   36120       5   36117   36135
   36153       5   36114   36108   36123      14   36114   36132   36144       5
   36111   36102   36114       5   36111   36126   36144       6   36111   36126
   36147      11   36108   36114   36132      15   36108   36123   36120      16
   36105   36099   36108      17   36105   36117   36135       5   36105   36120
   36123      13   36105   36120   36141       5   36102   36111   36126       9
   36102   36114   36108      15   36102   36114   36132       5   36099   36096
   36102      18   36099   36105   36117      19   36099   36105   36120      19
   36099   36108   36114      20   36099   36108   36123      21   36096   36099
   36105      22   36096   36099   36108      23   36096   36102   36111      13
   36096   36102   36114      13   36450   36453   36465       3   36435   36450
   36453       3   36426   36435   36450       3   36417   36426   36435       3
   36408   36417   36426       3   36396   36408   36417       3   36378   36396
   36408       3   36366   36387   36372       5   36363   36378   36396       3
   36360   36372   36387       5   36357   36339   36360       6   36357   36366
   36387       5   36345   36363   36378       7   36339   36357   36366       9
   36339   36360   36372       9   36336   36318   36339      11   36333   36345
   36363      12   36327   36345   36333       5   36327   36345   36363      12
   36318   36336   36324       9   36318   36339   36357      11   36318   36339
   36360      11   36315   36312   36333      13   36312   36333   36345       5
   36309   36297   36312       5   36309   36327   36345       5   36306   36300
   36315      14   36306   36324   36336       5   36303   36294   36306       5
   36303   36318   36336       6   36303   36318   36339      11   36300   36306
   36324      15   36300   36315   36312      16   36297   36291   36300      17
   36297   36309   36327       5   36297   36312   36315      13   36297   36312
   36333       5   36294   36303   36318       9   36294   36306   36300      15
   36294   36306   36324       5   36291   36288   36294      18   36291   36297
   36309      19   36291   36297   36312      19   36291   36300   36306      20
   36291   36300   36315      21   36288   36291   36297      22   36288   36291
   36300      23   36288   36294   36303      13   36288   36294   36306      13
   36642   36645   36657       3   36627   36642   36645       3   36618   36627
   36642       3   36609   36618   36627       3   36600   36609   36618       3
   36588   36600   36609       3   36570   36588   36600       3   36558   36579
   36564       5   36555   36570   36588       3   36552   36564   36579       5
   36549   36531   36552       6   36549   36558   36579       5   36537   36555
   36570       7   36531   36549   36558       9   36531   36552   36564       9
   36528   36510   36531      11   36525   36537   36555      12   36519   36537
   36525       5   36519   36537   36555      12   36510   36528   36516       9
   36510   36531   36549      11   36510   36531   36552      11   36507   36504
   36525      13   36504   36525   36537       5   36501   36489   36504       5
   36501   36519   36537       5   36498   36492   36507      14   36498   36516
   36528       5   36495   36486   36498       5   36495   36510   36528       6
   36495   36510   36531      11   36492   36498   36516      15   36492   36507
   36504      16   36489   36483   36492      17   36489   36501   36519       5
   36489   36504   36507      13   36489   36504   36525       5   36486   36495
   36510       9   36486   36498   36492      15   36486   36498   36516       5
   36483   36480   36486      18   36483   36489   36501      19   36483   36489
   36504      19   36483   36492   36498      20   36483   36492   36507      21
   36480   36483   36489      22   36480   36483   36492      23   36480   36486
   36495      13   36480   36486   36498      13   36834   36837   36849       3
   36819   36834   36837       3   36810   36819   36834       3   36801   36810
   36819       3   36792   36801   36810       3   36780   36792   36801       3
   36762   36780   36792       3   36750   36771   36756       5   36747   36762
   36780       3   36744   36756   36771       5   36741   36723   36744       6
   36741   36750   36771       5   36729   36747   36762       7   36723   36741
   36750       9   36723   36744   36756       9   36720   36702   36723      11
   36717   36729   36747      12   36711   36729   36717       5   36711   36729
   36747      12   36702   36720   36708       9   36702   36723   36741      11
   36702   36723   36744      11   36699   36696   36717      13   36696   36717
   36729       5   36693   36681   36696       5   36693   36711   36729       5
   36690   36684   36699      14   36690   36708   36720       5   36687   36678
   36690       5   36687   36702   36720       6   36687   36702   36723      11
   36684   36690   36708      15   36684   36699   36696      16   36681   36675
   36684      17   36681   36693   36711       5   36681   36696   36699      13
   36681   36696   36717       5   36678   36687   36702       9   36678   36690
   36684      15   36678   36690   36708       5   36675   36672   36678      18
   36675   36681   36693      19   36675   36681   36696      19   36675   36684
   36690      20   36675   36684   36699      21   36672   36675   36681      22
   36672   36675   36684      23   36672   36678   36687      13   36672   36678
   36690      13   37026   37029   37041       3   37011   37026   37029       3
   37002   37011   37026       3   36993   37002   37011       3   36984   36993
   37002       3   36972   36984   36993       3   36954   36972   36984       3
   36942   36963   36948       5   36939   36954   36972       3   36936   36948
   36963       5   36933   36915   36936       6   36933   36942   36963       5
   36921   36939   36954       7   36915   36933   36942       9   36915   36936
   36948       9   36912   36894   36915      11   36909   36921   36939      12
   36903   36921   36909       5   36903   36921   36939      12   36894   36912
   36900       9   36894   36915   36933      11   36894   36915   36936      11
   36891   36888   36909      13   36888   36909   36921       5   36885   36873
   36888       5   36885   36903   36921       5   36882   36876   36891      14
   36882   36900   36912       5   36879   36870   36882       5   36879   36894
   36912       6   36879   36894   36915      11   36876   36882   36900      15
   36876   36891   36888      16   36873   36867   36876      17   36873   36885
   36903       5   36873   36888   36891      13   36873   36888   36909       5
   36870   36879   36894       9   36870   36882   36876      15   36870   36882
   36900       5   36867   36864   36870      18   36867   36873   36885      19
   36867   36873   36888      19   36867   36876   36882      20   36867   36876
   36891      21   36864   36867   36873      22   36864   36867   36876      23
   36864   36870   36879      13   36864   36870   36882      13   37218   37221
   37233       3   37203   37218   37221       3   37194   37203   37218       3
   37185   37194   37203       3   37176   37185   37194       3   37164   37176
   37185       3   37146   37164   37176       3   37134   37155   37140       5
   37131   37146   37164       3   37128   37140   37155       5   37125   37107
   37128       6   37125   37134   37155       5   37113   37131   37146       7
   37107   37125   37134       9   37107   37128   37140       9   37104   37086
   37107      11   37101   37113   37131      12   37095   37113   37101       5
   37095   37113   37131      12   37086   37104   37092       9   37086   37107
   37125      11   37086   37107   37128      11   37083   37080   37101      13
   37080   37101   37113       5   37077   37065   37080       5   37077   37095
   37113       5   37074   37068   37083      14   37074   37092   37104       5
   37071   37062   37074       5   37071   37086   37104       6   37071   37086
   37107      11   37068   37074   37092      15   37068   37083   37080      16
   37065   37059   37068      17   37065   37077   37095       5   37065   37080
   37083      13   37065   37080   37101       5   37062   37071   37086       9
   37062   37074   37068      15   37062   37074   37092       5   37059   37056
   37062      18   37059   37065   37077      19   37059   37065   37080      19
   37059   37068   37074      20   37059   37068   37083      21   37056   37059
   37065      22   37056   37059   37068      23   37056   37062   37071      13
   37056   37062   37074      13   37410   37413   37425       3   37395   37410
   37413       3   37386   37395   37410       3   37377   37386   37395       3
   37368   37377   37386       3   37356   37368   37377       3   37338   37356
   37368       3   37326   37347   37332       5   37323   37338   37356       3
   37320   37332   37347       5   37317   37299   37320       6   37317   37326
   37347       5   37305   37323   37338       7   37299   37317   37326       9
   37299   37320   37332       9   37296   37278   37299      11   37293   37305
   37323      12   37287   37305   37293       5   37287   37305   37323      12
   37278   37296   37284       9   37278   37299   37317      11   37278   37299
   37320      11   37275   37272   37293      13   37272   37293   37305       5
   37269   37257   37272       5   37269   37287   37305       5   37266   37260
   37275      14   37266   37284   37296       5   37263   37254   37266       5
   37263   37278   37296       6   37263   37278   37299      11   37260   37266
   37284      15   37260   37275   37272      16   37257   37251   37260      17
   37257   37269   37287       5   37257   37272   37275      13   37257   37272
   37293       5   37254   37263   37278       9   37254   37266   37260      15
   37254   37266   37284       5   37251   37248   37254      18   37251   37257
   37269      19   37251   37257   37272      19   37251   37260   37266      20
   37251   37260   37275      21   37248   37251   37257      22   37248   37251
   37260      23   37248   37254   37263      13   37248   37254   37266      13
   37602   37605   37617       3   37587   37602   37605       3   37578   37587
   37602       3   37569   37578   37587       3   37560   37569   37578       3
   37548   37560   37569       3   37530   37548   37560       3   37518   37539
   37524       5   37515   37530   37548       3   37512   37524   37539       5
   37509   37491   37512       6   37509   37518   37539       5   37497   37515
   37530       7   37491   37509   37518       9   37491   37512   37524       9
   37488   37470   37491      11   37485   37497   37515      12   37479   37497
   37485       5   37479   37497   37515      12   37470   37488   37476       9
   37470   37491   37509      11   37470   37491   37512      11   37467   37464
   37485      13   37464   37485   37497       5   37461   37449   37464       5
   37461   37479   37497       5   37458   37452   37467      14   37458   37476
   37488       5   37455   37446   37458       5   37455   37470   37488       6
   37455   37470   37491      11   37452   37458   37476      15   37452   37467
   37464      16   37449   37443   37452      17   37449   37461   37479       5
   37449   37464   37467      13   37449   37464   37485       5   37446   37455
   37470       9   37446   37458   37452      15   37446   37458   37476       5
   37443   37440   37446      18   37443   37449   37461      19   37443   37449
   37464      19   37443   37452   37458      20   37443   37452   37467      21
   37440   37443   37449      22   37440   37443   37452      23   37440   37446
   37455      13   37440   37446   37458      13   37794   37797   37809       3
   37779   37794   37797       3   37770   37779   37794       3   37761   37770
   37779       3   37752   37761   37770       3   37740   37752   37761       3
   37722   37740   37752       3   37710   37731   37716       5   37707   37722
   37740       3   37704   37716   37731       5   37701   37683   37704       6
   37701   37710   37731       5   37689   37707   37722       7   37683   37701
   37710       9   37683   37704   37716       9   37680   37662   37683      11
   37677   37689   37707      12   37671   37689   37677       5   37671   37689
   37707      12   37662   37680   37668       9   37662   37683   37701      11
   37662   37683   37704      11   37659   37656   37677      13   37656   37677
   37689       5   37653   37641   37656       5   37653   37671   37689       5
   37650   37644   37659      14   37650   37668   37680       5   37647   37638
   37650       5   37647   37662   37680       6   37647   37662   37683      11
   37644   37650   37668      15   37644   37659   37656      16   37641   37635
   37644      17   37641   37653   37671       5   37641   37656   37659      13
   37641   37656   37677       5   37638   37647   37662       9   37638   37650
   37644      15   37638   37650   37668       5   37635   37632   37638      18
   37635   37641   37653      19   37635   37641   37656      19   37635   37644
   37650      20   37635   37644   37659      21   37632   37635   37641      22
   37632   37635   37644      23   37632   37638   37647      13   37632   37638
   37650      13   37986   37989   38001       3   37971   37986   37989       3
   37962   37971   37986       3   37953   37962   37971       3   37944   37953
   37962       3   37932   37944   37953       3   37914   37932   37944       3
   37902   37923   37908       5   37899   37914   37932       3   37896   37908
   37923       5   37893   37875   37896       6   37893   37902   37923       5
   37881   37899   37914       7   37875   37893   37902       9   37875   37896
   37908       9   37872   37854   37875      11   37869   37881   37899      12
   37863   37881   37869       5   37863   37881   37899      12   37854   37872
   37860       9   37854   37875   37893      11   37854   37875   37896      11
   37851   37848   37869      13   37848   37869   37881       5   37845   37833
   37848       5   37845   37863   37881       5   37842   37836   37851      14
   37842   37860   37872       5   37839   37830   37842       5   37839   37854
   37872       6   37839   37854   37875      11   37836   37842   37860      15
   37836   37851   37848      16   37833   37827   37836      17   37833   37845
   37863       5   37833   37848   37851      13   37833   37848   37869       5
   37830   37839   37854       9   37830   37842   37836      15   37830   37842
   37860       5   37827   37824   37830      18   37827   37833   37845      19
   37827   37833   37848      19   37827   37836   37842      20   37827   37836
   37851      21   37824   37827   37833      22   37824   37827   37836      23
   37824   37830   37839      13   37824   37830   37842      13   38178   38181
   38193       3   38163   38178   38181       3   38154   38163   38178       3
   38145   38154   38163       3   38136   38145   38154       3   38124   38136
   38145       3   38106   38124   38136       3   38094   38115   38100       5
   38091   38106   38124       3   38088   38100   38115       5   38085   38067
   38088       6   38085   38094   38115       5   38073   38091   38106       7
   38067   38085   38094       9   38067   38088   38100       9   38064   38046
   38067      11   38061   38073   38091      12   38055   38073   38061       5
   38055   38073   38091      12   38046   38064   38052       9   38046   38067
   38085      11   38046   38067   38088      11   38043   38040   38061      13
   38040   38061   38073       5   38037   38025   38040       5   38037   38055
   38073       5   38034   38028   38043      14   38034   38052   38064       5
   38031   38022   38034       5   38031   38046   38064       6   38031   38046
   38067      11   38028   38034   38052      15   38028   38043   38040      16
   38025   38019   38028      17   38025   38037   38055       5   38025   38040
   38043      13   38025   38040   38061       5   38022   38031   38046       9
   38022   38034   38028      15   38022   38034   38052       5   38019   38016
   38022      18   38019   38025   38037      19   38019   38025   38040      19
   38019   38028   38034      20   38019   38028   38043      21   38016   38019
   38025      22   38016   38019   38028      23   38016   38022   38031      13
   38016   38022   38034      13   38370   38373   38385       3   38355   38370
   38373       3   38346   38355   38370       3   38337   38346   38355       3
   38328   38337   38346       3   38316   38328   38337       3   38298   38316
   38328       3   38286   38307   38292       5   38283   38298   38316       3
   38280   38292   38307       5   38277   38259   38280       6   38277   38286
   38307       5   38265   38283   38298       7   38259   38277   38286       9
   38259   38280   38292       9   38256   38238   38259      11   38253   38265
   38283      12   38247   38265   38253       5   38247   38265   38283      12
   38238   38256   38244       9   38238   38259   38277      11   38238   38259
   38280      11   38235   38232   38253      13   38232   38253   38265       5
   38229   38217   38232       5   38229   38247   38265       5   38226   38220
   38235      14   38226   38244   38256       5   38223   38214   38226       5
   38223   38238   38256       6   38223   38238   38259      11   38220   38226
   38244      15   38220   38235   38232      16   38217   38211   38220      17
   38217   38229   38247       5   38217   38232   38235      13   38217   38232
   38253       5   38214   38223   38238       9   38214   38226   38220      15
   38214   38226   38244       5   38211   38208   38214      18   38211   38217
   38229      19   38211   38217   38232      19   38211   38220   38226      20
   38211   38220   38235      21   38208   38211   38217      22   38208   38211
   38220      23   38208   38214   38223      13   38208   38214   38226      13
   38562   38565   38577       3   38547   38562   38565       3   38538   38547
   38562       3   38529   38538   38547       3   38520   38529   38538       3
   38508   38520   38529       3   38490   38508   38520       3   38478   38499
   38484       5   38475   38490   38508       3   38472   38484   38499       5
   38469   38451   38472       6   38469   38478   38499       5   38457   38475
   38490       7   38451   38469   38478       9   38451   38472   38484       9
   38448   38430   38451      11   38445   38457   38475      12   38439   38457
   38445       5   38439   38457   38475      12   38430   38448   38436       9
   38430   38451   38469      11   38430   38451   38472      11   38427   38424
   38445      13   38424   38445   38457       5   38421   38409   38424       5
   38421   38439   38457       5   38418   38412   38427      14   38418   38436
   38448       5   38415   38406   38418       5   38415   38430   38448       6
   38415   38430   38451      11   38412   38418   38436      15   38412   38427
   38424      16   38409   38403   38412      17   38409   38421   38439       5
   38409   38424   38427      13   38409   38424   38445       5   38406   38415
   38430       9   38406   38418   38412      15   38406   38418   38436       5
   38403   38400   38406      18   38403   38409   38421      19   38403   38409
   38424      19   38403   38412   38418      20   38403   38412   38427      21
   38400   38403   38409      22   38400   38403   38412      23   38400   38406
   38415      13   38400   38406   38418      13   38754   38757   38769       3
   38739   38754   38757       3   38730   38739   38754       3   38721   38730
   38739       3   38712   38721   38730       3   38700   38712   38721       3
   38682   38700   38712       3   38670   38691   38676       5   38667   38682
   38700       3   38664   38676   38691       5   38661   38643   38664       6
   38661   38670   38691       5   38649   38667   38682       7   38643   38661
   38670       9   38643   38664   38676       9   38640   38622   38643      11
   38637   38649   38667      12   38631   38649   38637       5   38631   38649
   38667      12   38622   38640   38628       9   38622   38643   38661      11
   38622   38643   38664      11   38619   38616   38637      13   38616   38637
   38649       5   38613   38601   38616       5   38613   38631   38649       5
   38610   38604   38619      14   38610   38628   38640       5   38607   38598
   38610       5   38607   38622   38640       6   38607   38622   38643      11
   38604   38610   38628      15   38604   38619   38616      16   38601   38595
   38604      17   38601   38613   38631       5   38601   38616   38619      13
   38601   38616   38637       5   38598   38607   38622       9   38598   38610
   38604      15   38598   38610   38628       5   38595   38592   38598      18
   38595   38601   38613      19   38595   38601   38616      19   38595   38604
   38610      20   38595   38604   38619      21   38592   38595   38601      22
   38592   38595   38604      23   38592   38598   38607      13   38592   38598
   38610      13   38946   38949   38961       3   38931   38946   38949       3
   38922   38931   38946       3   38913   38922   38931       3   38904   38913
   38922       3   38892   38904   38913       3   38874   38892   38904       3
   38862   38883   38868       5   38859   38874   38892       3   38856   38868
   38883       5   38853   38835   38856       6   38853   38862   38883       5
   38841   38859   38874       7   38835   38853   38862       9   38835   38856
   38868       9   38832   38814   38835      11   38829   38841   38859      12
   38823   38841   38829       5   38823   38841   38859      12   38814   38832
   38820       9   38814   38835   38853      11   38814   38835   38856      11
   38811   38808   38829      13   38808   38829   38841       5   38805   38793
   38808       5   38805   38823   38841       5   38802   38796   38811      14
   38802   38820   38832       5   38799   38790   38802       5   38799   38814
   38832       6   38799   38814   38835      11   38796   38802   38820      15
   38796   38811   38808      16   38793   38787   38796      17   38793   38805
   38823       5   38793   38808   38811      13   38793   38808   38829       5
   38790   38799   38814       9   38790   38802   38796      15   38790   38802
   38820       5   38787   38784   38790      18   38787   38793   38805      19
   38787   38793   38808      19   38787   38796   38802      20   38787   38796
   38811      21   38784   38787   38793      22   38784   38787   38796      23
   38784   38790   38799      13   38784   38790   38802      13   39138   39141
   39153       3   39123   39138   39141       3   39114   39123   39138       3
   39105   39114   39123       3   39096   39105   39114       3   39084   39096
   39105       3   39066   39084   39096       3   39054   39075   39060       5
   39051   39066   39084       3   39048   39060   39075       5   39045   39027
   39048       6   39045   39054   39075       5   39033   39051   39066       7
   39027   39045   39054       9   39027   39048   39060       9   39024   39006
   39027      11   39021   39033   39051      12   39015   39033   39021       5
   39015   39033   39051      12   39006   39024   39012       9   39006   39027
   39045      11   39006   39027   39048      11   39003   39000   39021      13
   39000   39021   39033       5   38997   38985   39000       5   38997   39015
   39033       5   38994   38988   39003      14   38994   39012   39024       5
   38991   38982   38994       5   38991   39006   39024       6   38991   39006
   39027      11   38988   38994   39012      15   38988   39003   39000      16
   38985   38979   38988      17   38985   38997   39015       5   38985   39000
   39003      13   38985   39000   39021       5   38982   38991   39006       9
   38982   38994   38988      15   38982   38994   39012       5   38979   38976
   38982      18   38979   38985   38997      19   38979   38985   39000      19
   38979   38988   38994      20   38979   38988   39003      21   38976   38979
   38985      22   38976   38979   38988      23   38976   38982   38991      13
   38976   38982   38994      13   39330   39333   39345       3   39315   39330
   39333       3   39306   39315   39330       3   39297   39306   39315       3
   39288   39297   39306       3   39276   39288   39297       3   39258   39276
   39288       3   39246   39267   39252       5   39243   39258   39276       3
   39240   39252   39267       5   39237   39219   39240       6   39237   39246
   39267       5   39225   39243   39258       7   39219   39237   39246       9
   39219   39240   39252       9   39216   39198   39219      11   39213   39225
   39243      12   39207   39225   39213       5   39207   39225   39243      12
   39198   39216   39204       9   39198   39219   39237      11   39198   39219
   39240      11   39195   39192   39213      13   39192   39213   39225       5
   39189   39177   39192       5   39189   39207   39225       5   39186   39180
   39195      14   39186   39204   39216       5   39183   39174   39186       5
   39183   39198   39216       6   39183   39198   39219      11   39180   39186
   39204      15   39180   39195   39192      16   39177   39171   39180      17
   39177   39189   39207       5   39177   39192   39195      13   39177   39192
   39213       5   39174   39183   39198       9   39174   39186   39180      15
   39174   39186   39204       5   39171   39168   39174      18   39171   39177
   39189      19   39171   39177   39192      19   39171   39180   39186      20
   39171   39180   39195      21   39168   39171   39177      22   39168   39171
   39180      23   39168   39174   39183      13   39168   39174   39186      13
   39522   39525   39537       3   39507   39522   39525       3   39498   39507
   39522       3   39489   39498   39507       3   39480   39489   39498       3
   39468   39480   39489       3   39450   39468   39480       3   39438   39459
   39444       5   39435   39450   39468       3   39432   39444   39459       5
   39429   39411   39432       6   39429   39438   39459       5   39417   39435
   39450       7   39411   39429   39438       9   39411   39432   39444       9
   39408   39390   39411      11   39405   39417   39435      12   39399   39417
   39405       5   39399   39417   39435      12   39390   39408   39396       9
   39390   39411   39429      11   39390   39411   39432      11   39387   39384
   39405      13   39384   39405   39417       5   39381   39369   39384       5
   39381   39399   39417       5   39378   39372   39387      14   39378   39396
   39408       5   39375   39366   39378       5   39375   39390   39408       6
   39375   39390   39411      11   39372   39378   39396      15   39372   39387
   39384      16   39369   39363   39372      17   39369   39381   39399       5
   39369   39384   39387      13   39369   39384   39405       5   39366   39375
   39390       9   39366   39378   39372      15   39366   39378   39396       5
   39363   39360   39366      18   39363   39369   39381      19   39363   39369
   39384      19   39363   39372   39378      20   39363   39372   39387      21
   39360   39363   39369      22   39360   39363   39372      23   39360   39366
   39375      13   39360   39366   39378      13   39714   39717   39729       3
   39699   39714   39717       3   39690   39699   39714       3   39681   39690
   39699       3   39672   39681   39690       3   39660   39672   39681       3
   39642   39660   39672       3   39630   39651   39636       5   39627   39642
   39660       3   39624   39636   39651       5   39621   39603   39624       6
   39621   39630   39651       5   39609   39627   39642       7   39603   39621
   39630       9   39603   39624   39636       9   39600   39582   39603      11
   39597   39609   39627      12   39591   39609   39597       5   39591   39609
   39627      12   39582   39600   39588       9   39582   39603   39621      11
   39582   39603   39624      11   39579   39576   39597      13   39576   39597
   39609       5   39573   39561   39576       5   39573   39591   39609       5
   39570   39564   39579      14   39570   39588   39600       5   39567   39558
   39570       5   39567   39582   39600       6   39567   39582   39603      11
   39564   39570   39588      15   39564   39579   39576      16   39561   39555
   39564      17   39561   39573   39591       5   39561   39576   39579      13
   39561   39576   39597       5   39558   39567   39582       9   39558   39570
   39564      15   39558   39570   39588       5   39555   39552   39558      18
   39555   39561   39573      19   39555   39561   39576      19   39555   39564
   39570      20   39555   39564   39579      21   39552   39555   39561      22
   39552   39555   39564      23   39552   39558   39567      13   39552   39558
   39570      13   39906   39909   39921       3   39891   39906   39909       3
   39882   39891   39906       3   39873   39882   39891       3   39864   39873
   39882       3   39852   39864   39873       3   39834   39852   39864       3
   39822   39843   39828       5   39819   39834   39852       3   39816   39828
   39843       5   39813   39795   39816       6   39813   39822   39843       5
   39801   39819   39834       7   39795   39813   39822       9   39795   39816
   39828       9   39792   39774   39795      11   39789   39801   39819      12
   39783   39801   39789       5   39783   39801   39819      12   39774   39792
   39780       9   39774   39795   39813      11   39774   39795   39816      11
   39771   39768   39789      13   39768   39789   39801       5   39765   39753
   39768       5   39765   39783   39801       5   39762   39756   39771      14
   39762   39780   39792       5   39759   39750   39762       5   39759   39774
   39792       6   39759   39774   39795      11   39756   39762   39780      15
   39756   39771   39768      16   39753   39747   39756      17   39753   39765
   39783       5   39753   39768   39771      13   39753   39768   39789       5
   39750   39759   39774       9   39750   39762   39756      15   39750   39762
   39780       5   39747   39744   39750      18   39747   39753   39765      19
   39747   39753   39768      19   39747   39756   39762      20   39747   39756
   39771      21   39744   39747   39753      22   39744   39747   39756      23
   39744   39750   39759      13   39744   39750   39762      13   40098   40101
   40113       3   40083   40098   40101       3   40074   40083   40098       3
   40065   40074   40083       3   40056   40065   40074       3   40044   40056
   40065       3   40026   40044   40056       3   40014   40035   40020       5
   40011   40026   40044       3   40008   40020   40035       5   40005   39987
   40008       6   40005   40014   40035       5   39993   40011   40026       7
   39987   40005   40014       9   39987   40008   40020       9   39984   39966
   39987      11   39981   39993   40011      12   39975   39993   39981       5
   39975   39993   40011      12   39966   39984   39972       9   39966   39987
   40005      11   39966   39987   40008      11   39963   39960   39981      13
   39960   39981   39993       5   39957   39945   39960       5   39957   39975
   39993       5   39954   39948   39963      14   39954   39972   39984       5
   39951   39942   39954       5   39951   39966   39984       6   39951   39966
   39987      11   39948   39954   39972      15   39948   39963   39960      16
   39945   39939   39948      17   39945   39957   39975       5   39945   39960
   39963      13   39945   39960   39981       5   39942   39951   39966       9
   39942   39954   39948      15   39942   39954   39972       5   39939   39936
   39942      18   39939   39945   39957      19   39939   39945   39960      19
   39939   39948   39954      20   39939   39948   39963      21   39936   39939
   39945      22   39936   39939   39948      23   39936   39942   39951      13
   39936   39942   39954      13   40290   40293   40305       3   40275   40290
   40293       3   40266   40275   40290       3   40257   40266   40275       3
   40248   40257   40266       3   40236   40248   40257       3   40218   40236
   40248       3   40206   40227   40212       5   40203   40218   40236       3
   40200   40212   40227       5   40197   40179   40200       6   40197   40206
   40227       5   40185   40203   40218       7   40179   40197   40206       9
   40179   40200   40212       9   40176   40158   40179      11   40173   40185
   40203      12   40167   40185   40173       5   40167   40185   40203      12
   40158   40176   40164       9   40158   40179   40197      11   40158   40179
   40200      11   40155   40152   40173      13   40152   40173   40185       5
   40149   40137   40152       5   40149   40167   40185       5   40146   40140
   40155      14   40146   40164   40176       5   40143   40134   40146       5
   40143   40158   40176       6   40143   40158   40179      11   40140   40146
   40164      15   40140   40155   40152      16   40137   40131   40140      17
   40137   40149   40167       5   40137   40152   40155      13   40137   40152
   40173       5   40134   40143   40158       9   40134   40146   40140      15
   40134   40146   40164       5   40131   40128   40134      18   40131   40137
   40149      19   40131   40137   40152      19   40131   40140   40146      20
   40131   40140   40155      21   40128   40131   40137      22   40128   40131
   40140      23   40128   40134   40143      13   40128   40134   40146      13
   40482   40485   40497       3   40467   40482   40485       3   40458   40467
   40482       3   40449   40458   40467       3   40440   40449   40458       3
   40428   40440   40449       3   40410   40428   40440       3   40398   40419
   40404       5   40395   40410   40428       3   40392   40404   40419       5
   40389   40371   40392       6   40389   40398   40419       5   40377   40395
   40410       7   40371   40389   40398       9   40371   40392   40404       9
   40368   40350   40371      11   40365   40377   40395      12   40359   40377
   40365       5   40359   40377   40395      12   40350   40368   40356       9
   40350   40371   40389      11   40350   40371   40392      11   40347   40344
   40365      13   40344   40365   40377       5   40341   40329   40344       5
   40341   40359   40377       5   40338   40332   40347      14   40338   40356
   40368       5   40335   40326   40338       5   40335   40350   40368       6
   40335   40350   40371      11   40332   40338   40356      15   40332   40347
   40344      16   40329   40323   40332      17   40329   40341   40359       5
   40329   40344   40347      13   40329   40344   40365       5   40326   40335
   40350       9   40326   40338   40332      15   40326   40338   40356       5
   40323   40320   40326      18   40323   40329   40341      19   40323   40329
   40344      19   40323   40332   40338      20   40323   40332   40347      21
   40320   40323   40329      22   40320   40323   40332      23   40320   40326
   40335      13   40320   40326   40338      13   40674   40677   40689       3
   40659   40674   40677       3   40650   40659   40674       3   40641   40650
   40659       3   40632   40641   40650       3   40620   40632   40641       3
   40602   40620   40632       3   40590   40611   40596       5   40587   40602
   40620       3   40584   40596   40611       5   40581   40563   40584       6
   40581   40590   40611       5   40569   40587   40602       7   40563   40581
   40590       9   40563   40584   40596       9   40560   40542   40563      11
   40557   40569   40587      12   40551   40569   40557       5   40551   40569
   40587      12   40542   40560   40548       9   40542   40563   40581      11
   40542   40563   40584      11   40539   40536   40557      13   40536   40557
   40569       5   40533   40521   40536       5   40533   40551   40569       5
   40530   40524   40539      14   40530   40548   40560       5   40527   40518
   40530       5   40527   40542   40560       6   40527   40542   40563      11
   40524   40530   40548      15   40524   40539   40536      16   40521   40515
   40524      17   40521   40533   40551       5   40521   40536   40539      13
   40521   40536   40557       5   40518   40527   40542       9   40518   40530
   40524      15   40518   40530   40548       5   40515   40512   40518      18
   40515   40521   40533      19   40515   40521   40536      19   40515   40524
   40530      20   40515   40524   40539      21   40512   40515   40521      22
   40512   40515   40524      23   40512   40518   40527      13   40512   40518
   40530      13   40866   40869   40881       3   40851   40866   40869       3
   40842   40851   40866       3   40833   40842   40851       3   40824   40833
   40842       3   40812   40824   40833       3   40794   40812   40824       3
   40782   40803   40788       5   40779   40794   40812       3   40776   40788
   40803       5   40773   40755   40776       6   40773   40782   40803       5
   40761   40779   40794       7   40755   40773   40782       9   40755   40776
   40788       9   40752   40734   40755      11   40749   40761   40779      12
   40743   40761   40749       5   40743   40761   40779      12   40734   40752
   40740       9   40734   40755   40773      11   40734   40755   40776      11
   40731   40728   40749      13   40728   40749   40761       5   40725   40713
   40728       5   40725   40743   40761       5   40722   40716   40731      14
   40722   40740   40752       5   40719   40710   40722       5   40719   40734
   40752       6   40719   40734   40755      11   40716   40722   40740      15
   40716   40731   40728      16   40713   40707   40716      17   40713   40725
   40743       5   40713   40728   40731      13   40713   40728   40749       5
   40710   40719   40734       9   40710   40722   40716      15   40710   40722
   40740       5   40707   40704   40710      18   40707   40713   40725      19
   40707   40713   40728      19   40707   40716   40722      20   40707   40716
   40731      21   40704   40707   40713      22   40704   40707   40716      23
   40704   40710   40719      13   40704   40710   40722      13   41058   41061
   41073       3   41043   41058   41061       3   41034   41043   41058       3
   41025   41034   41043       3   41016   41025   41034       3   41004   41016
   41025       3   40986   41004   41016       3   40974   40995   40980       5
   40971   40986   41004       3   40968   40980   40995       5   40965   40947
   40968       6   40965   40974   40995       5   40953   40971   40986       7
   40947   40965   40974       9   40947   40968   40980       9   40944   40926
   40947      11   40941   40953   40971      12   40935   40953   40941       5
   40935   40953   40971      12   40926   40944   40932       9   40926   40947
   40965      11   40926   40947   40968      11   40923   40920   40941      13
   40920   40941   40953       5   40917   40905   40920       5   40917   40935
   40953       5   40914   40908   40923      14   40914   40932   40944       5
   40911   40902   40914       5   40911   40926   40944       6   40911   40926
   40947      11   40908   40914   40932      15   40908   40923   40920      16
   40905   40899   40908      17   40905   40917   40935       5   40905   40920
   40923      13   40905   40920   40941       5   40902   40911   40926       9
   40902   40914   40908      15   40902   40914   40932       5   40899   40896
   40902      18   40899   40905   40917      19   40899   40905   40920      19
   40899   40908   40914      20   40899   40908   40923      21   40896   40899
   40905      22   40896   40899   40908      23   40896   40902   40911      13
   40896   40902   40914      13   41250   41253   41265       3   41235   41250
   41253       3   41226   41235   41250       3   41217   41226   41235       3
   41208   41217   41226       3   41196   41208   41217       3   41178   41196
   41208       3   41166   41187   41172       5   41163   41178   41196       3
   41160   41172   41187       5   41157   41139   41160       6   41157   41166
   41187       5   41145   41163   41178       7   41139   41157   41166       9
   41139   41160   41172       9   41136   41118   41139      11   41133   41145
   41163      12   41127   41145   41133       5   41127   41145   41163      12
   41118   41136   41124       9   41118   41139   41157      11   41118   41139
   41160      11   41115   41112   41133      13   41112   41133   41145       5
   41109   41097   41112       5   41109   41127   41145       5   41106   41100
   41115      14   41106   41124   41136       5   41103   41094   41106       5
   41103   41118   41136       6   41103   41118   41139      11   41100   41106
   41124      15   41100   41115   41112      16   41097   41091   41100      17
   41097   41109   41127       5   41097   41112   41115      13   41097   41112
   41133       5   41094   41103   41118       9   41094   41106   41100      15
   41094   41106   41124       5   41091   41088   41094      18   41091   41097
   41109      19   41091   41097   41112      19   41091   41100   41106      20
   41091   41100   41115      21   41088   41091   41097      22   41088   41091
   41100      23   41088   41094   41103      13   41088   41094   41106      13
   41442   41445   41457       3   41427   41442   41445       3   41418   41427
   41442       3   41409   41418   41427       3   41400   41409   41418       3
   41388   41400   41409       3   41370   41388   41400       3   41358   41379
   41364       5   41355   41370   41388       3   41352   41364   41379       5
   41349   41331   41352       6   41349   41358   41379       5   41337   41355
   41370       7   41331   41349   41358       9   41331   41352   41364       9
   41328   41310   41331      11   41325   41337   41355      12   41319   41337
   41325       5   41319   41337   41355      12   41310   41328   41316       9
   41310   41331   41349      11   41310   41331   41352      11   41307   41304
   41325      13   41304   41325   41337       5   41301   41289   41304       5
   41301   41319   41337       5   41298   41292   41307      14   41298   41316
   41328       5   41295   41286   41298       5   41295   41310   41328       6
   41295   41310   41331      11   41292   41298   41316      15   41292   41307
   41304      16   41289   41283   41292      17   41289   41301   41319       5
   41289   41304   41307      13   41289   41304   41325       5   41286   41295
   41310       9   41286   41298   41292      15   41286   41298   41316       5
   41283   41280   41286      18   41283   41289   41301      19   41283   41289
   41304      19   41283   41292   41298      20   41283   41292   41307      21
   41280   41283   41289      22   41280   41283   41292      23   41280   41286
   41295      13   41280   41286   41298      13   41634   41637   41649       3
   41619   41634   41637       3   41610   41619   41634       3   41601   41610
   41619       3   41592   41601   41610       3   41580   41592   41601       3
   41562   41580   41592       3   41550   41571   41556       5   41547   41562
   41580       3   41544   41556   41571       5   41541   41523   41544       6
   41541   41550   41571       5   41529   41547   41562       7   41523   41541
   41550       9   41523   41544   41556       9   41520   41502   41523      11
   41517   41529   41547      12   41511   41529   41517       5   41511   41529
   41547      12   41502   41520   41508       9   41502   41523   41541      11
   41502   41523   41544      11   41499   41496   41517      13   41496   41517
   41529       5   41493   41481   41496       5   41493   41511   41529       5
   41490   41484   41499      14   41490   41508   41520       5   41487   41478
   41490       5   41487   41502   41520       6   41487   41502   41523      11
   41484   41490   41508      15   41484   41499   41496      16   41481   41475
   41484      17   41481   41493   41511       5   41481   41496   41499      13
   41481   41496   41517       5   41478   41487   41502       9   41478   41490
   41484      15   41478   41490   41508       5   41475   41472   41478      18
   41475   41481   41493      19   41475   41481   41496      19   41475   41484
   41490      20   41475   41484   41499      21   41472   41475   41481      22
   41472   41475   41484      23   41472   41478   41487      13   41472   41478
   41490      13   41826   41829   41841       3   41811   41826   41829       3
   41802   41811   41826       3   41793   41802   41811       3   41784   41793
   41802       3   41772   41784   41793       3   41754   41772   41784       3
   41742   41763   41748       5   41739   41754   41772       3   41736   41748
   41763       5   41733   41715   41736       6   41733   41742   41763       5
   41721   41739   41754       7   41715   41733   41742       9   41715   41736
   41748       9   41712   41694   41715      11   41709   41721   41739      12
   41703   41721   41709       5   41703   41721   41739      12   41694   41712
   41700       9   41694   41715   41733      11   41694   41715   41736      11
   41691   41688   41709      13   41688   41709   41721       5   41685   41673
   41688       5   41685   41703   41721       5   41682   41676   41691      14
   41682   41700   41712       5   41679   41670   41682       5   41679   41694
   41712       6   41679   41694   41715      11   41676   41682   41700      15
   41676   41691   41688      16   41673   41667   41676      17   41673   41685
   41703       5   41673   41688   41691      13   41673   41688   41709       5
   41670   41679   41694       9   41670   41682   41676      15   41670   41682
   41700       5   41667   41664   41670      18   41667   41673   41685      19
   41667   41673   41688      19   41667   41676   41682      20   41667   41676
   41691      21   41664   41667   41673      22   41664   41667   41676      23
   41664   41670   41679      13   41664   41670   41682      13   42018   42021
   42033       3   42003   42018   42021       3   41994   42003   42018       3
   41985   41994   42003       3   41976   41985   41994       3   41964   41976
   41985       3   41946   41964   41976       3   41934   41955   41940       5
   41931   41946   41964       3   41928   41940   41955       5   41925   41907
   41928       6   41925   41934   41955       5   41913   41931   41946       7
   41907   41925   41934       9   41907   41928   41940       9   41904   41886
   41907      11   41901   41913   41931      12   41895   41913   41901       5
   41895   41913   41931      12   41886   41904   41892       9   41886   41907
   41925      11   41886   41907   41928      11   41883   41880   41901      13
   41880   41901   41913       5   41877   41865   41880       5   41877   41895
   41913       5   41874   41868   41883      14   41874   41892   41904       5
   41871   41862   41874       5   41871   41886   41904       6   41871   41886
   41907      11   41868   41874   41892      15   41868   41883   41880      16
   41865   41859   41868      17   41865   41877   41895       5   41865   41880
   41883      13   41865   41880   41901       5   41862   41871   41886       9
   41862   41874   41868      15   41862   41874   41892       5   41859   41856
   41862      18   41859   41865   41877      19   41859   41865   41880      19
   41859   41868   41874      20   41859   41868   41883      21   41856   41859
   41865      22   41856   41859   41868      23   41856   41862   41871      13
   41856   41862   41874      13   42210   42213   42225       3   42195   42210
   42213       3   42186   42195   42210       3   42177   42186   42195       3
   42168   42177   42186       3   42156   42168   42177       3   42138   42156
   42168       3   42126   42147   42132       5   42123   42138   42156       3
   42120   42132   42147       5   42117   42099   42120       6   42117   42126
   42147       5   42105   42123   42138       7   42099   42117   42126       9
   42099   42120   42132       9   42096   42078   42099      11   42093   42105
   42123      12   42087   42105   42093       5   42087   42105   42123      12
   42078   42096   42084       9   42078   42099   42117      11   42078   42099
   42120      11   42075   42072   42093      13   42072   42093   42105       5
   42069   42057   42072       5   42069   42087   42105       5   42066   42060
   42075      14   42066   42084   42096       5   42063   42054   42066       5
   42063   42078   42096       6   42063   42078   42099      11   42060   42066
   42084      15   42060   42075   42072      16   42057   42051   42060      17
   42057   42069   42087       5   42057   42072   42075      13   42057   42072
   42093       5   42054   42063   42078       9   42054   42066   42060      15
   42054   42066   42084       5   42051   42048   42054      18   42051   42057
   42069      19   42051   42057   42072      19   42051   42060   42066      20
   42051   42060   42075      21   42048   42051   42057      22   42048   42051
   42060      23   42048   42054   42063      13   42048   42054   42066      13
   42402   42405   42417       3   42387   42402   42405       3   42378   42387
   42402       3   42369   42378   42387       3   42360   42369   42378       3
   42348   42360   42369       3   42330   42348   42360       3   42318   42339
   42324       5   42315   42330   42348       3   42312   42324   42339       5
   42309   42291   42312       6   42309   42318   42339       5   42297   42315
   42330       7   42291   42309   42318       9   42291   42312   42324       9
   42288   42270   42291      11   42285   42297   42315      12   42279   42297
   42285       5   42279   42297   42315      12   42270   42288   42276       9
   42270   42291   42309      11   42270   42291   42312      11   42267   42264
   42285      13   42264   42285   42297       5   42261   42249   42264       5
   42261   42279   42297       5   42258   42252   42267      14   42258   42276
   42288       5   42255   42246   42258       5   42255   42270   42288       6
   42255   42270   42291      11   42252   42258   42276      15   42252   42267
   42264      16   42249   42243   42252      17   42249   42261   42279       5
   42249   42264   42267      13   42249   42264   42285       5   42246   42255
   42270       9   42246   42258   42252      15   42246   42258   42276       5
   42243   42240   42246      18   42243   42249   42261      19   42243   42249
   42264      19   42243   42252   42258      20   42243   42252   42267      21
   42240   42243   42249      22   42240   42243   42252      23   42240   42246
   42255      13   42240   42246   42258      13   42594   42597   42609       3
   42579   42594   42597       3   42570   42579   42594       3   42561   42570
   42579       3   42552   42561   42570       3   42540   42552   42561       3
   42522   42540   42552       3   42510   42531   42516       5   42507   42522
   42540       3   42504   42516   42531       5   42501   42483   42504       6
   42501   42510   42531       5   42489   42507   42522       7   42483   42501
   42510       9   42483   42504   42516       9   42480   42462   42483      11
   42477   42489   42507      12   42471   42489   42477       5   42471   42489
   42507      12   42462   42480   42468       9   42462   42483   42501      11
   42462   42483   42504      11   42459   42456   42477      13   42456   42477
   42489       5   42453   42441   42456       5   42453   42471   42489       5
   42450   42444   42459      14   42450   42468   42480       5   42447   42438
   42450       5   42447   42462   42480       6   42447   42462   42483      11
   42444   42450   42468      15   42444   42459   42456      16   42441   42435
   42444      17   42441   42453   42471       5   42441   42456   42459      13
   42441   42456   42477       5   42438   42447   42462       9   42438   42450
   42444      15   42438   42450   42468       5   42435   42432   42438      18
   42435   42441   42453      19   42435   42441   42456      19   42435   42444
   42450      20   42435   42444   42459      21   42432   42435   42441      22
   42432   42435   42444      23   42432   42438   42447      13   42432   42438
   42450      13   42786   42789   42801       3   42771   42786   42789       3
   42762   42771   42786       3   42753   42762   42771       3   42744   42753
   42762       3   42732   42744   42753       3   42714   42732   42744       3
   42702   42723   42708       5   42699   42714   42732       3   42696   42708
   42723       5   42693   42675   42696       6   42693   42702   42723       5
   42681   42699   42714       7   42675   42693   42702       9   42675   42696
   42708       9   42672   42654   42675      11   42669   42681   42699      12
   42663   42681   42669       5   42663   42681   42699      12   42654   42672
   42660       9   42654   42675   42693      11   42654   42675   42696      11
   42651   42648   42669      13   42648   42669   42681       5   42645   42633
   42648       5   42645   42663   42681       5   42642   42636   42651      14
   42642   42660   42672       5   42639   42630   42642       5   42639   42654
   42672       6   42639   42654   42675      11   42636   42642   42660      15
   42636   42651   42648      16   42633   42627   42636      17   42633   42645
   42663       5   42633   42648   42651      13   42633   42648   42669       5
   42630   42639   42654       9   42630   42642   42636      15   42630   42642
   42660       5   42627   42624   42630      18   42627   42633   42645      19
   42627   42633   42648      19   42627   42636   42642      20   42627   42636
   42651      21   42624   42627   42633      22   42624   42627   42636      23
   42624   42630   42639      13   42624   42630   42642      13   42978   42981
   42993       3   42963   42978   42981       3   42954   42963   42978       3
   42945   42954   42963       3   42936   42945   42954       3   42924   42936
   42945       3   42906   42924   42936       3   42894   42915   42900       5
   42891   42906   42924       3   42888   42900   42915       5   42885   42867
   42888       6   42885   42894   42915       5   42873   42891   42906       7
   42867   42885   42894       9   42867   42888   42900       9   42864   42846
   42867      11   42861   42873   42891      12   42855   42873   42861       5
   42855   42873   42891      12   42846   42864   42852       9   42846   42867
   42885      11   42846   42867   42888      11   42843   42840   42861      13
   42840   42861   42873       5   42837   42825   42840       5   42837   42855
   42873       5   42834   42828   42843      14   42834   42852   42864       5
   42831   42822   42834       5   42831   42846   42864       6   42831   42846
   42867      11   42828   42834   42852      15   42828   42843   42840      16
   42825   42819   42828      17   42825   42837   42855       5   42825   42840
   42843      13   42825   42840   42861       5   42822   42831   42846       9
   42822   42834   42828      15   42822   42834   42852       5   42819   42816
   42822      18   42819   42825   42837      19   42819   42825   42840      19
   42819   42828   42834      20   42819   42828   42843      21   42816   42819
   42825      22   42816   42819   42828      23   42816   42822   42831      13
   42816   42822   42834      13   43170   43173   43185       3   43155   43170
   43173       3   43146   43155   43170       3   43137   43146   43155       3
   43128   43137   43146       3   43116   43128   43137       3   43098   43116
   43128       3   43086   43107   43092       5   43083   43098   43116       3
   43080   43092   43107       5   43077   43059   43080       6   43077   43086
   43107       5   43065   43083   43098       7   43059   43077   43086       9
   43059   43080   43092       9   43056   43038   43059      11   43053   43065
   43083      12   43047   43065   43053       5   43047   43065   43083      12
   43038   43056   43044       9   43038   43059   43077      11   43038   43059
   43080      11   43035   43032   43053      13   43032   43053   43065       5
   43029   43017   43032       5   43029   43047   43065       5   43026   43020
   43035      14   43026   43044   43056       5   43023   43014   43026       5
   43023   43038   43056       6   43023   43038   43059      11   43020   43026
   43044      15   43020   43035   43032      16   43017   43011   43020      17
   43017   43029   43047       5   43017   43032   43035      13   43017   43032
   43053       5   43014   43023   43038       9   43014   43026   43020      15
   43014   43026   43044       5   43011   43008   43014      18   43011   43017
   43029      19   43011   43017   43032      19   43011   43020   43026      20
   43011   43020   43035      21   43008   43011   43017      22   43008   43011
   43020      23   43008   43014   43023      13   43008   43014   43026      13
   43362   43365   43377       3   43347   43362   43365       3   43338   43347
   43362       3   43329   43338   43347       3   43320   43329   43338       3
   43308   43320   43329       3   43290   43308   43320       3   43278   43299
   43284       5   43275   43290   43308       3   43272   43284   43299       5
   43269   43251   43272       6   43269   43278   43299       5   43257   43275
   43290       7   43251   43269   43278       9   43251   43272   43284       9
   43248   43230   43251      11   43245   43257   43275      12   43239   43257
   43245       5   43239   43257   43275      12   43230   43248   43236       9
   43230   43251   43269      11   43230   43251   43272      11   43227   43224
   43245      13   43224   43245   43257       5   43221   43209   43224       5
   43221   43239   43257       5   43218   43212   43227      14   43218   43236
   43248       5   43215   43206   43218       5   43215   43230   43248       6
   43215   43230   43251      11   43212   43218   43236      15   43212   43227
   43224      16   43209   43203   43212      17   43209   43221   43239       5
   43209   43224   43227      13   43209   43224   43245       5   43206   43215
   43230       9   43206   43218   43212      15   43206   43218   43236       5
   43203   43200   43206      18   43203   43209   43221      19   43203   43209
   43224      19   43203   43212   43218      20   43203   43212   43227      21
   43200   43203   43209      22   43200   43203   43212      23   43200   43206
   43215      13   43200   43206   43218      13   43554   43557   43569       3
   43539   43554   43557       3   43530   43539   43554       3   43521   43530
   43539       3   43512   43521   43530       3   43500   43512   43521       3
   43482   43500   43512       3   43470   43491   43476       5   43467   43482
   43500       3   43464   43476   43491       5   43461   43443   43464       6
   43461   43470   43491       5   43449   43467   43482       7   43443   43461
   43470       9   43443   43464   43476       9   43440   43422   43443      11
   43437   43449   43467      12   43431   43449   43437       5   43431   43449
   43467      12   43422   43440   43428       9   43422   43443   43461      11
   43422   43443   43464      11   43419   43416   43437      13   43416   43437
   43449       5   43413   43401   43416       5   43413   43431   43449       5
   43410   43404   43419      14   43410   43428   43440       5   43407   43398
   43410       5   43407   43422   43440       6   43407   43422   43443      11
   43404   43410   43428      15   43404   43419   43416      16   43401   43395
   43404      17   43401   43413   43431       5   43401   43416   43419      13
   43401   43416   43437       5   43398   43407   43422       9   43398   43410
   43404      15   43398   43410   43428       5   43395   43392   43398      18
   43395   43401   43413      19   43395   43401   43416      19   43395   43404
   43410      20   43395   43404   43419      21   43392   43395   43401      22
   43392   43395   43404      23   43392   43398   43407      13   43392   43398
   43410      13   43746   43749   43761       3   43731   43746   43749       3
   43722   43731   43746       3   43713   43722   43731       3   43704   43713
   43722       3   43692   43704   43713       3   43674   43692   43704       3
   43662   43683   43668       5   43659   43674   43692       3   43656   43668
   43683       5   43653   43635   43656       6   43653   43662   43683       5
   43641   43659   43674       7   43635   43653   43662       9   43635   43656
   43668       9   43632   43614   43635      11   43629   43641   43659      12
   43623   43641   43629       5   43623   43641   43659      12   43614   43632
   43620       9   43614   43635   43653      11   43614   43635   43656      11
   43611   43608   43629      13   43608   43629   43641       5   43605   43593
   43608       5   43605   43623   43641       5   43602   43596   43611      14
   43602   43620   43632       5   43599   43590   43602       5   43599   43614
   43632       6   43599   43614   43635      11   43596   43602   43620      15
   43596   43611   43608      16   43593   43587   43596      17   43593   43605
   43623       5   43593   43608   43611      13   43593   43608   43629       5
   43590   43599   43614       9   43590   43602   43596      15   43590   43602
   43620       5   43587   43584   43590      18   43587   43593   43605      19
   43587   43593   43608      19   43587   43596   43602      20   43587   43596
   43611      21   43584   43587   43593      22   43584   43587   43596      23
   43584   43590   43599      13   43584   43590   43602      13   43938   43941
   43953       3   43923   43938   43941       3   43914   43923   43938       3
   43905   43914   43923       3   43896   43905   43914       3   43884   43896
   43905       3   43866   43884   43896       3   43854   43875   43860       5
   43851   43866   43884       3   43848   43860   43875       5   43845   43827
   43848       6   43845   43854   43875       5   43833   43851   43866       7
   43827   43845   43854       9   43827   43848   43860       9   43824   43806
   43827      11   43821   43833   43851      12   43815   43833   43821       5
   43815   43833   43851      12   43806   43824   43812       9   43806   43827
   43845      11   43806   43827   43848      11   43803   43800   43821      13
   43800   43821   43833       5   43797   43785   43800       5   43797   43815
   43833       5   43794   43788   43803      14   43794   43812   43824       5
   43791   43782   43794       5   43791   43806   43824       6   43791   43806
   43827      11   43788   43794   43812      15   43788   43803   43800      16
   43785   43779   43788      17   43785   43797   43815       5   43785   43800
   43803      13   43785   43800   43821       5   43782   43791   43806       9
   43782   43794   43788      15   43782   43794   43812       5   43779   43776
   43782      18   43779   43785   43797      19   43779   43785   43800      19
   43779   43788   43794      20   43779   43788   43803      21   43776   43779
   43785      22   43776   43779   43788      23   43776   43782   43791      13
   43776   43782   43794      13   44130   44133   44145       3   44115   44130
   44133       3   44106   44115   44130       3   44097   44106   44115       3
   44088   44097   44106       3   44076   44088   44097       3   44058   44076
   44088       3   44046   44067   44052       5   44043   44058   44076       3
   44040   44052   44067       5   44037   44019   44040       6   44037   44046
   44067       5   44025   44043   44058       7   44019   44037   44046       9
   44019   44040   44052       9   44016   43998   44019      11   44013   44025
   44043      12   44007   44025   44013       5   44007   44025   44043      12
   43998   44016   44004       9   43998   44019   44037      11   43998   44019
   44040      11   43995   43992   44013      13   43992   44013   44025       5
   43989   43977   43992       5   43989   44007   44025       5   43986   43980
   43995      14   43986   44004   44016       5   43983   43974   43986       5
   43983   43998   44016       6   43983   43998   44019      11   43980   43986
   44004      15   43980   43995   43992      16   43977   43971   43980      17
   43977   43989   44007       5   43977   43992   43995      13   43977   43992
   44013       5   43974   43983   43998       9   43974   43986   43980      15
   43974   43986   44004       5   43971   43968   43974      18   43971   43977
   43989      19   43971   43977   43992      19   43971   43980   43986      20
   43971   43980   43995      21   43968   43971   43977      22   43968   43971
   43980      23   43968   43974   43983      13   43968   43974   43986      13
   44322   44325   44337       3   44307   44322   44325       3   44298   44307
   44322       3   44289   44298   44307       3   44280   44289   44298       3
   44268   44280   44289       3   44250   44268   44280       3   44238   44259
   44244       5   44235   44250   44268       3   44232   44244   44259       5
   44229   44211   44232       6   44229   44238   44259       5   44217   44235
   44250       7   44211   44229   44238       9   44211   44232   44244       9
   44208   44190   44211      11   44205   44217   44235      12   44199   44217
   44205       5   44199   44217   44235      12   44190   44208   44196       9
   44190   44211   44229      11   44190   44211   44232      11   44187   44184
   44205      13   44184   44205   44217       5   44181   44169   44184       5
   44181   44199   44217       5   44178   44172   44187      14   44178   44196
   44208       5   44175   44166   44178       5   44175   44190   44208       6
   44175   44190   44211      11   44172   44178   44196      15   44172   44187
   44184      16   44169   44163   44172      17   44169   44181   44199       5
   44169   44184   44187      13   44169   44184   44205       5   44166   44175
   44190       9   44166   44178   44172      15   44166   44178   44196       5
   44163   44160   44166      18   44163   44169   44181      19   44163   44169
   44184      19   44163   44172   44178      20   44163   44172   44187      21
   44160   44163   44169      22   44160   44163   44172      23   44160   44166
   44175      13   44160   44166   44178      13   44514   44517   44529       3
   44499   44514   44517       3   44490   44499   44514       3   44481   44490
   44499       3   44472   44481   44490       3   44460   44472   44481       3
   44442   44460   44472       3   44430   44451   44436       5   44427   44442
   44460       3   44424   44436   44451       5   44421   44403   44424       6
   44421   44430   44451       5   44409   44427   44442       7   44403   44421
   44430       9   44403   44424   44436       9   44400   44382   44403      11
   44397   44409   44427      12   44391   44409   44397       5   44391   44409
   44427      12   44382   44400   44388       9   44382   44403   44421      11
   44382   44403   44424      11   44379   44376   44397      13   44376   44397
   44409       5   44373   44361   44376       5   44373   44391   44409       5
   44370   44364   44379      14   44370   44388   44400       5   44367   44358
   44370       5   44367   44382   44400       6   44367   44382   44403      11
   44364   44370   44388      15   44364   44379   44376      16   44361   44355
   44364      17   44361   44373   44391       5   44361   44376   44379      13
   44361   44376   44397       5   44358   44367   44382       9   44358   44370
   44364      15   44358   44370   44388       5   44355   44352   44358      18
   44355   44361   44373      19   44355   44361   44376      19   44355   44364
   44370      20   44355   44364   44379      21   44352   44355   44361      22
   44352   44355   44364      23   44352   44358   44367      13   44352   44358
   44370      13   44706   44709   44721       3   44691   44706   44709       3
   44682   44691   44706       3   44673   44682   44691       3   44664   44673
   44682       3   44652   44664   44673       3   44634   44652   44664       3
   44622   44643   44628       5   44619   44634   44652       3   44616   44628
   44643       5   44613   44595   44616       6   44613   44622   44643       5
   44601   44619   44634       7   44595   44613   44622       9   44595   44616
   44628       9   44592   44574   44595      11   44589   44601   44619      12
   44583   44601   44589       5   44583   44601   44619      12   44574   44592
   44580       9   44574   44595   44613      11   44574   44595   44616      11
   44571   44568   44589      13   44568   44589   44601       5   44565   44553
   44568       5   44565   44583   44601       5   44562   44556   44571      14
   44562   44580   44592       5   44559   44550   44562       5   44559   44574
   44592       6   44559   44574   44595      11   44556   44562   44580      15
   44556   44571   44568      16   44553   44547   44556      17   44553   44565
   44583       5   44553   44568   44571      13   44553   44568   44589       5
   44550   44559   44574       9   44550   44562   44556      15   44550   44562
   44580       5   44547   44544   44550      18   44547   44553   44565      19
   44547   44553   44568      19   44547   44556   44562      20   44547   44556
   44571      21   44544   44547   44553      22   44544   44547   44556      23
   44544   44550   44559      13   44544   44550   44562      13   44898   44901
   44913       3   44883   44898   44901       3   44874   44883   44898       3
   44865   44874   44883       3   44856   44865   44874       3   44844   44856
   44865       3   44826   44844   44856       3   44814   44835   44820       5
   44811   44826   44844       3   44808   44820   44835       5   44805   44787
   44808       6   44805   44814   44835       5   44793   44811   44826       7
   44787   44805   44814       9   44787   44808   44820       9   44784   44766
   44787      11   44781   44793   44811      12   44775   44793   44781       5
   44775   44793   44811      12   44766   44784   44772       9   44766   44787
   44805      11   44766   44787   44808      11   44763   44760   44781      13
   44760   44781   44793       5   44757   44745   44760       5   44757   44775
   44793       5   44754   44748   44763      14   44754   44772   44784       5
   44751   44742   44754       5   44751   44766   44784       6   44751   44766
   44787      11   44748   44754   44772      15   44748   44763   44760      16
   44745   44739   44748      17   44745   44757   44775       5   44745   44760
   44763      13   44745   44760   44781       5   44742   44751   44766       9
   44742   44754   44748      15   44742   44754   44772       5   44739   44736
   44742      18   44739   44745   44757      19   44739   44745   44760      19
   44739   44748   44754      20   44739   44748   44763      21   44736   44739
   44745      22   44736   44739   44748      23   44736   44742   44751      13
   44736   44742   44754      13   45090   45093   45105       3   45075   45090
   45093       3   45066   45075   45090       3   45057   45066   45075       3
   45048   45057   45066       3   45036   45048   45057       3   45018   45036
   45048       3   45006   45027   45012       5   45003   45018   45036       3
   45000   45012   45027       5   44997   44979   45000       6   44997   45006
   45027       5   44985   45003   45018       7   44979   44997   45006       9
   44979   45000   45012       9   44976   44958   44979      11   44973   44985
   45003      12   44967   44985   44973       5   44967   44985   45003      12
   44958   44976   44964       9   44958   44979   44997      11   44958   44979
   45000      11   44955   44952   44973      13   44952   44973   44985       5
   44949   44937   44952       5   44949   44967   44985       5   44946   44940
   44955      14   44946   44964   44976       5   44943   44934   44946       5
   44943   44958   44976       6   44943   44958   44979      11   44940   44946
   44964      15   44940   44955   44952      16   44937   44931   44940      17
   44937   44949   44967       5   44937   44952   44955      13   44937   44952
   44973       5   44934   44943   44958       9   44934   44946   44940      15
   44934   44946   44964       5   44931   44928   44934      18   44931   44937
   44949      19   44931   44937   44952      19   44931   44940   44946      20
   44931   44940   44955      21   44928   44931   44937      22   44928   44931
   44940      23   44928   44934   44943      13   44928   44934   44946      13
   45282   45285   45297       3   45267   45282   45285       3   45258   45267
   45282       3   45249   45258   45267       3   45240   45249   45258       3
   45228   45240   45249       3   45210   45228   45240       3   45198   45219
   45204       5   45195   45210   45228       3   45192   45204   45219       5
   45189   45171   45192       6   45189   45198   45219       5   45177   45195
   45210       7   45171   45189   45198       9   45171   45192   45204       9
   45168   45150   45171      11   45165   45177   45195      12   45159   45177
   45165       5   45159   45177   45195      12   45150   45168   45156       9
   45150   45171   45189      11   45150   45171   45192      11   45147   45144
   45165      13   45144   45165   45177       5   45141   45129   45144       5
   45141   45159   45177       5   45138   45132   45147      14   45138   45156
   45168       5   45135   45126   45138       5   45135   45150   45168       6
   45135   45150   45171      11   45132   45138   45156      15   45132   45147
   45144      16   45129   45123   45132      17   45129   45141   45159       5
   45129   45144   45147      13   45129   45144   45165       5   45126   45135
   45150       9   45126   45138   45132      15   45126   45138   45156       5
   45123   45120   45126      18   45123   45129   45141      19   45123   45129
   45144      19   45123   45132   45138      20   45123   45132   45147      21
   45120   45123   45129      22   45120   45123   45132      23   45120   45126
   45135      13   45120   45126   45138      13   45474   45477   45489       3
   45459   45474   45477       3   45450   45459   45474       3   45441   45450
   45459       3   45432   45441   45450       3   45420   45432   45441       3
   45402   45420   45432       3   45390   45411   45396       5   45387   45402
   45420       3   45384   45396   45411       5   45381   45363   45384       6
   45381   45390   45411       5   45369   45387   45402       7   45363   45381
   45390       9   45363   45384   45396       9   45360   45342   45363      11
   45357   45369   45387      12   45351   45369   45357       5   45351   45369
   45387      12   45342   45360   45348       9   45342   45363   45381      11
   45342   45363   45384      11   45339   45336   45357      13   45336   45357
   45369       5   45333   45321   45336       5   45333   45351   45369       5
   45330   45324   45339      14   45330   45348   45360       5   45327   45318
   45330       5   45327   45342   45360       6   45327   45342   45363      11
   45324   45330   45348      15   45324   45339   45336      16   45321   45315
   45324      17   45321   45333   45351       5   45321   45336   45339      13
   45321   45336   45357       5   45318   45327   45342       9   45318   45330
   45324      15   45318   45330   45348       5   45315   45312   45318      18
   45315   45321   45333      19   45315   45321   45336      19   45315   45324
   45330      20   45315   45324   45339      21   45312   45315   45321      22
   45312   45315   45324      23   45312   45318   45327      13   45312   45318
   45330      13   45666   45669   45681       3   45651   45666   45669       3
   45642   45651   45666       3   45633   45642   45651       3   45624   45633
   45642       3   45612   45624   45633       3   45594   45612   45624       3
   45582   45603   45588       5   45579   45594   45612       3   45576   45588
   45603       5   45573   45555   45576       6   45573   45582   45603       5
   45561   45579   45594       7   45555   45573   45582       9   45555   45576
   45588       9   45552   45534   45555      11   45549   45561   45579      12
   45543   45561   45549       5   45543   45561   45579      12   45534   45552
   45540       9   45534   45555   45573      11   45534   45555   45576      11
   45531   45528   45549      13   45528   45549   45561       5   45525   45513
   45528       5   45525   45543   45561       5   45522   45516   45531      14
   45522   45540   45552       5   45519   45510   45522       5   45519   45534
   45552       6   45519   45534   45555      11   45516   45522   45540      15
   45516   45531   45528      16   45513   45507   45516      17   45513   45525
   45543       5   45513   45528   45531      13   45513   45528   45549       5
   45510   45519   45534       9   45510   45522   45516      15   45510   45522
   45540       5   45507   45504   45510      18   45507   45513   45525      19
   45507   45513   45528      19   45507   45516   45522      20   45507   45516
   45531      21   45504   45507   45513      22   45504   45507   45516      23
   45504   45510   45519      13   45504   45510   45522      13   45858   45861
   45873       3   45843   45858   45861       3   45834   45843   45858       3
   45825   45834   45843       3   45816   45825   45834       3   45804   45816
   45825       3   45786   45804   45816       3   45774   45795   45780       5
   45771   45786   45804       3   45768   45780   45795       5   45765   45747
   45768       6   45765   45774   45795       5   45753   45771   45786       7
   45747   45765   45774       9   45747   45768   45780       9   45744   45726
   45747      11   45741   45753   45771      12   45735   45753   45741       5
   45735   45753   45771      12   45726   45744   45732       9   45726   45747
   45765      11   45726   45747   45768      11   45723   45720   45741      13
   45720   45741   45753       5   45717   45705   45720       5   45717   45735
   45753       5   45714   45708   45723      14   45714   45732   45744       5
   45711   45702   45714       5   45711   45726   45744       6   45711   45726
   45747      11   45708   45714   45732      15   45708   45723   45720      16
   45705   45699   45708      17   45705   45717   45735       5   45705   45720
   45723      13   45705   45720   45741       5   45702   45711   45726       9
   45702   45714   45708      15   45702   45714   45732       5   45699   45696
   45702      18   45699   45705   45717      19   45699   45705   45720      19
   45699   45708   45714      20   45699   45708   45723      21   45696   45699
   45705      22   45696   45699   45708      23   45696   45702   45711      13
   45696   45702   45714      13   46050   46053   46065       3   46035   46050
   46053       3   46026   46035   46050       3   46017   46026   46035       3
   46008   46017   46026       3   45996   46008   46017       3   45978   45996
   46008       3   45966   45987   45972       5   45963   45978   45996       3
   45960   45972   45987       5   45957   45939   45960       6   45957   45966
   45987       5   45945   45963   45978       7   45939   45957   45966       9
   45939   45960   45972       9   45936   45918   45939      11   45933   45945
   45963      12   45927   45945   45933       5   45927   45945   45963      12
   45918   45936   45924       9   45918   45939   45957      11   45918   45939
   45960      11   45915   45912   45933      13   45912   45933   45945       5
   45909   45897   45912       5   45909   45927   45945       5   45906   45900
   45915      14   45906   45924   45936       5   45903   45894   45906       5
   45903   45918   45936       6   45903   45918   45939      11   45900   45906
   45924      15   45900   45915   45912      16   45897   45891   45900      17
   45897   45909   45927       5   45897   45912   45915      13   45897   45912
   45933       5   45894   45903   45918       9   45894   45906   45900      15
   45894   45906   45924       5   45891   45888   45894      18   45891   45897
   45909      19   45891   45897   45912      19   45891   45900   45906      20
   45891   45900   45915      21   45888   45891   45897      22   45888   45891
   45900      23   45888   45894   45903      13   45888   45894   45906      13
   46242   46245   46257       3   46227   46242   46245       3   46218   46227
   46242       3   46209   46218   46227       3   46200   46209   46218       3
   46188   46200   46209       3   46170   46188   46200       3   46158   46179
   46164       5   46155   46170   46188       3   46152   46164   46179       5
   46149   46131   46152       6   46149   46158   46179       5   46137   46155
   46170       7   46131   46149   46158       9   46131   46152   46164       9
   46128   46110   46131      11   46125   46137   46155      12   46119   46137
   46125       5   46119   46137   46155      12   46110   46128   46116       9
   46110   46131   46149      11   46110   46131   46152      11   46107   46104
   46125      13   46104   46125   46137       5   46101   46089   46104       5
   46101   46119   46137       5   46098   46092   46107      14   46098   46116
   46128       5   46095   46086   46098       5   46095   46110   46128       6
   46095   46110   46131      11   46092   46098   46116      15   46092   46107
   46104      16   46089   46083   46092      17   46089   46101   46119       5
   46089   46104   46107      13   46089   46104   46125       5   46086   46095
   46110       9   46086   46098   46092      15   46086   46098   46116       5
   46083   46080   46086      18   46083   46089   46101      19   46083   46089
   46104      19   46083   46092   46098      20   46083   46092   46107      21
   46080   46083   46089      22   46080   46083   46092      23   46080   46086
   46095      13   46080   46086   46098      13   46434   46437   46449       3
   46419   46434   46437       3   46410   46419   46434       3   46401   46410
   46419       3   46392   46401   46410       3   46380   46392   46401       3
   46362   46380   46392       3   46350   46371   46356       5   46347   46362
   46380       3   46344   46356   46371       5   46341   46323   46344       6
   46341   46350   46371       5   46329   46347   46362       7   46323   46341
   46350       9   46323   46344   46356       9   46320   46302   46323      11
   46317   46329   46347      12   46311   46329   46317       5   46311   46329
   46347      12   46302   46320   46308       9   46302   46323   46341      11
   46302   46323   46344      11   46299   46296   46317      13   46296   46317
   46329       5   46293   46281   46296       5   46293   46311   46329       5
   46290   46284   46299      14   46290   46308   46320       5   46287   46278
   46290       5   46287   46302   46320       6   46287   46302   46323      11
   46284   46290   46308      15   46284   46299   46296      16   46281   46275
   46284      17   46281   46293   46311       5   46281   46296   46299      13
   46281   46296   46317       5   46278   46287   46302       9   46278   46290
   46284      15   46278   46290   46308       5   46275   46272   46278      18
   46275   46281   46293      19   46275   46281   46296      19   46275   46284
   46290      20   46275   46284   46299      21   46272   46275   46281      22
   46272   46275   46284      23   46272   46278   46287      13   46272   46278
   46290      13   46626   46629   46641       3   46611   46626   46629       3
   46602   46611   46626       3   46593   46602   46611       3   46584   46593
   46602       3   46572   46584   46593       3   46554   46572   46584       3
   46542   46563   46548       5   46539   46554   46572       3   46536   46548
   46563       5   46533   46515   46536       6   46533   46542   46563       5
   46521   46539   46554       7   46515   46533   46542       9   46515   46536
   46548       9   46512   46494   46515      11   46509   46521   46539      12
   46503   46521   46509       5   46503   46521   46539      12   46494   46512
   46500       9   46494   46515   46533      11   46494   46515   46536      11
   46491   46488   46509      13   46488   46509   46521       5   46485   46473
   46488       5   46485   46503   46521       5   46482   46476   46491      14
   46482   46500   46512       5   46479   46470   46482       5   46479   46494
   46512       6   46479   46494   46515      11   46476   46482   46500      15
   46476   46491   46488      16   46473   46467   46476      17   46473   46485
   46503       5   46473   46488   46491      13   46473   46488   46509       5
   46470   46479   46494       9   46470   46482   46476      15   46470   46482
   46500       5   46467   46464   46470      18   46467   46473   46485      19
   46467   46473   46488      19   46467   46476   46482      20   46467   46476
   46491      21   46464   46467   46473      22   46464   46467   46476      23
   46464   46470   46479      13   46464   46470   46482      13   46818   46821
   46833       3   46803   46818   46821       3   46794   46803   46818       3
   46785   46794   46803       3   46776   46785   46794       3   46764   46776
   46785       3   46746   46764   46776       3   46734   46755   46740       5
   46731   46746   46764       3   46728   46740   46755       5   46725   46707
   46728       6   46725   46734   46755       5   46713   46731   46746       7
   46707   46725   46734       9   46707   46728   46740       9   46704   46686
   46707      11   46701   46713   46731      12   46695   46713   46701       5
   46695   46713   46731      12   46686   46704   46692       9   46686   46707
   46725      11   46686   46707   46728      11   46683   46680   46701      13
   46680   46701   46713       5   46677   46665   46680       5   46677   46695
   46713       5   46674   46668   46683      14   46674   46692   46704       5
   46671   46662   46674       5   46671   46686   46704       6   46671   46686
   46707      11   46668   46674   46692      15   46668   46683   46680      16
   46665   46659   46668      17   46665   46677   46695       5   46665   46680
   46683      13   46665   46680   46701       5   46662   46671   46686       9
   46662   46674   46668      15   46662   46674   46692       5   46659   46656
   46662      18   46659   46665   46677      19   46659   46665   46680      19
   46659   46668   46674      20   46659   46668   46683      21   46656   46659
   46665      22   46656   46659   46668      23   46656   46662   46671      13
   46656   46662   46674      13   47010   47013   47025       3   46995   47010
   47013       3   46986   46995   47010       3   46977   46986   46995       3
   46968   46977   46986       3   46956   46968   46977       3   46938   46956
   46968       3   46926   46947   46932       5   46923   46938   46956       3
   46920   46932   46947       5   46917   46899   46920       6   46917   46926
   46947       5   46905   46923   46938       7   46899   46917   46926       9
   46899   46920   46932       9   46896   46878   46899      11   46893   46905
   46923      12   46887   46905   46893       5   46887   46905   46923      12
   46878   46896   46884       9   46878   46899   46917      11   46878   46899
   46920      11   46875   46872   46893      13   46872   46893   46905       5
   46869   46857   46872       5   46869   46887   46905       5   46866   46860
   46875      14   46866   46884   46896       5   46863   46854   46866       5
   46863   46878   46896       6   46863   46878   46899      11   46860   46866
   46884      15   46860   46875   46872      16   46857   46851   46860      17
   46857   46869   46887       5   46857   46872   46875      13   46857   46872
   46893       5   46854   46863   46878       9   46854   46866   46860      15
   46854   46866   46884       5   46851   46848   46854      18   46851   46857
   46869      19   46851   46857   46872      19   46851   46860   46866      20
   46851   46860   46875      21   46848   46851   46857      22   46848   46851
   46860      23   46848   46854   46863      13   46848   46854   46866      13
   47202   47205   47217       3   47187   47202   47205       3   47178   47187
   47202       3   47169   47178   47187       3   47160   47169   47178       3
   47148   47160   47169       3   47130   47148   47160       3   47118   47139
   47124       5   47115   47130   47148       3   47112   47124   47139       5
   47109   47091   47112       6   47109   47118   47139       5   47097   47115
   47130       7   47091   47109   47118       9   47091   47112   47124       9
   47088   47070   47091      11   47085   47097   47115      12   47079   47097
   47085       5   47079   47097   47115      12   47070   47088   47076       9
   47070   47091   47109      11   47070   47091   47112      11   47067   47064
   47085      13   47064   47085   47097       5   47061   47049   47064       5
   47061   47079   47097       5   47058   47052   47067      14   47058   47076
   47088       5   47055   47046   47058       5   47055   47070   47088       6
   47055   47070   47091      11   47052   47058   47076      15   47052   47067
   47064      16   47049   47043   47052      17   47049   47061   47079       5
   47049   47064   47067      13   47049   47064   47085       5   47046   47055
   47070       9   47046   47058   47052      15   47046   47058   47076       5
   47043   47040   47046      18   47043   47049   47061      19   47043   47049
   47064      19   47043   47052   47058      20   47043   47052   47067      21
   47040   47043   47049      22   47040   47043   47052      23   47040   47046
   47055      13   47040   47046   47058      13   47394   47397   47409       3
   47379   47394   47397       3   47370   47379   47394       3   47361   47370
   47379       3   47352   47361   47370       3   47340   47352   47361       3
   47322   47340   47352       3   47310   47331   47316       5   47307   47322
   47340       3   47304   47316   47331       5   47301   47283   47304       6
   47301   47310   47331       5   47289   47307   47322       7   47283   47301
   47310       9   47283   47304   47316       9   47280   47262   47283      11
   47277   47289   47307      12   47271   47289   47277       5   47271   47289
   47307      12   47262   47280   47268       9   47262   47283   47301      11
   47262   47283   47304      11   47259   47256   47277      13   47256   47277
   47289       5   47253   47241   47256       5   47253   47271   47289       5
   47250   47244   47259      14   47250   47268   47280       5   47247   47238
   47250       5   47247   47262   47280       6   47247   47262   47283      11
   47244   47250   47268      15   47244   47259   47256      16   47241   47235
   47244      17   47241   47253   47271       5   47241   47256   47259      13
   47241   47256   47277       5   47238   47247   47262       9   47238   47250
   47244      15   47238   47250   47268       5   47235   47232   47238      18
   47235   47241   47253      19   47235   47241   47256      19   47235   47244
   47250      20   47235   47244   47259      21   47232   47235   47241      22
   47232   47235   47244      23   47232   47238   47247      13   47232   47238
   47250      13   47586   47589   47601       3   47571   47586   47589       3
   47562   47571   47586       3   47553   47562   47571       3   47544   47553
   47562       3   47532   47544   47553       3   47514   47532   47544       3
   47502   47523   47508       5   47499   47514   47532       3   47496   47508
   47523       5   47493   47475   47496       6   47493   47502   47523       5
   47481   47499   47514       7   47475   47493   47502       9   47475   47496
   47508       9   47472   47454   47475      11   47469   47481   47499      12
   47463   47481   47469       5   47463   47481   47499      12   47454   47472
   47460       9   47454   47475   47493      11   47454   47475   47496      11
   47451   47448   47469      13   47448   47469   47481       5   47445   47433
   47448       5   47445   47463   47481       5   47442   47436   47451      14
   47442   47460   47472       5   47439   47430   47442       5   47439   47454
   47472       6   47439   47454   47475      11   47436   47442   47460      15
   47436   47451   47448      16   47433   47427   47436      17   47433   47445
   47463       5   47433   47448   47451      13   47433   47448   47469       5
   47430   47439   47454       9   47430   47442   47436      15   47430   47442
   47460       5   47427   47424   47430      18   47427   47433   47445      19
   47427   47433   47448      19   47427   47436   47442      20   47427   47436
   47451      21   47424   47427   47433      22   47424   47427   47436      23
   47424   47430   47439      13   47424   47430   47442      13   47778   47781
   47793       3   47763   47778   47781       3   47754   47763   47778       3
   47745   47754   47763       3   47736   47745   47754       3   47724   47736
   47745       3   47706   47724   47736       3   47694   47715   47700       5
   47691   47706   47724       3   47688   47700   47715       5   47685   47667
   47688       6   47685   47694   47715       5   47673   47691   47706       7
   47667   47685   47694       9   47667   47688   47700       9   47664   47646
   47667      11   47661   47673   47691      12   47655   47673   47661       5
   47655   47673   47691      12   47646   47664   47652       9   47646   47667
   47685      11   47646   47667   47688      11   47643   47640   47661      13
   47640   47661   47673       5   47637   47625   47640       5   47637   47655
   47673       5   47634   47628   47643      14   47634   47652   47664       5
   47631   47622   47634       5   47631   47646   47664       6   47631   47646
   47667      11   47628   47634   47652      15   47628   47643   47640      16
   47625   47619   47628      17   47625   47637   47655       5   47625   47640
   47643      13   47625   47640   47661       5   47622   47631   47646       9
   47622   47634   47628      15   47622   47634   47652       5   47619   47616
   47622      18   47619   47625   47637      19   47619   47625   47640      19
   47619   47628   47634      20   47619   47628   47643      21   47616   47619
   47625      22   47616   47619   47628      23   47616   47622   47631      13
   47616   47622   47634      13   47970   47973   47985       3   47955   47970
   47973       3   47946   47955   47970       3   47937   47946   47955       3
   47928   47937   47946       3   47916   47928   47937       3   47898   47916
   47928       3   47886   47907   47892       5   47883   47898   47916       3
   47880   47892   47907       5   47877   47859   47880       6   47877   47886
   47907       5   47865   47883   47898       7   47859   47877   47886       9
   47859   47880   47892       9   47856   47838   47859      11   47853   47865
   47883      12   47847   47865   47853       5   47847   47865   47883      12
   47838   47856   47844       9   47838   47859   47877      11   47838   47859
   47880      11   47835   47832   47853      13   47832   47853   47865       5
   47829   47817   47832       5   47829   47847   47865       5   47826   47820
   47835      14   47826   47844   47856       5   47823   47814   47826       5
   47823   47838   47856       6   47823   47838   47859      11   47820   47826
   47844      15   47820   47835   47832      16   47817   47811   47820      17
   47817   47829   47847       5   47817   47832   47835      13   47817   47832
   47853       5   47814   47823   47838       9   47814   47826   47820      15
   47814   47826   47844       5   47811   47808   47814      18   47811   47817
   47829      19   47811   47817   47832      19   47811   47820   47826      20
   47811   47820   47835      21   47808   47811   47817      22   47808   47811
   47820      23   47808   47814   47823      13   47808   47814   47826      13
   48162   48165   48177       3   48147   48162   48165       3   48138   48147
   48162       3   48129   48138   48147       3   48120   48129   48138       3
   48108   48120   48129       3   48090   48108   48120       3   48078   48099
   48084       5   48075   48090   48108       3   48072   48084   48099       5
   48069   48051   48072       6   48069   48078   48099       5   48057   48075
   48090       7   48051   48069   48078       9   48051   48072   48084       9
   48048   48030   48051      11   48045   48057   48075      12   48039   48057
   48045       5   48039   48057   48075      12   48030   48048   48036       9
   48030   48051   48069      11   48030   48051   48072      11   48027   48024
   48045      13   48024   48045   48057       5   48021   48009   48024       5
   48021   48039   48057       5   48018   48012   48027      14   48018   48036
   48048       5   48015   48006   48018       5   48015   48030   48048       6
   48015   48030   48051      11   48012   48018   48036      15   48012   48027
   48024      16   48009   48003   48012      17   48009   48021   48039       5
   48009   48024   48027      13   48009   48024   48045       5   48006   48015
   48030       9   48006   48018   48012      15   48006   48018   48036       5
   48003   48000   48006      18   48003   48009   48021      19   48003   48009
   48024      19   48003   48012   48018      20   48003   48012   48027      21
   48000   48003   48009      22   48000   48003   48012      23   48000   48006
   48015      13   48000   48006   48018      13   48354   48357   48369       3
   48339   48354   48357       3   48330   48339   48354       3   48321   48330
   48339       3   48312   48321   48330       3   48300   48312   48321       3
   48282   48300   48312       3   48270   48291   48276       5   48267   48282
   48300       3   48264   48276   48291       5   48261   48243   48264       6
   48261   48270   48291       5   48249   48267   48282       7   48243   48261
   48270       9   48243   48264   48276       9   48240   48222   48243      11
   48237   48249   48267      12   48231   48249   48237       5   48231   48249
   48267      12   48222   48240   48228       9   48222   48243   48261      11
   48222   48243   48264      11   48219   48216   48237      13   48216   48237
   48249       5   48213   48201   48216       5   48213   48231   48249       5
   48210   48204   48219      14   48210   48228   48240       5   48207   48198
   48210       5   48207   48222   48240       6   48207   48222   48243      11
   48204   48210   48228      15   48204   48219   48216      16   48201   48195
   48204      17   48201   48213   48231       5   48201   48216   48219      13
   48201   48216   48237       5   48198   48207   48222       9   48198   48210
   48204      15   48198   48210   48228       5   48195   48192   48198      18
   48195   48201   48213      19   48195   48201   48216      19   48195   48204
   48210      20   48195   48204   48219      21   48192   48195   48201      22
   48192   48195   48204      23   48192   48198   48207      13   48192   48198
   48210      13   48546   48549   48561       3   48531   48546   48549       3
   48522   48531   48546       3   48513   48522   48531       3   48504   48513
   48522       3   48492   48504   48513       3   48474   48492   48504       3
   48462   48483   48468       5   48459   48474   48492       3   48456   48468
   48483       5   48453   48435   48456       6   48453   48462   48483       5
   48441   48459   48474       7   48435   48453   48462       9   48435   48456
   48468       9   48432   48414   48435      11   48429   48441   48459      12
   48423   48441   48429       5   48423   48441   48459      12   48414   48432
   48420       9   48414   48435   48453      11   48414   48435   48456      11
   48411   48408   48429      13   48408   48429   48441       5   48405   48393
   48408       5   48405   48423   48441       5   48402   48396   48411      14
   48402   48420   48432       5   48399   48390   48402       5   48399   48414
   48432       6   48399   48414   48435      11   48396   48402   48420      15
   48396   48411   48408      16   48393   48387   48396      17   48393   48405
   48423       5   48393   48408   48411      13   48393   48408   48429       5
   48390   48399   48414       9   48390   48402   48396      15   48390   48402
   48420       5   48387   48384   48390      18   48387   48393   48405      19
   48387   48393   48408      19   48387   48396   48402      20   48387   48396
   48411      21   48384   48387   48393      22   48384   48387   48396      23
   48384   48390   48399      13   48384   48390   48402      13   48738   48741
   48753       3   48723   48738   48741       3   48714   48723   48738       3
   48705   48714   48723       3   48696   48705   48714       3   48684   48696
   48705       3   48666   48684   48696       3   48654   48675   48660       5
   48651   48666   48684       3   48648   48660   48675       5   48645   48627
   48648       6   48645   48654   48675       5   48633   48651   48666       7
   48627   48645   48654       9   48627   48648   48660       9   48624   48606
   48627      11   48621   48633   48651      12   48615   48633   48621       5
   48615   48633   48651      12   48606   48624   48612       9   48606   48627
   48645      11   48606   48627   48648      11   48603   48600   48621      13
   48600   48621   48633       5   48597   48585   48600       5   48597   48615
   48633       5   48594   48588   48603      14   48594   48612   48624       5
   48591   48582   48594       5   48591   48606   48624       6   48591   48606
   48627      11   48588   48594   48612      15   48588   48603   48600      16
   48585   48579   48588      17   48585   48597   48615       5   48585   48600
   48603      13   48585   48600   48621       5   48582   48591   48606       9
   48582   48594   48588      15   48582   48594   48612       5   48579   48576
   48582      18   48579   48585   48597      19   48579   48585   48600      19
   48579   48588   48594      20   48579   48588   48603      21   48576   48579
   48585      22   48576   48579   48588      23   48576   48582   48591      13
   48576   48582   48594      13   48930   48933   48945       3   48915   48930
   48933       3   48906   48915   48930       3   48897   48906   48915       3
   48888   48897   48906       3   48876   48888   48897       3   48858   48876
   48888       3   48846   48867   48852       5   48843   48858   48876       3
   48840   48852   48867       5   48837   48819   48840       6   48837   48846
   48867       5   48825   48843   48858       7   48819   48837   48846       9
   48819   48840   48852       9   48816   48798   48819      11   48813   48825
   48843      12   48807   48825   48813       5   48807   48825   48843      12
   48798   48816   48804       9   48798   48819   48837      11   48798   48819
   48840      11   48795   48792   48813      13   48792   48813   48825       5
   48789   48777   48792       5   48789   48807   48825       5   48786   48780
   48795      14   48786   48804   48816       5   48783   48774   48786       5
   48783   48798   48816       6   48783   48798   48819      11   48780   48786
   48804      15   48780   48795   48792      16   48777   48771   48780      17
   48777   48789   48807       5   48777   48792   48795      13   48777   48792
   48813       5   48774   48783   48798       9   48774   48786   48780      15
   48774   48786   48804       5   48771   48768   48774      18   48771   48777
   48789      19   48771   48777   48792      19   48771   48780   48786      20
   48771   48780   48795      21   48768   48771   48777      22   48768   48771
   48780      23   48768   48774   48783      13   48768   48774   48786      13
   49122   49125   49137       3   49107   49122   49125       3   49098   49107
   49122       3   49089   49098   49107       3   49080   49089   49098       3
   49068   49080   49089       3   49050   49068   49080       3   49038   49059
   49044       5   49035   49050   49068       3   49032   49044   49059       5
   49029   49011   49032       6   49029   49038   49059       5   49017   49035
   49050       7   49011   49029   49038       9   49011   49032   49044       9
   49008   48990   49011      11   49005   49017   49035      12   48999   49017
   49005       5   48999   49017   49035      12   48990   49008   48996       9
   48990   49011   49029      11   48990   49011   49032      11   48987   48984
   49005      13   48984   49005   49017       5   48981   48969   48984       5
   48981   48999   49017       5   48978   48972   48987      14   48978   48996
   49008       5   48975   48966   48978       5   48975   48990   49008       6
   48975   48990   49011      11   48972   48978   48996      15   48972   48987
   48984      16   48969   48963   48972      17   48969   48981   48999       5
   48969   48984   48987      13   48969   48984   49005       5   48966   48975
   48990       9   48966   48978   48972      15   48966   48978   48996       5
   48963   48960   48966      18   48963   48969   48981      19   48963   48969
   48984      19   48963   48972   48978      20   48963   48972   48987      21
   48960   48963   48969      22   48960   48963   48972      23   48960   48966
   48975      13   48960   48966   48978      13   49314   49317   49329       3
   49299   49314   49317       3   49290   49299   49314       3   49281   49290
   49299       3   49272   49281   49290       3   49260   49272   49281       3
   49242   49260   49272       3   49230   49251   49236       5   49227   49242
   49260       3   49224   49236   49251       5   49221   49203   49224       6
   49221   49230   49251       5   49209   49227   49242       7   49203   49221
   49230       9   49203   49224   49236       9   49200   49182   49203      11
   49197   49209   49227      12   49191   49209   49197       5   49191   49209
   49227      12   49182   49200   49188       9   49182   49203   49221      11
   49182   49203   49224      11   49179   49176   49197      13   49176   49197
   49209       5   49173   49161   49176       5   49173   49191   49209       5
   49170   49164   49179      14   49170   49188   49200       5   49167   49158
   49170       5   49167   49182   49200       6   49167   49182   49203      11
   49164   49170   49188      15   49164   49179   49176      16   49161   49155
   49164      17   49161   49173   49191       5   49161   49176   49179      13
   49161   49176   49197       5   49158   49167   49182       9   49158   49170
   49164      15   49158   49170   49188       5   49155   49152   49158      18
   49155   49161   49173      19   49155   49161   49176      19   49155   49164
   49170      20   49155   49164   49179      21   49152   49155   49161      22
   49152   49155   49164      23   49152   49158   49167      13   49152   49158
   49170      13   49506   49509   49521       3   49491   49506   49509       3
   49482   49491   49506       3   49473   49482   49491       3   49464   49473
   49482       3   49452   49464   49473       3   49434   49452   49464       3
   49422   49443   49428       5   49419   49434   49452       3   49416   49428
   49443       5   49413   49395   49416       6   49413   49422   49443       5
   49401   49419   49434       7   49395   49413   49422       9   49395   49416
   49428       9   49392   49374   49395      11   49389   49401   49419      12
   49383   49401   49389       5   49383   49401   49419      12   49374   49392
   49380       9   49374   49395   49413      11   49374   49395   49416      11
   49371   49368   49389      13   49368   49389   49401       5   49365   49353
   49368       5   49365   49383   49401       5   49362   49356   49371      14
   49362   49380   49392       5   49359   49350   49362       5   49359   49374
   49392       6   49359   49374   49395      11   49356   49362   49380      15
   49356   49371   49368      16   49353   49347   49356      17   49353   49365
   49383       5   49353   49368   49371      13   49353   49368   49389       5
   49350   49359   49374       9   49350   49362   49356      15   49350   49362
   49380       5   49347   49344   49350      18   49347   49353   49365      19
   49347   49353   49368      19   49347   49356   49362      20   49347   49356
   49371      21   49344   49347   49353      22   49344   49347   49356      23
   49344   49350   49359      13   49344   49350   49362      13   49698   49701
   49713       3   49683   49698   49701       3   49674   49683   49698       3
   49665   49674   49683       3   49656   49665   49674       3   49644   49656
   49665       3   49626   49644   49656       3   49614   49635   49620       5
   49611   49626   49644       3   49608   49620   49635       5   49605   49587
   49608       6   49605   49614   49635       5   49593   49611   49626       7
   49587   49605   49614       9   49587   49608   49620       9   49584   49566
   49587      11   49581   49593   49611      12   49575   49593   49581       5
   49575   49593   49611      12   49566   49584   49572       9   49566   49587
   49605      11   49566   49587   49608      11   49563   49560   49581      13
   49560   49581   49593       5   49557   49545   49560       5   49557   49575
   49593       5   49554   49548   49563      14   49554   49572   49584       5
   49551   49542   49554       5   49551   49566   49584       6   49551   49566
   49587      11   49548   49554   49572      15   49548   49563   49560      16
   49545   49539   49548      17   49545   49557   49575       5   49545   49560
   49563      13   49545   49560   49581       5   49542   49551   49566       9
   49542   49554   49548      15   49542   49554   49572       5   49539   49536
   49542      18   49539   49545   49557      19   49539   49545   49560      19
   49539   49548   49554      20   49539   49548   49563      21   49536   49539
   49545      22   49536   49539   49548      23   49536   49542   49551      13
   49536   49542   49554      13   49890   49893   49905       3   49875   49890
   49893       3   49866   49875   49890       3   49857   49866   49875       3
   49848   49857   49866       3   49836   49848   49857       3   49818   49836
   49848       3   49806   49827   49812       5   49803   49818   49836       3
   49800   49812   49827       5   49797   49779   49800       6   49797   49806
   49827       5   49785   49803   49818       7   49779   49797   49806       9
   49779   49800   49812       9   49776   49758   49779      11   49773   49785
   49803      12   49767   49785   49773       5   49767   49785   49803      12
   49758   49776   49764       9   49758   49779   49797      11   49758   49779
   49800      11   49755   49752   49773      13   49752   49773   49785       5
   49749   49737   49752       5   49749   49767   49785       5   49746   49740
   49755      14   49746   49764   49776       5   49743   49734   49746       5
   49743   49758   49776       6   49743   49758   49779      11   49740   49746
   49764      15   49740   49755   49752      16   49737   49731   49740      17
   49737   49749   49767       5   49737   49752   49755      13   49737   49752
   49773       5   49734   49743   49758       9   49734   49746   49740      15
   49734   49746   49764       5   49731   49728   49734      18   49731   49737
   49749      19   49731   49737   49752      19   49731   49740   49746      20
   49731   49740   49755      21   49728   49731   49737      22   49728   49731
   49740      23   49728   49734   49743      13   49728   49734   49746      13
   50082   50085   50097       3   50067   50082   50085       3   50058   50067
   50082       3   50049   50058   50067       3   50040   50049   50058       3
   50028   50040   50049       3   50010   50028   50040       3   49998   50019
   50004       5   49995   50010   50028       3   49992   50004   50019       5
   49989   49971   49992       6   49989   49998   50019       5   49977   49995
   50010       7   49971   49989   49998       9   49971   49992   50004       9
   49968   49950   49971      11   49965   49977   49995      12   49959   49977
   49965       5   49959   49977   49995      12   49950   49968   49956       9
   49950   49971   49989      11   49950   49971   49992      11   49947   49944
   49965      13   49944   49965   49977       5   49941   49929   49944       5
   49941   49959   49977       5   49938   49932   49947      14   49938   49956
   49968       5   49935   49926   49938       5   49935   49950   49968       6
   49935   49950   49971      11   49932   49938   49956      15   49932   49947
   49944      16   49929   49923   49932      17   49929   49941   49959       5
   49929   49944   49947      13   49929   49944   49965       5   49926   49935
   49950       9   49926   49938   49932      15   49926   49938   49956       5
   49923   49920   49926      18   49923   49929   49941      19   49923   49929
   49944      19   49923   49932   49938      20   49923   49932   49947      21
   49920   49923   49929      22   49920   49923   49932      23   49920   49926
   49935      13   49920   49926   49938      13   50274   50277   50289       3
   50259   50274   50277       3   50250   50259   50274       3   50241   50250
   50259       3   50232   50241   50250       3   50220   50232   50241       3
   50202   50220   50232       3   50190   50211   50196       5   50187   50202
   50220       3   50184   50196   50211       5   50181   50163   50184       6
   50181   50190   50211       5   50169   50187   50202       7   50163   50181
   50190       9   50163   50184   50196       9   50160   50142   50163      11
   50157   50169   50187      12   50151   50169   50157       5   50151   50169
   50187      12   50142   50160   50148       9   50142   50163   50181      11
   50142   50163   50184      11   50139   50136   50157      13   50136   50157
   50169       5   50133   50121   50136       5   50133   50151   50169       5
   50130   50124   50139      14   50130   50148   50160       5   50127   50118
   50130       5   50127   50142   50160       6   50127   50142   50163      11
   50124   50130   50148      15   50124   50139   50136      16   50121   50115
   50124      17   50121   50133   50151       5   50121   50136   50139      13
   50121   50136   50157       5   50118   50127   50142       9   50118   50130
   50124      15   50118   50130   50148       5   50115   50112   50118      18
   50115   50121   50133      19   50115   50121   50136      19   50115   50124
   50130      20   50115   50124   50139      21   50112   50115   50121      22
   50112   50115   50124      23   50112   50118   50127      13   50112   50118
   50130      13   50466   50469   50481       3   50451   50466   50469       3
   50442   50451   50466       3   50433   50442   50451       3   50424   50433
   50442       3   50412   50424   50433       3   50394   50412   50424       3
   50382   50403   50388       5   50379   50394   50412       3   50376   50388
   50403       5   50373   50355   50376       6   50373   50382   50403       5
   50361   50379   50394       7   50355   50373   50382       9   50355   50376
   50388       9   50352   50334   50355      11   50349   50361   50379      12
   50343   50361   50349       5   50343   50361   50379      12   50334   50352
   50340       9   50334   50355   50373      11   50334   50355   50376      11
   50331   50328   50349      13   50328   50349   50361       5   50325   50313
   50328       5   50325   50343   50361       5   50322   50316   50331      14
   50322   50340   50352       5   50319   50310   50322       5   50319   50334
   50352       6   50319   50334   50355      11   50316   50322   50340      15
   50316   50331   50328      16   50313   50307   50316      17   50313   50325
   50343       5   50313   50328   50331      13   50313   50328   50349       5
   50310   50319   50334       9   50310   50322   50316      15   50310   50322
   50340       5   50307   50304   50310      18   50307   50313   50325      19
   50307   50313   50328      19   50307   50316   50322      20   50307   50316
   50331      21   50304   50307   50313      22   50304   50307   50316      23
   50304   50310   50319      13   50304   50310   50322      13   50658   50661
   50673       3   50643   50658   50661       3   50634   50643   50658       3
   50625   50634   50643       3   50616   50625   50634       3   50604   50616
   50625       3   50586   50604   50616       3   50574   50595   50580       5
   50571   50586   50604       3   50568   50580   50595       5   50565   50547
   50568       6   50565   50574   50595       5   50553   50571   50586       7
   50547   50565   50574       9   50547   50568   50580       9   50544   50526
   50547      11   50541   50553   50571      12   50535   50553   50541       5
   50535   50553   50571      12   50526   50544   50532       9   50526   50547
   50565      11   50526   50547   50568      11   50523   50520   50541      13
   50520   50541   50553       5   50517   50505   50520       5   50517   50535
   50553       5   50514   50508   50523      14   50514   50532   50544       5
   50511   50502   50514       5   50511   50526   50544       6   50511   50526
   50547      11   50508   50514   50532      15   50508   50523   50520      16
   50505   50499   50508      17   50505   50517   50535       5   50505   50520
   50523      13   50505   50520   50541       5   50502   50511   50526       9
   50502   50514   50508      15   50502   50514   50532       5   50499   50496
   50502      18   50499   50505   50517      19   50499   50505   50520      19
   50499   50508   50514      20   50499   50508   50523      21   50496   50499
   50505      22   50496   50499   50508      23   50496   50502   50511      13
   50496   50502   50514      13   50850   50853   50865       3   50835   50850
   50853       3   50826   50835   50850       3   50817   50826   50835       3
   50808   50817   50826       3   50796   50808   50817       3   50778   50796
   50808       3   50766   50787   50772       5   50763   50778   50796       3
   50760   50772   50787       5   50757   50739   50760       6   50757   50766
   50787       5   50745   50763   50778       7   50739   50757   50766       9
   50739   50760   50772       9   50736   50718   50739      11   50733   50745
   50763      12   50727   50745   50733       5   50727   50745   50763      12
   50718   50736   50724       9   50718   50739   50757      11   50718   50739
   50760      11   50715   50712   50733      13   50712   50733   50745       5
   50709   50697   50712       5   50709   50727   50745       5   50706   50700
   50715      14   50706   50724   50736       5   50703   50694   50706       5
   50703   50718   50736       6   50703   50718   50739      11   50700   50706
   50724      15   50700   50715   50712      16   50697   50691   50700      17
   50697   50709   50727       5   50697   50712   50715      13   50697   50712
   50733       5   50694   50703   50718       9   50694   50706   50700      15
   50694   50706   50724       5   50691   50688   50694      18   50691   50697
   50709      19   50691   50697   50712      19   50691   50700   50706      20
   50691   50700   50715      21   50688   50691   50697      22   50688   50691
   50700      23   50688   50694   50703      13   50688   50694   50706      13
   51042   51045   51057       3   51027   51042   51045       3   51018   51027
   51042       3   51009   51018   51027       3   51000   51009   51018       3
   50988   51000   51009       3   50970   50988   51000       3   50958   50979
   50964       5   50955   50970   50988       3   50952   50964   50979       5
   50949   50931   50952       6   50949   50958   50979       5   50937   50955
   50970       7   50931   50949   50958       9   50931   50952   50964       9
   50928   50910   50931      11   50925   50937   50955      12   50919   50937
   50925       5   50919   50937   50955      12   50910   50928   50916       9
   50910   50931   50949      11   50910   50931   50952      11   50907   50904
   50925      13   50904   50925   50937       5   50901   50889   50904       5
   50901   50919   50937       5   50898   50892   50907      14   50898   50916
   50928       5   50895   50886   50898       5   50895   50910   50928       6
   50895   50910   50931      11   50892   50898   50916      15   50892   50907
   50904      16   50889   50883   50892      17   50889   50901   50919       5
   50889   50904   50907      13   50889   50904   50925       5   50886   50895
   50910       9   50886   50898   50892      15   50886   50898   50916       5
   50883   50880   50886      18   50883   50889   50901      19   50883   50889
   50904      19   50883   50892   50898      20   50883   50892   50907      21
   50880   50883   50889      22   50880   50883   50892      23   50880   50886
   50895      13   50880   50886   50898      13   51234   51237   51249       3
   51219   51234   51237       3   51210   51219   51234       3   51201   51210
   51219       3   51192   51201   51210       3   51180   51192   51201       3
   51162   51180   51192       3   51150   51171   51156       5   51147   51162
   51180       3   51144   51156   51171       5   51141   51123   51144       6
   51141   51150   51171       5   51129   51147   51162       7   51123   51141
   51150       9   51123   51144   51156       9   51120   51102   51123      11
   51117   51129   51147      12   51111   51129   51117       5   51111   51129
   51147      12   51102   51120   51108       9   51102   51123   51141      11
   51102   51123   51144      11   51099   51096   51117      13   51096   51117
   51129       5   51093   51081   51096       5   51093   51111   51129       5
   51090   51084   51099      14   51090   51108   51120       5   51087   51078
   51090       5   51087   51102   51120       6   51087   51102   51123      11
   51084   51090   51108      15   51084   51099   51096      16   51081   51075
   51084      17   51081   51093   51111       5   51081   51096   51099      13
   51081   51096   51117       5   51078   51087   51102       9   51078   51090
   51084      15   51078   51090   51108       5   51075   51072   51078      18
   51075   51081   51093      19   51075   51081   51096      19   51075   51084
   51090      20   51075   51084   51099      21   51072   51075   51081      22
   51072   51075   51084      23   51072   51078   51087      13   51072   51078
   51090      13   51426   51429   51441       3   51411   51426   51429       3
   51402   51411   51426       3   51393   51402   51411       3   51384   51393
   51402       3   51372   51384   51393       3   51354   51372   51384       3
   51342   51363   51348       5   51339   51354   51372       3   51336   51348
   51363       5   51333   51315   51336       6   51333   51342   51363       5
   51321   51339   51354       7   51315   51333   51342       9   51315   51336
   51348       9   51312   51294   51315      11   51309   51321   51339      12
   51303   51321   51309       5   51303   51321   51339      12   51294   51312
   51300       9   51294   51315   51333      11   51294   51315   51336      11
   51291   51288   51309      13   51288   51309   51321       5   51285   51273
   51288       5   51285   51303   51321       5   51282   51276   51291      14
   51282   51300   51312       5   51279   51270   51282       5   51279   51294
   51312       6   51279   51294   51315      11   51276   51282   51300      15
   51276   51291   51288      16   51273   51267   51276      17   51273   51285
   51303       5   51273   51288   51291      13   51273   51288   51309       5
   51270   51279   51294       9   51270   51282   51276      15   51270   51282
   51300       5   51267   51264   51270      18   51267   51273   51285      19
   51267   51273   51288      19   51267   51276   51282      20   51267   51276
   51291      21   51264   51267   51273      22   51264   51267   51276      23
   51264   51270   51279      13   51264   51270   51282      13   51618   51621
   51633       3   51603   51618   51621       3   51594   51603   51618       3
   51585   51594   51603       3   51576   51585   51594       3   51564   51576
   51585       3   51546   51564   51576       3   51534   51555   51540       5
   51531   51546   51564       3   51528   51540   51555       5   51525   51507
   51528       6   51525   51534   51555       5   51513   51531   51546       7
   51507   51525   51534       9   51507   51528   51540       9   51504   51486
   51507      11   51501   51513   51531      12   51495   51513   51501       5
   51495   51513   51531      12   51486   51504   51492       9   51486   51507
   51525      11   51486   51507   51528      11   51483   51480   51501      13
   51480   51501   51513       5   51477   51465   51480       5   51477   51495
   51513       5   51474   51468   51483      14   51474   51492   51504       5
   51471   51462   51474       5   51471   51486   51504       6   51471   51486
   51507      11   51468   51474   51492      15   51468   51483   51480      16
   51465   51459   51468      17   51465   51477   51495       5   51465   51480
   51483      13   51465   51480   51501       5   51462   51471   51486       9
   51462   51474   51468      15   51462   51474   51492       5   51459   51456
   51462      18   51459   51465   51477      19   51459   51465   51480      19
   51459   51468   51474      20   51459   51468   51483      21   51456   51459
   51465      22   51456   51459   51468      23   51456   51462   51471      13
   51456   51462   51474      13   51810   51813   51825       3   51795   51810
   51813       3   51786   51795   51810       3   51777   51786   51795       3
   51768   51777   51786       3   51756   51768   51777       3   51738   51756
   51768       3   51726   51747   51732       5   51723   51738   51756       3
   51720   51732   51747       5   51717   51699   51720       6   51717   51726
   51747       5   51705   51723   51738       7   51699   51717   51726       9
   51699   51720   51732       9   51696   51678   51699      11   51693   51705
   51723      12   51687   51705   51693       5   51687   51705   51723      12
   51678   51696   51684       9   51678   51699   51717      11   51678   51699
   51720      11   51675   51672   51693      13   51672   51693   51705       5
   51669   51657   51672       5   51669   51687   51705       5   51666   51660
   51675      14   51666   51684   51696       5   51663   51654   51666       5
   51663   51678   51696       6   51663   51678   51699      11   51660   51666
   51684      15   51660   51675   51672      16   51657   51651   51660      17
   51657   51669   51687       5   51657   51672   51675      13   51657   51672
   51693       5   51654   51663   51678       9   51654   51666   51660      15
   51654   51666   51684       5   51651   51648   51654      18   51651   51657
   51669      19   51651   51657   51672      19   51651   51660   51666      20
   51651   51660   51675      21   51648   51651   51657      22   51648   51651
   51660      23   51648   51654   51663      13   51648   51654   51666      13
   52002   52005   52017       3   51987   52002   52005       3   51978   51987
   52002       3   51969   51978   51987       3   51960   51969   51978       3
   51948   51960   51969       3   51930   51948   51960       3   51918   51939
   51924       5   51915   51930   51948       3   51912   51924   51939       5
   51909   51891   51912       6   51909   51918   51939       5   51897   51915
   51930       7   51891   51909   51918       9   51891   51912   51924       9
   51888   51870   51891      11   51885   51897   51915      12   51879   51897
   51885       5   51879   51897   51915      12   51870   51888   51876       9
   51870   51891   51909      11   51870   51891   51912      11   51867   51864
   51885      13   51864   51885   51897       5   51861   51849   51864       5
   51861   51879   51897       5   51858   51852   51867      14   51858   51876
   51888       5   51855   51846   51858       5   51855   51870   51888       6
   51855   51870   51891      11   51852   51858   51876      15   51852   51867
   51864      16   51849   51843   51852      17   51849   51861   51879       5
   51849   51864   51867      13   51849   51864   51885       5   51846   51855
   51870       9   51846   51858   51852      15   51846   51858   51876       5
   51843   51840   51846      18   51843   51849   51861      19   51843   51849
   51864      19   51843   51852   51858      20   51843   51852   51867      21
   51840   51843   51849      22   51840   51843   51852      23   51840   51846
   51855      13   51840   51846   51858      13   52194   52197   52209       3
   52179   52194   52197       3   52170   52179   52194       3   52161   52170
   52179       3   52152   52161   52170       3   52140   52152   52161       3
   52122   52140   52152       3   52110   52131   52116       5   52107   52122
   52140       3   52104   52116   52131       5   52101   52083   52104       6
   52101   52110   52131       5   52089   52107   52122       7   52083   52101
   52110       9   52083   52104   52116       9   52080   52062   52083      11
   52077   52089   52107      12   52071   52089   52077       5   52071   52089
   52107      12   52062   52080   52068       9   52062   52083   52101      11
   52062   52083   52104      11   52059   52056   52077      13   52056   52077
   52089       5   52053   52041   52056       5   52053   52071   52089       5
   52050   52044   52059      14   52050   52068   52080       5   52047   52038
   52050       5   52047   52062   52080       6   52047   52062   52083      11
   52044   52050   52068      15   52044   52059   52056      16   52041   52035
   52044      17   52041   52053   52071       5   52041   52056   52059      13
   52041   52056   52077       5   52038   52047   52062       9   52038   52050
   52044      15   52038   52050   52068       5   52035   52032   52038      18
   52035   52041   52053      19   52035   52041   52056      19   52035   52044
   52050      20   52035   52044   52059      21   52032   52035   52041      22
   52032   52035   52044      23   52032   52038   52047      13   52032   52038
   52050      13   52386   52389   52401       3   52371   52386   52389       3
   52362   52371   52386       3   52353   52362   52371       3   52344   52353
   52362       3   52332   52344   52353       3   52314   52332   52344       3
   52302   52323   52308       5   52299   52314   52332       3   52296   52308
   52323       5   52293   52275   52296       6   52293   52302   52323       5
   52281   52299   52314       7   52275   52293   52302       9   52275   52296
   52308       9   52272   52254   52275      11   52269   52281   52299      12
   52263   52281   52269       5   52263   52281   52299      12   52254   52272
   52260       9   52254   52275   52293      11   52254   52275   52296      11
   52251   52248   52269      13   52248   52269   52281       5   52245   52233
   52248       5   52245   52263   52281       5   52242   52236   52251      14
   52242   52260   52272       5   52239   52230   52242       5   52239   52254
   52272       6   52239   52254   52275      11   52236   52242   52260      15
   52236   52251   52248      16   52233   52227   52236      17   52233   52245
   52263       5   52233   52248   52251      13   52233   52248   52269       5
   52230   52239   52254       9   52230   52242   52236      15   52230   52242
   52260       5   52227   52224   52230      18   52227   52233   52245      19
   52227   52233   52248      19   52227   52236   52242      20   52227   52236
   52251      21   52224   52227   52233      22   52224   52227   52236      23
   52224   52230   52239      13   52224   52230   52242      13   52578   52581
   52593       3   52563   52578   52581       3   52554   52563   52578       3
   52545   52554   52563       3   52536   52545   52554       3   52524   52536
   52545       3   52506   52524   52536       3   52494   52515   52500       5
   52491   52506   52524       3   52488   52500   52515       5   52485   52467
   52488       6   52485   52494   52515       5   52473   52491   52506       7
   52467   52485   52494       9   52467   52488   52500       9   52464   52446
   52467      11   52461   52473   52491      12   52455   52473   52461       5
   52455   52473   52491      12   52446   52464   52452       9   52446   52467
   52485      11   52446   52467   52488      11   52443   52440   52461      13
   52440   52461   52473       5   52437   52425   52440       5   52437   52455
   52473       5   52434   52428   52443      14   52434   52452   52464       5
   52431   52422   52434       5   52431   52446   52464       6   52431   52446
   52467      11   52428   52434   52452      15   52428   52443   52440      16
   52425   52419   52428      17   52425   52437   52455       5   52425   52440
   52443      13   52425   52440   52461       5   52422   52431   52446       9
   52422   52434   52428      15   52422   52434   52452       5   52419   52416
   52422      18   52419   52425   52437      19   52419   52425   52440      19
   52419   52428   52434      20   52419   52428   52443      21   52416   52419
   52425      22   52416   52419   52428      23   52416   52422   52431      13
   52416   52422   52434      13   52770   52773   52785       3   52755   52770
   52773       3   52746   52755   52770       3   52737   52746   52755       3
   52728   52737   52746       3   52716   52728   52737       3   52698   52716
   52728       3   52686   52707   52692       5   52683   52698   52716       3
   52680   52692   52707       5   52677   52659   52680       6   52677   52686
   52707       5   52665   52683   52698       7   52659   52677   52686       9
   52659   52680   52692       9   52656   52638   52659      11   52653   52665
   52683      12   52647   52665   52653       5   52647   52665   52683      12
   52638   52656   52644       9   52638   52659   52677      11   52638   52659
   52680      11   52635   52632   52653      13   52632   52653   52665       5
   52629   52617   52632       5   52629   52647   52665       5   52626   52620
   52635      14   52626   52644   52656       5   52623   52614   52626       5
   52623   52638   52656       6   52623   52638   52659      11   52620   52626
   52644      15   52620   52635   52632      16   52617   52611   52620      17
   52617   52629   52647       5   52617   52632   52635      13   52617   52632
   52653       5   52614   52623   52638       9   52614   52626   52620      15
   52614   52626   52644       5   52611   52608   52614      18   52611   52617
   52629      19   52611   52617   52632      19   52611   52620   52626      20
   52611   52620   52635      21   52608   52611   52617      22   52608   52611
   52620      23   52608   52614   52623      13   52608   52614   52626      13
   52962   52965   52977       3   52947   52962   52965       3   52938   52947
   52962       3   52929   52938   52947       3   52920   52929   52938       3
   52908   52920   52929       3   52890   52908   52920       3   52878   52899
   52884       5   52875   52890   52908       3   52872   52884   52899       5
   52869   52851   52872       6   52869   52878   52899       5   52857   52875
   52890       7   52851   52869   52878       9   52851   52872   52884       9
   52848   52830   52851      11   52845   52857   52875      12   52839   52857
   52845       5   52839   52857   52875      12   52830   52848   52836       9
   52830   52851   52869      11   52830   52851   52872      11   52827   52824
   52845      13   52824   52845   52857       5   52821   52809   52824       5
   52821   52839   52857       5   52818   52812   52827      14   52818   52836
   52848       5   52815   52806   52818       5   52815   52830   52848       6
   52815   52830   52851      11   52812   52818   52836      15   52812   52827
   52824      16   52809   52803   52812      17   52809   52821   52839       5
   52809   52824   52827      13   52809   52824   52845       5   52806   52815
   52830       9   52806   52818   52812      15   52806   52818   52836       5
   52803   52800   52806      18   52803   52809   52821      19   52803   52809
   52824      19   52803   52812   52818      20   52803   52812   52827      21
   52800   52803   52809      22   52800   52803   52812      23   52800   52806
   52815      13   52800   52806   52818      13   53154   53157   53169       3
   53139   53154   53157       3   53130   53139   53154       3   53121   53130
   53139       3   53112   53121   53130       3   53100   53112   53121       3
   53082   53100   53112       3   53070   53091   53076       5   53067   53082
   53100       3   53064   53076   53091       5   53061   53043   53064       6
   53061   53070   53091       5   53049   53067   53082       7   53043   53061
   53070       9   53043   53064   53076       9   53040   53022   53043      11
   53037   53049   53067      12   53031   53049   53037       5   53031   53049
   53067      12   53022   53040   53028       9   53022   53043   53061      11
   53022   53043   53064      11   53019   53016   53037      13   53016   53037
   53049       5   53013   53001   53016       5   53013   53031   53049       5
   53010   53004   53019      14   53010   53028   53040       5   53007   52998
   53010       5   53007   53022   53040       6   53007   53022   53043      11
   53004   53010   53028      15   53004   53019   53016      16   53001   52995
   53004      17   53001   53013   53031       5   53001   53016   53019      13
   53001   53016   53037       5   52998   53007   53022       9   52998   53010
   53004      15   52998   53010   53028       5   52995   52992   52998      18
   52995   53001   53013      19   52995   53001   53016      19   52995   53004
   53010      20   52995   53004   53019      21   52992   52995   53001      22
   52992   52995   53004      23   52992   52998   53007      13   52992   52998
   53010      13   53346   53349   53361       3   53331   53346   53349       3
   53322   53331   53346       3   53313   53322   53331       3   53304   53313
   53322       3   53292   53304   53313       3   53274   53292   53304       3
   53262   53283   53268       5   53259   53274   53292       3   53256   53268
   53283       5   53253   53235   53256       6   53253   53262   53283       5
   53241   53259   53274       7   53235   53253   53262       9   53235   53256
   53268       9   53232   53214   53235      11   53229   53241   53259      12
   53223   53241   53229       5   53223   53241   53259      12   53214   53232
   53220       9   53214   53235   53253      11   53214   53235   53256      11
   53211   53208   53229      13   53208   53229   53241       5   53205   53193
   53208       5   53205   53223   53241       5   53202   53196   53211      14
   53202   53220   53232       5   53199   53190   53202       5   53199   53214
   53232       6   53199   53214   53235      11   53196   53202   53220      15
   53196   53211   53208      16   53193   53187   53196      17   53193   53205
   53223       5   53193   53208   53211      13   53193   53208   53229       5
   53190   53199   53214       9   53190   53202   53196      15   53190   53202
   53220       5   53187   53184   53190      18   53187   53193   53205      19
   53187   53193   53208      19   53187   53196   53202      20   53187   53196
   53211      21   53184   53187   53193      22   53184   53187   53196      23
   53184   53190   53199      13   53184   53190   53202      13   53538   53541
   53553       3   53523   53538   53541       3   53514   53523   53538       3
   53505   53514   53523       3   53496   53505   53514       3   53484   53496
   53505       3   53466   53484   53496       3   53454   53475   53460       5
   53451   53466   53484       3   53448   53460   53475       5   53445   53427
   53448       6   53445   53454   53475       5   53433   53451   53466       7
   53427   53445   53454       9   53427   53448   53460       9   53424   53406
   53427      11   53421   53433   53451      12   53415   53433   53421       5
   53415   53433   53451      12   53406   53424   53412       9   53406   53427
   53445      11   53406   53427   53448      11   53403   53400   53421      13
   53400   53421   53433       5   53397   53385   53400       5   53397   53415
   53433       5   53394   53388   53403      14   53394   53412   53424       5
   53391   53382   53394       5   53391   53406   53424       6   53391   53406
   53427      11   53388   53394   53412      15   53388   53403   53400      16
   53385   53379   53388      17   53385   53397   53415       5   53385   53400
   53403      13   53385   53400   53421       5   53382   53391   53406       9
   53382   53394   53388      15   53382   53394   53412       5   53379   53376
   53382      18   53379   53385   53397      19   53379   53385   53400      19
   53379   53388   53394      20   53379   53388   53403      21   53376   53379
   53385      22   53376   53379   53388      23   53376   53382   53391      13
   53376   53382   53394      13   53730   53733   53745       3   53715   53730
   53733       3   53706   53715   53730       3   53697   53706   53715       3
   53688   53697   53706       3   53676   53688   53697       3   53658   53676
   53688       3   53646   53667   53652       5   53643   53658   53676       3
   53640   53652   53667       5   53637   53619   53640       6   53637   53646
   53667       5   53625   53643   53658       7   53619   53637   53646       9
   53619   53640   53652       9   53616   53598   53619      11   53613   53625
   53643      12   53607   53625   53613       5   53607   53625   53643      12
   53598   53616   53604       9   53598   53619   53637      11   53598   53619
   53640      11   53595   53592   53613      13   53592   53613   53625       5
   53589   53577   53592       5   53589   53607   53625       5   53586   53580
   53595      14   53586   53604   53616       5   53583   53574   53586       5
   53583   53598   53616       6   53583   53598   53619      11   53580   53586
   53604      15   53580   53595   53592      16   53577   53571   53580      17
   53577   53589   53607       5   53577   53592   53595      13   53577   53592
   53613       5   53574   53583   53598       9   53574   53586   53580      15
   53574   53586   53604       5   53571   53568   53574      18   53571   53577
   53589      19   53571   53577   53592      19   53571   53580   53586      20
   53571   53580   53595      21   53568   53571   53577      22   53568   53571
   53580      23   53568   53574   53583      13   53568   53574   53586      13
   53922   53925   53937       3   53907   53922   53925       3   53898   53907
   53922       3   53889   53898   53907       3   53880   53889   53898       3
   53868   53880   53889       3   53850   53868   53880       3   53838   53859
   53844       5   53835   53850   53868       3   53832   53844   53859       5
   53829   53811   53832       6   53829   53838   53859       5   53817   53835
   53850       7   53811   53829   53838       9   53811   53832   53844       9
   53808   53790   53811      11   53805   53817   53835      12   53799   53817
   53805       5   53799   53817   53835      12   53790   53808   53796       9
   53790   53811   53829      11   53790   53811   53832      11   53787   53784
   53805      13   53784   53805   53817       5   53781   53769   53784       5
   53781   53799   53817       5   53778   53772   53787      14   53778   53796
   53808       5   53775   53766   53778       5   53775   53790   53808       6
   53775   53790   53811      11   53772   53778   53796      15   53772   53787
   53784      16   53769   53763   53772      17   53769   53781   53799       5
   53769   53784   53787      13   53769   53784   53805       5   53766   53775
   53790       9   53766   53778   53772      15   53766   53778   53796       5
   53763   53760   53766      18   53763   53769   53781      19   53763   53769
   53784      19   53763   53772   53778      20   53763   53772   53787      21
   53760   53763   53769      22   53760   53763   53772      23   53760   53766
   53775      13   53760   53766   53778      13   54114   54117   54129       3
   54099   54114   54117       3   54090   54099   54114       3   54081   54090
   54099       3   54072   54081   54090       3   54060   54072   54081       3
   54042   54060   54072       3   54030   54051   54036       5   54027   54042
   54060       3   54024   54036   54051       5   54021   54003   54024       6
   54021   54030   54051       5   54009   54027   54042       7   54003   54021
   54030       9   54003   54024   54036       9   54000   53982   54003      11
   53997   54009   54027      12   53991   54009   53997       5   53991   54009
   54027      12   53982   54000   53988       9   53982   54003   54021      11
   53982   54003   54024      11   53979   53976   53997      13   53976   53997
   54009       5   53973   53961   53976       5   53973   53991   54009       5
   53970   53964   53979      14   53970   53988   54000       5   53967   53958
   53970       5   53967   53982   54000       6   53967   53982   54003      11
   53964   53970   53988      15   53964   53979   53976      16   53961   53955
   53964      17   53961   53973   53991       5   53961   53976   53979      13
   53961   53976   53997       5   53958   53967   53982       9   53958   53970
   53964      15   53958   53970   53988       5   53955   53952   53958      18
   53955   53961   53973      19   53955   53961   53976      19   53955   53964
   53970      20   53955   53964   53979      21   53952   53955   53961      22
   53952   53955   53964      23   53952   53958   53967      13   53952   53958
   53970      13   54306   54309   54321       3   54291   54306   54309       3
   54282   54291   54306       3   54273   54282   54291       3   54264   54273
   54282       3   54252   54264   54273       3   54234   54252   54264       3
   54222   54243   54228       5   54219   54234   54252       3   54216   54228
   54243       5   54213   54195   54216       6   54213   54222   54243       5
   54201   54219   54234       7   54195   54213   54222       9   54195   54216
   54228       9   54192   54174   54195      11   54189   54201   54219      12
   54183   54201   54189       5   54183   54201   54219      12   54174   54192
   54180       9   54174   54195   54213      11   54174   54195   54216      11
   54171   54168   54189      13   54168   54189   54201       5   54165   54153
   54168       5   54165   54183   54201       5   54162   54156   54171      14
   54162   54180   54192       5   54159   54150   54162       5   54159   54174
   54192       6   54159   54174   54195      11   54156   54162   54180      15
   54156   54171   54168      16   54153   54147   54156      17   54153   54165
   54183       5   54153   54168   54171      13   54153   54168   54189       5
   54150   54159   54174       9   54150   54162   54156      15   54150   54162
   54180       5   54147   54144   54150      18   54147   54153   54165      19
   54147   54153   54168      19   54147   54156   54162      20   54147   54156
   54171      21   54144   54147   54153      22   54144   54147   54156      23
   54144   54150   54159      13   54144   54150   54162      13   54498   54501
   54513       3   54483   54498   54501       3   54474   54483   54498       3
   54465   54474   54483       3   54456   54465   54474       3   54444   54456
   54465       3   54426   54444   54456       3   54414   54435   54420       5
   54411   54426   54444       3   54408   54420   54435       5   54405   54387
   54408       6   54405   54414   54435       5   54393   54411   54426       7
   54387   54405   54414       9   54387   54408   54420       9   54384   54366
   54387      11   54381   54393   54411      12   54375   54393   54381       5
   54375   54393   54411      12   54366   54384   54372       9   54366   54387
   54405      11   54366   54387   54408      11   54363   54360   54381      13
   54360   54381   54393       5   54357   54345   54360       5   54357   54375
   54393       5   54354   54348   54363      14   54354   54372   54384       5
   54351   54342   54354       5   54351   54366   54384       6   54351   54366
   54387      11   54348   54354   54372      15   54348   54363   54360      16
   54345   54339   54348      17   54345   54357   54375       5   54345   54360
   54363      13   54345   54360   54381       5   54342   54351   54366       9
   54342   54354   54348      15   54342   54354   54372       5   54339   54336
   54342      18   54339   54345   54357      19   54339   54345   54360      19
   54339   54348   54354      20   54339   54348   54363      21   54336   54339
   54345      22   54336   54339   54348      23   54336   54342   54351      13
   54336   54342   54354      13   54690   54693   54705       3   54675   54690
   54693       3   54666   54675   54690       3   54657   54666   54675       3
   54648   54657   54666       3   54636   54648   54657       3   54618   54636
   54648       3   54606   54627   54612       5   54603   54618   54636       3
   54600   54612   54627       5   54597   54579   54600       6   54597   54606
   54627       5   54585   54603   54618       7   54579   54597   54606       9
   54579   54600   54612       9   54576   54558   54579      11   54573   54585
   54603      12   54567   54585   54573       5   54567   54585   54603      12
   54558   54576   54564       9   54558   54579   54597      11   54558   54579
   54600      11   54555   54552   54573      13   54552   54573   54585       5
   54549   54537   54552       5   54549   54567   54585       5   54546   54540
   54555      14   54546   54564   54576       5   54543   54534   54546       5
   54543   54558   54576       6   54543   54558   54579      11   54540   54546
   54564      15   54540   54555   54552      16   54537   54531   54540      17
   54537   54549   54567       5   54537   54552   54555      13   54537   54552
   54573       5   54534   54543   54558       9   54534   54546   54540      15
   54534   54546   54564       5   54531   54528   54534      18   54531   54537
   54549      19   54531   54537   54552      19   54531   54540   54546      20
   54531   54540   54555      21   54528   54531   54537      22   54528   54531
   54540      23   54528   54534   54543      13   54528   54534   54546      13
   54882   54885   54897       3   54867   54882   54885       3   54858   54867
   54882       3   54849   54858   54867       3   54840   54849   54858       3
   54828   54840   54849       3   54810   54828   54840       3   54798   54819
   54804       5   54795   54810   54828       3   54792   54804   54819       5
   54789   54771   54792       6   54789   54798   54819       5   54777   54795
   54810       7   54771   54789   54798       9   54771   54792   54804       9
   54768   54750   54771      11   54765   54777   54795      12   54759   54777
   54765       5   54759   54777   54795      12   54750   54768   54756       9
   54750   54771   54789      11   54750   54771   54792      11   54747   54744
   54765      13   54744   54765   54777       5   54741   54729   54744       5
   54741   54759   54777       5   54738   54732   54747      14   54738   54756
   54768       5   54735   54726   54738       5   54735   54750   54768       6
   54735   54750   54771      11   54732   54738   54756      15   54732   54747
   54744      16   54729   54723   54732      17   54729   54741   54759       5
   54729   54744   54747      13   54729   54744   54765       5   54726   54735
   54750       9   54726   54738   54732      15   54726   54738   54756       5
   54723   54720   54726      18   54723   54729   54741      19   54723   54729
   54744      19   54723   54732   54738      20   54723   54732   54747      21
   54720   54723   54729      22   54720   54723   54732      23   54720   54726
   54735      13   54720   54726   54738      13   55074   55077   55089       3
   55059   55074   55077       3   55050   55059   55074       3   55041   55050
   55059       3   55032   55041   55050       3   55020   55032   55041       3
   55002   55020   55032       3   54990   55011   54996       5   54987   55002
   55020       3   54984   54996   55011       5   54981   54963   54984       6
   54981   54990   55011       5   54969   54987   55002       7   54963   54981
   54990       9   54963   54984   54996       9   54960   54942   54963      11
   54957   54969   54987      12   54951   54969   54957       5   54951   54969
   54987      12   54942   54960   54948       9   54942   54963   54981      11
   54942   54963   54984      11   54939   54936   54957      13   54936   54957
   54969       5   54933   54921   54936       5   54933   54951   54969       5
   54930   54924   54939      14   54930   54948   54960       5   54927   54918
   54930       5   54927   54942   54960       6   54927   54942   54963      11
   54924   54930   54948      15   54924   54939   54936      16   54921   54915
   54924      17   54921   54933   54951       5   54921   54936   54939      13
   54921   54936   54957       5   54918   54927   54942       9   54918   54930
   54924      15   54918   54930   54948       5   54915   54912   54918      18
   54915   54921   54933      19   54915   54921   54936      19   54915   54924
   54930      20   54915   54924   54939      21   54912   54915   54921      22
   54912   54915   54924      23   54912   54918   54927      13   54912   54918
   54930      13   55266   55269   55281       3   55251   55266   55269       3
   55242   55251   55266       3   55233   55242   55251       3   55224   55233
   55242       3   55212   55224   55233       3   55194   55212   55224       3
   55182   55203   55188       5   55179   55194   55212       3   55176   55188
   55203       5   55173   55155   55176       6   55173   55182   55203       5
   55161   55179   55194       7   55155   55173   55182       9   55155   55176
   55188       9   55152   55134   55155      11   55149   55161   55179      12
   55143   55161   55149       5   55143   55161   55179      12   55134   55152
   55140       9   55134   55155   55173      11   55134   55155   55176      11
   55131   55128   55149      13   55128   55149   55161       5   55125   55113
   55128       5   55125   55143   55161       5   55122   55116   55131      14
   55122   55140   55152       5   55119   55110   55122       5   55119   55134
   55152       6   55119   55134   55155      11   55116   55122   55140      15
   55116   55131   55128      16   55113   55107   55116      17   55113   55125
   55143       5   55113   55128   55131      13   55113   55128   55149       5
   55110   55119   55134       9   55110   55122   55116      15   55110   55122
   55140       5   55107   55104   55110      18   55107   55113   55125      19
   55107   55113   55128      19   55107   55116   55122      20   55107   55116
   55131      21   55104   55107   55113      22   55104   55107   55116      23
   55104   55110   55119      13   55104   55110   55122      13
%FLAG DIHEDRALS_INC_HYDROGEN                                                    
%FORMAT(10I8)                                                                   
     180     165     177     183       1     180     165     177     186       1
     180     165     177     189       1     174     165     177     183       1
     174     165     177     186       1     174     165     177     189       1
     171     162     165     174       1     171     162     165     177       2
     171     162     165     180       1     168     162     165     174       1
     168     162     165     177       2     168     162     165     180       1
     162     165     177     183       2     162     165     177     186       2
     162     165     177     189       2     159     147     162     165       2
     159     147     162     168       1     159     147     162     171       1
     156     147     162     165       2     156     147     162     168       1
     156     147     162     171       1     153     138     147     156       1
     153     138     147     159       1     153     138     147     162       2
     150     138     147     156       1     150     138     147     159       1
     150     138     147     162       2     147     162     165     174       2
     147     162     165     180       2     144     129     138     147       2
     144     129     138     150       1     144     129     138     153       1
     141     129     138     147       2     141     129     138     150       1
     141     129     138     153       1     138     147     162     168       2
     138     147     162     171       2     135     120     129     138       2
     135     120     129     141       1     135     120     129     144       1
     132     120     129     138       2     132     120     129     141       1
     132     120     129     144       1     129     138     147     156       2
     129     138     147     159       2     126     108     120     129       2
     126     108     120     132       1     126     108     120     135       1
     123     108     120     129       2     123     108     120     132       1
     123     108     120     135       1     120     129     138     150       2
     120     129     138     153       2     114      90     108     120       2
     114      90     108     123       1     114      90     108     126       1
     111      90     108     120       2     111      90     108     123       1
     111      90     108     126       1     108     120     129     141       2
     108     120     129     144       2     105      84      99     117       4
     102      78      99     117       4      96      75      90     108       2
      96      75      90     111       1      96      75      90     114       1
      93      75      90     108       2      93      75      90     111       1
      93      75      90     114       1      90     108     120     132       2
      90     108     120     135       2      87      72      84      99       4
      87      72      84     105       4      84      99      78     102       4
      81      69      78      99       4      81      69      78     102       4
      78      99      84     105       4      75      90     108     123       2
      75      90     108     126       2      72      51      69      81       4
      72      84      99     117       4      69      51      72      87       4
      69      78      99     117       4      63      45      57      75       4
      60      39      57      75       4      57      75      90     111       5
      57      75      90     114       5      54      36      48      66       4
      51      30      48      66       4      51      69      78     102       4
      51      72      84     105       4      45      57      39      60       4
      45      57      75      93       8      45      57      75      96       8
      42      21      39      57       4      42      21      39      60       4
      39      57      45      63       4      39      57      75      93       8
      39      57      75      96       8      33      15      30      48       4
      33      15      30      51       4      30      48      36      54       4
      30      51      69      81       4      30      51      72      87       4
      27      24      45      63       4      24       9      21      42       4
      18       6      15      33       4      18      36      48      66       4
      15      30      48      66       4      12      18      36      54       4
       9      21      39      60       4       9      24      45      63       4
       6      18      36      54       4       3       9      21      42       4
       0       6      15      33       4     372     357     369     375       1
     372     357     369     378       1     372     357     369     381       1
     366     357     369     375       1     366     357     369     378       1
     366     357     369     381       1     363     354     357     366       1
     363     354     357     369       2     363     354     357     372       1
     360     354     357     366       1     360     354     357     369       2
     360     354     357     372       1     354     357     369     375       2
     354     357     369     378       2     354     357     369     381       2
     351     339     354     357       2     351     339     354     360       1
     351     339     354     363       1     348     339     354     357       2
     348     339     354     360       1     348     339     354     363       1
     345     330     339     348       1     345     330     339     351       1
     345     330     339     354       2     342     330     339     348       1
     342     330     339     351       1     342     330     339     354       2
     339     354     357     366       2     339     354     357     372       2
     336     321     330     339       2     336     321     330     342       1
     336     321     330     345       1     333     321     330     339       2
     333     321     330     342       1     333     321     330     345       1
     330     339     354     360       2     330     339     354     363       2
     327     312     321     330       2     327     312     321     333       1
     327     312     321     336       1     324     312     321     330       2
     324     312     321     333       1     324     312     321     336       1
     321     330     339     348       2     321     330     339     351       2
     318     300     312     321       2     318     300     312     324       1
     318     300     312     327       1     315     300     312     321       2
     315     300     312     324       1     315     300     312     327       1
     312     321     330     342       2     312     321     330     345       2
     306     282     300     312       2     306     282     300     315       1
     306     282     300     318       1     303     282     300     312       2
     303     282     300     315       1     303     282     300     318       1
     300     312     321     333       2     300     312     321     336       2
     297     276     291     309       4     294     270     291     309       4
     288     267     282     300       2     288     267     282     303       1
     288     267     282     306       1     285     267     282     300       2
     285     267     282     303       1     285     267     282     306       1
     282     300     312     324       2     282     300     312     327       2
     279     264     276     291       4     279     264     276     297       4
     276     291     270     294       4     273     261     270     291       4
     273     261     270     294       4     270     291     276     297       4
     267     282     300     315       2     267     282     300     318       2
     264     243     261     273       4     264     276     291     309       4
     261     243     264     279       4     261     270     291     309       4
     255     237     249     267       4     252     231     249     267       4
     249     267     282     303       5     249     267     282     306       5
     246     228     240     258       4     243     222     240     258       4
     243     261     270     294       4     243     264     276     297       4
     237     249     231     252       4     237     249     267     285       8
     237     249     267     288       8     234     213     231     249       4
     234     213     231     252       4     231     249     237     255       4
     231     249     267     285       8     231     249     267     288       8
     225     207     222     240       4     225     207     222     243       4
     222     240     228     246       4     222     243     261     273       4
     222     243     264     279       4     219     216     237     255       4
     216     201     213     234       4     210     198     207     225       4
     210     228     240     258       4     207     222     240     258       4
     204     210     228     246       4     201     213     231     252       4
     201     216     237     255       4     198     210     228     246       4
     195     201     213     234       4     192     198     207     225       4
     564     549     561     567       1     564     549     561     570       1
     564     549     561     573       1     558     549     561     567       1
     558     549     561     570       1     558     549     561     573       1
     555     546     549     558       1     555     546     549     561       2
     555     546     549     564       1     552     546     549     558       1
     552     546     549     561       2     552     546     549     564       1
     546     549     561     567       2     546     549     561     570       2
     546     549     561     573       2     543     531     546     549       2
     543     531     546     552       1     543     531     546     555       1
     540     531     546     549       2     540     531     546     552       1
     540     531     546     555       1     537     522     531     540       1
     537     522     531     543       1     537     522     531     546       2
     534     522     531     540       1     534     522     531     543       1
     534     522     531     546       2     531     546     549     558       2
     531     546     549     564       2     528     513     522     531       2
     528     513     522     534       1     528     513     522     537       1
     525     513     522     531       2     525     513     522     534       1
     525     513     522     537       1     522     531     546     552       2
     522     531     546     555       2     519     504     513     522       2
     519     504     513     525       1     519     504     513     528       1
     516     504     513     522       2     516     504     513     525       1
     516     504     513     528       1     513     522     531     540       2
     513     522     531     543       2     510     492     504     513       2
     510     492     504     516       1     510     492     504     519       1
     507     492     504     513       2     507     492     504     516       1
     507     492     504     519       1     504     513     522     534       2
     504     513     522     537       2     498     474     492     504       2
     498     474     492     507       1     498     474     492     510       1
     495     474     492     504       2     495     474     492     507       1
     495     474     492     510       1     492     504     513     525       2
     492     504     513     528       2     489     468     483     501       4
     486     462     483     501       4     480     459     474     492       2
     480     459     474     495       1     480     459     474     498       1
     477     459     474     492       2     477     459     474     495       1
     477     459     474     498       1     474     492     504     516       2
     474     492     504     519       2     471     456     468     483       4
     471     456     468     489       4     468     483     462     486       4
     465     453     462     483       4     465     453     462     486       4
     462     483     468     489       4     459     474     492     507       2
     459     474     492     510       2     456     435     453     465       4
     456     468     483     501       4     453     435     456     471       4
     453     462     483     501       4     447     429     441     459       4
     444     423     441     459       4     441     459     474     495       5
     441     459     474     498       5     438     420     432     450       4
     435     414     432     450       4     435     453     462     486       4
     435     456     468     489       4     429     441     423     444       4
     429     441     459     477       8     429     441     459     480       8
     426     405     423     441       4     426     405     423     444       4
     423     441     429     447       4     423     441     459     477       8
     423     441     459     480       8     417     399     414     432       4
     417     399     414     435       4     414     432     420     438       4
     414     435     453     465       4     414     435     456     471       4
     411     408     429     447       4     408     393     405     426       4
     402     390     399     417       4     402     420     432     450       4
     399     414     432     450       4     396     402     420     438       4
     393     405     423     444       4     393     408     429     447       4
     390     402     420     438       4     387     393     405     426       4
     384     390     399     417       4     756     741     753     759       1
     756     741     753     762       1     756     741     753     765       1
     750     741     753     759       1     750     741     753     762       1
     750     741     753     765       1     747     738     741     750       1
     747     738     741     753       2     747     738     741     756       1
     744     738     741     750       1     744     738     741     753       2
     744     738     741     756       1     738     741     753     759       2
     738     741     753     762       2     738     741     753     765       2
     735     723     738     741       2     735     723     738     744       1
     735     723     738     747       1     732     723     738     741       2
     732     723     738     744       1     732     723     738     747       1
     729     714     723     732       1     729     714     723     735       1
     729     714     723     738       2     726     714     723     732       1
     726     714     723     735       1     726     714     723     738       2
     723     738     741     750       2     723     738     741     756       2
     720     705     714     723       2     720     705     714     726       1
     720     705     714     729       1     717     705     714     723       2
     717     705     714     726       1     717     705     714     729       1
     714     723     738     744       2     714     723     738     747       2
     711     696     705     714       2     711     696     705     717       1
     711     696     705     720       1     708     696     705     714       2
     708     696     705     717       1     708     696     705     720       1
     705     714     723     732       2     705     714     723     735       2
     702     684     696     705       2     702     684     696     708       1
     702     684     696     711       1     699     684     696     705       2
     699     684     696     708       1     699     684     696     711       1
     696     705     714     726       2     696     705     714     729       2
     690     666     684     696       2     690     666     684     699       1
     690     666     684     702       1     687     666     684     696       2
     687     666     684     699       1     687     666     684     702       1
     684     696     705     717       2     684     696     705     720       2
     681     660     675     693       4     678     654     675     693       4
     672     651     666     684       2     672     651     666     687       1
     672     651     666     690       1     669     651     666     684       2
     669     651     666     687       1     669     651     666     690       1
     666     684     696     708       2     666     684     696     711       2
     663     648     660     675       4     663     648     660     681       4
     660     675     654     678       4     657     645     654     675       4
     657     645     654     678       4     654     675     660     681       4
     651     666     684     699       2     651     666     684     702       2
     648     627     645     657       4     648     660     675     693       4
     645     627     648     663       4     645     654     675     693       4
     639     621     633     651       4     636     615     633     651       4
     633     651     666     687       5     633     651     666     690       5
     630     612     624     642       4     627     606     624     642       4
     627     645     654     678       4     627     648     660     681       4
     621     633     615     636       4     621     633     651     669       8
     621     633     651     672       8     618     597     615     633       4
     618     597     615     636       4     615     633     621     639       4
     615     633     651     669       8     615     633     651     672       8
     609     591     606     624       4     609     591     606     627       4
     606     624     612     630       4     606     627     645     657       4
     606     627     648     663       4     603     600     621     639       4
     600     585     597     618       4     594     582     591     609       4
     594     612     624     642       4     591     606     624     642       4
     588     594     612     630       4     585     597     615     636       4
     585     600     621     639       4     582     594     612     630       4
     579     585     597     618       4     576     582     591     609       4
     948     933     945     951       1     948     933     945     954       1
     948     933     945     957       1     942     933     945     951       1
     942     933     945     954       1     942     933     945     957       1
     939     930     933     942       1     939     930     933     945       2
     939     930     933     948       1     936     930     933     942       1
     936     930     933     945       2     936     930     933     948       1
     930     933     945     951       2     930     933     945     954       2
     930     933     945     957       2     927     915     930     933       2
     927     915     930     936       1     927     915     930     939       1
     924     915     930     933       2     924     915     930     936       1
     924     915     930     939       1     921     906     915     924       1
     921     906     915     927       1     921     906     915     930       2
     918     906     915     924       1     918     906     915     927       1
     918     906     915     930       2     915     930     933     942       2
     915     930     933     948       2     912     897     906     915       2
     912     897     906     918       1     912     897     906     921       1
     909     897     906     915       2     909     897     906     918       1
     909     897     906     921       1     906     915     930     936       2
     906     915     930     939       2     903     888     897     906       2
     903     888     897     909       1     903     888     897     912       1
     900     888     897     906       2     900     888     897     909       1
     900     888     897     912       1     897     906     915     924       2
     897     906     915     927       2     894     876     888     897       2
     894     876     888     900       1     894     876     888     903       1
     891     876     888     897       2     891     876     888     900       1
     891     876     888     903       1     888     897     906     918       2
     888     897     906     921       2     882     858     876     888       2
     882     858     876     891       1     882     858     876     894       1
     879     858     876     888       2     879     858     876     891       1
     879     858     876     894       1     876     888     897     909       2
     876     888     897     912       2     873     852     867     885       4
     870     846     867     885       4     864     843     858     876       2
     864     843     858     879       1     864     843     858     882       1
     861     843     858     876       2     861     843     858     879       1
     861     843     858     882       1     858     876     888     900       2
     858     876     888     903       2     855     840     852     867       4
     855     840     852     873       4     852     867     846     870       4
     849     837     846     867       4     849     837     846     870       4
     846     867     852     873       4     843     858     876     891       2
     843     858     876     894       2     840     819     837     849       4
     840     852     867     885       4     837     819     840     855       4
     837     846     867     885       4     831     813     825     843       4
     828     807     825     843       4     825     843     858     879       5
     825     843     858     882       5     822     804     816     834       4
     819     798     816     834       4     819     837     846     870       4
     819     840     852     873       4     813     825     807     828       4
     813     825     843     861       8     813     825     843     864       8
     810     789     807     825       4     810     789     807     828       4
     807     825     813     831       4     807     825     843     861       8
     807     825     843     864       8     801     783     798     816       4
     801     783     798     819       4     798     816     804     822       4
     798     819     837     849       4     798     819     840     855       4
     795     792     813     831       4     792     777     789     810       4
     786     774     783     801       4     786     804     816     834       4
     783     798     816     834       4     780     786     804     822       4
     777     789     807     828       4     777     792     813     831       4
     774     786     804     822       4     771     777     789     810       4
     768     774     783     801       4    1140    1125    1137    1143       1
    1140    1125    1137    1146       1    1140    1125    1137    1149       1
    1134    1125    1137    1143       1    1134    1125    1137    1146       1
    1134    1125    1137    1149       1    1131    1122    1125    1134       1
    1131    1122    1125    1137       2    1131    1122    1125    1140       1
    1128    1122    1125    1134       1    1128    1122    1125    1137       2
    1128    1122    1125    1140       1    1122    1125    1137    1143       2
    1122    1125    1137    1146       2    1122    1125    1137    1149       2
    1119    1107    1122    1125       2    1119    1107    1122    1128       1
    1119    1107    1122    1131       1    1116    1107    1122    1125       2
    1116    1107    1122    1128       1    1116    1107    1122    1131       1
    1113    1098    1107    1116       1    1113    1098    1107    1119       1
    1113    1098    1107    1122       2    1110    1098    1107    1116       1
    1110    1098    1107    1119       1    1110    1098    1107    1122       2
    1107    1122    1125    1134       2    1107    1122    1125    1140       2
    1104    1089    1098    1107       2    1104    1089    1098    1110       1
    1104    1089    1098    1113       1    1101    1089    1098    1107       2
    1101    1089    1098    1110       1    1101    1089    1098    1113       1
    1098    1107    1122    1128       2    1098    1107    1122    1131       2
    1095    1080    1089    1098       2    1095    1080    1089    1101       1
    1095    1080    1089    1104       1    1092    1080    1089    1098       2
    1092    1080    1089    1101       1    1092    1080    1089    1104       1
    1089    1098    1107    1116       2    1089    1098    1107    1119       2
    1086    1068    1080    1089       2    1086    1068    1080    1092       1
    1086    1068    1080    1095       1    1083    1068    1080    1089       2
    1083    1068    1080    1092       1    1083    1068    1080    1095       1
    1080    1089    1098    1110       2    1080    1089    1098    1113       2
    1074    1050    1068    1080       2    1074    1050    1068    1083       1
    1074    1050    1068    1086       1    1071    1050    1068    1080       2
    1071    1050    1068    1083       1    1071    1050    1068    1086       1
    1068    1080    1089    1101       2    1068    1080    1089    1104       2
    1065    1044    1059    1077       4    1062    1038    1059    1077       4
    1056    1035    1050    1068       2    1056    1035    1050    1071       1
    1056    1035    1050    1074       1    1053    1035    1050    1068       2
    1053    1035    1050    1071       1    1053    1035    1050    1074       1
    1050    1068    1080    1092       2    1050    1068    1080    1095       2
    1047    1032    1044    1059       4    1047    1032    1044    1065       4
    1044    1059    1038    1062       4    1041    1029    1038    1059       4
    1041    1029    1038    1062       4    1038    1059    1044    1065       4
    1035    1050    1068    1083       2    1035    1050    1068    1086       2
    1032    1011    1029    1041       4    1032    1044    1059    1077       4
    1029    1011    1032    1047       4    1029    1038    1059    1077       4
    1023    1005    1017    1035       4    1020     999    1017    1035       4
    1017    1035    1050    1071       5    1017    1035    1050    1074       5
    1014     996    1008    1026       4    1011     990    1008    1026       4
    1011    1029    1038    1062       4    1011    1032    1044    1065       4
    1005    1017     999    1020       4    1005    1017    1035    1053       8
    1005    1017    1035    1056       8    1002     981     999    1017       4
    1002     981     999    1020       4     999    1017    1005    1023       4
     999    1017    1035    1053       8     999    1017    1035    1056       8
     993     975     990    1008       4     993     975     990    1011       4
     990    1008     996    1014       4     990    1011    1029    1041       4
     990    1011    1032    1047       4     987     984    1005    1023       4
     984     969     981    1002       4     978     966     975     993       4
     978     996    1008    1026       4     975     990    1008    1026       4
     972     978     996    1014       4     969     981     999    1020       4
     969     984    1005    1023       4     966     978     996    1014       4
     963     969     981    1002       4     960     966     975     993       4
    1332    1317    1329    1335       1    1332    1317    1329    1338       1
    1332    1317    1329    1341       1    1326    1317    1329    1335       1
    1326    1317    1329    1338       1    1326    1317    1329    1341       1
    1323    1314    1317    1326       1    1323    1314    1317    1329       2
    1323    1314    1317    1332       1    1320    1314    1317    1326       1
    1320    1314    1317    1329       2    1320    1314    1317    1332       1
    1314    1317    1329    1335       2    1314    1317    1329    1338       2
    1314    1317    1329    1341       2    1311    1299    1314    1317       2
    1311    1299    1314    1320       1    1311    1299    1314    1323       1
    1308    1299    1314    1317       2    1308    1299    1314    1320       1
    1308    1299    1314    1323       1    1305    1290    1299    1308       1
    1305    1290    1299    1311       1    1305    1290    1299    1314       2
    1302    1290    1299    1308       1    1302    1290    1299    1311       1
    1302    1290    1299    1314       2    1299    1314    1317    1326       2
    1299    1314    1317    1332       2    1296    1281    1290    1299       2
    1296    1281    1290    1302       1    1296    1281    1290    1305       1
    1293    1281    1290    1299       2    1293    1281    1290    1302       1
    1293    1281    1290    1305       1    1290    1299    1314    1320       2
    1290    1299    1314    1323       2    1287    1272    1281    1290       2
    1287    1272    1281    1293       1    1287    1272    1281    1296       1
    1284    1272    1281    1290       2    1284    1272    1281    1293       1
    1284    1272    1281    1296       1    1281    1290    1299    1308       2
    1281    1290    1299    1311       2    1278    1260    1272    1281       2
    1278    1260    1272    1284       1    1278    1260    1272    1287       1
    1275    1260    1272    1281       2    1275    1260    1272    1284       1
    1275    1260    1272    1287       1    1272    1281    1290    1302       2
    1272    1281    1290    1305       2    1266    1242    1260    1272       2
    1266    1242    1260    1275       1    1266    1242    1260    1278       1
    1263    1242    1260    1272       2    1263    1242    1260    1275       1
    1263    1242    1260    1278       1    1260    1272    1281    1293       2
    1260    1272    1281    1296       2    1257    1236    1251    1269       4
    1254    1230    1251    1269       4    1248    1227    1242    1260       2
    1248    1227    1242    1263       1    1248    1227    1242    1266       1
    1245    1227    1242    1260       2    1245    1227    1242    1263       1
    1245    1227    1242    1266       1    1242    1260    1272    1284       2
    1242    1260    1272    1287       2    1239    1224    1236    1251       4
    1239    1224    1236    1257       4    1236    1251    1230    1254       4
    1233    1221    1230    1251       4    1233    1221    1230    1254       4
    1230    1251    1236    1257       4    1227    1242    1260    1275       2
    1227    1242    1260    1278       2    1224    1203    1221    1233       4
    1224    1236    1251    1269       4    1221    1203    1224    1239       4
    1221    1230    1251    1269       4    1215    1197    1209    1227       4
    1212    1191    1209    1227       4    1209    1227    1242    1263       5
    1209    1227    1242    1266       5    1206    1188    1200    1218       4
    1203    1182    1200    1218       4    1203    1221    1230    1254       4
    1203    1224    1236    1257       4    1197    1209    1191    1212       4
    1197    1209    1227    1245       8    1197    1209    1227    1248       8
    1194    1173    1191    1209       4    1194    1173    1191    1212       4
    1191    1209    1197    1215       4    1191    1209    1227    1245       8
    1191    1209    1227    1248       8    1185    1167    1182    1200       4
    1185    1167    1182    1203       4    1182    1200    1188    1206       4
    1182    1203    1221    1233       4    1182    1203    1224    1239       4
    1179    1176    1197    1215       4    1176    1161    1173    1194       4
    1170    1158    1167    1185       4    1170    1188    1200    1218       4
    1167    1182    1200    1218       4    1164    1170    1188    1206       4
    1161    1173    1191    1212       4    1161    1176    1197    1215       4
    1158    1170    1188    1206       4    1155    1161    1173    1194       4
    1152    1158    1167    1185       4    1524    1509    1521    1527       1
    1524    1509    1521    1530       1    1524    1509    1521    1533       1
    1518    1509    1521    1527       1    1518    1509    1521    1530       1
    1518    1509    1521    1533       1    1515    1506    1509    1518       1
    1515    1506    1509    1521       2    1515    1506    1509    1524       1
    1512    1506    1509    1518       1    1512    1506    1509    1521       2
    1512    1506    1509    1524       1    1506    1509    1521    1527       2
    1506    1509    1521    1530       2    1506    1509    1521    1533       2
    1503    1491    1506    1509       2    1503    1491    1506    1512       1
    1503    1491    1506    1515       1    1500    1491    1506    1509       2
    1500    1491    1506    1512       1    1500    1491    1506    1515       1
    1497    1482    1491    1500       1    1497    1482    1491    1503       1
    1497    1482    1491    1506       2    1494    1482    1491    1500       1
    1494    1482    1491    1503       1    1494    1482    1491    1506       2
    1491    1506    1509    1518       2    1491    1506    1509    1524       2
    1488    1473    1482    1491       2    1488    1473    1482    1494       1
    1488    1473    1482    1497       1    1485    1473    1482    1491       2
    1485    1473    1482    1494       1    1485    1473    1482    1497       1
    1482    1491    1506    1512       2    1482    1491    1506    1515       2
    1479    1464    1473    1482       2    1479    1464    1473    1485       1
    1479    1464    1473    1488       1    1476    1464    1473    1482       2
    1476    1464    1473    1485       1    1476    1464    1473    1488       1
    1473    1482    1491    1500       2    1473    1482    1491    1503       2
    1470    1452    1464    1473       2    1470    1452    1464    1476       1
    1470    1452    1464    1479       1    1467    1452    1464    1473       2
    1467    1452    1464    1476       1    1467    1452    1464    1479       1
    1464    1473    1482    1494       2    1464    1473    1482    1497       2
    1458    1434    1452    1464       2    1458    1434    1452    1467       1
    1458    1434    1452    1470       1    1455    1434    1452    1464       2
    1455    1434    1452    1467       1    1455    1434    1452    1470       1
    1452    1464    1473    1485       2    1452    1464    1473    1488       2
    1449    1428    1443    1461       4    1446    1422    1443    1461       4
    1440    1419    1434    1452       2    1440    1419    1434    1455       1
    1440    1419    1434    1458       1    1437    1419    1434    1452       2
    1437    1419    1434    1455       1    1437    1419    1434    1458       1
    1434    1452    1464    1476       2    1434    1452    1464    1479       2
    1431    1416    1428    1443       4    1431    1416    1428    1449       4
    1428    1443    1422    1446       4    1425    1413    1422    1443       4
    1425    1413    1422    1446       4    1422    1443    1428    1449       4
    1419    1434    1452    1467       2    1419    1434    1452    1470       2
    1416    1395    1413    1425       4    1416    1428    1443    1461       4
    1413    1395    1416    1431       4    1413    1422    1443    1461       4
    1407    1389    1401    1419       4    1404    1383    1401    1419       4
    1401    1419    1434    1455       5    1401    1419    1434    1458       5
    1398    1380    1392    1410       4    1395    1374    1392    1410       4
    1395    1413    1422    1446       4    1395    1416    1428    1449       4
    1389    1401    1383    1404       4    1389    1401    1419    1437       8
    1389    1401    1419    1440       8    1386    1365    1383    1401       4
    1386    1365    1383    1404       4    1383    1401    1389    1407       4
    1383    1401    1419    1437       8    1383    1401    1419    1440       8
    1377    1359    1374    1392       4    1377    1359    1374    1395       4
    1374    1392    1380    1398       4    1374    1395    1413    1425       4
    1374    1395    1416    1431       4    1371    1368    1389    1407       4
    1368    1353    1365    1386       4    1362    1350    1359    1377       4
    1362    1380    1392    1410       4    1359    1374    1392    1410       4
    1356    1362    1380    1398       4    1353    1365    1383    1404       4
    1353    1368    1389    1407       4    1350    1362    1380    1398       4
    1347    1353    1365    1386       4    1344    1350    1359    1377       4
    1716    1701    1713    1719       1    1716    1701    1713    1722       1
    1716    1701    1713    1725       1    1710    1701    1713    1719       1
    1710    1701    1713    1722       1    1710    1701    1713    1725       1
    1707    1698    1701    1710       1    1707    1698    1701    1713       2
    1707    1698    1701    1716       1    1704    1698    1701    1710       1
    1704    1698    1701    1713       2    1704    1698    1701    1716       1
    1698    1701    1713    1719       2    1698    1701    1713    1722       2
    1698    1701    1713    1725       2    1695    1683    1698    1701       2
    1695    1683    1698    1704       1    1695    1683    1698    1707       1
    1692    1683    1698    1701       2    1692    1683    1698    1704       1
    1692    1683    1698    1707       1    1689    1674    1683    1692       1
    1689    1674    1683    1695       1    1689    1674    1683    1698       2
    1686    1674    1683    1692       1    1686    1674    1683    1695       1
    1686    1674    1683    1698       2    1683    1698    1701    1710       2
    1683    1698    1701    1716       2    1680    1665    1674    1683       2
    1680    1665    1674    1686       1    1680    1665    1674    1689       1
    1677    1665    1674    1683       2    1677    1665    1674    1686       1
    1677    1665    1674    1689       1    1674    1683    1698    1704       2
    1674    1683    1698    1707       2    1671    1656    1665    1674       2
    1671    1656    1665    1677       1    1671    1656    1665    1680       1
    1668    1656    1665    1674       2    1668    1656    1665    1677       1
    1668    1656    1665    1680       1    1665    1674    1683    1692       2
    1665    1674    1683    1695       2    1662    1644    1656    1665       2
    1662    1644    1656    1668       1    1662    1644    1656    1671       1
    1659    1644    1656    1665       2    1659    1644    1656    1668       1
    1659    1644    1656    1671       1    1656    1665    1674    1686       2
    1656    1665    1674    1689       2    1650    1626    1644    1656       2
    1650    1626    1644    1659       1    1650    1626    1644    1662       1
    1647    1626    1644    1656       2    1647    1626    1644    1659       1
    1647    1626    1644    1662       1    1644    1656    1665    1677       2
    1644    1656    1665    1680       2    1641    1620    1635    1653       4
    1638    1614    1635    1653       4    1632    1611    1626    1644       2
    1632    1611    1626    1647       1    1632    1611    1626    1650       1
    1629    1611    1626    1644       2    1629    1611    1626    1647       1
    1629    1611    1626    1650       1    1626    1644    1656    1668       2
    1626    1644    1656    1671       2    1623    1608    1620    1635       4
    1623    1608    1620    1641       4    1620    1635    1614    1638       4
    1617    1605    1614    1635       4    1617    1605    1614    1638       4
    1614    1635    1620    1641       4    1611    1626    1644    1659       2
    1611    1626    1644    1662       2    1608    1587    1605    1617       4
    1608    1620    1635    1653       4    1605    1587    1608    1623       4
    1605    1614    1635    1653       4    1599    1581    1593    1611       4
    1596    1575    1593    1611       4    1593    1611    1626    1647       5
    1593    1611    1626    1650       5    1590    1572    1584    1602       4
    1587    1566    1584    1602       4    1587    1605    1614    1638       4
    1587    1608    1620    1641       4    1581    1593    1575    1596       4
    1581    1593    1611    1629       8    1581    1593    1611    1632       8
    1578    1557    1575    1593       4    1578    1557    1575    1596       4
    1575    1593    1581    1599       4    1575    1593    1611    1629       8
    1575    1593    1611    1632       8    1569    1551    1566    1584       4
    1569    1551    1566    1587       4    1566    1584    1572    1590       4
    1566    1587    1605    1617       4    1566    1587    1608    1623       4
    1563    1560    1581    1599       4    1560    1545    1557    1578       4
    1554    1542    1551    1569       4    1554    1572    1584    1602       4
    1551    1566    1584    1602       4    1548    1554    1572    1590       4
    1545    1557    1575    1596       4    1545    1560    1581    1599       4
    1542    1554    1572    1590       4    1539    1545    1557    1578       4
    1536    1542    1551    1569       4    1908    1893    1905    1911       1
    1908    1893    1905    1914       1    1908    1893    1905    1917       1
    1902    1893    1905    1911       1    1902    1893    1905    1914       1
    1902    1893    1905    1917       1    1899    1890    1893    1902       1
    1899    1890    1893    1905       2    1899    1890    1893    1908       1
    1896    1890    1893    1902       1    1896    1890    1893    1905       2
    1896    1890    1893    1908       1    1890    1893    1905    1911       2
    1890    1893    1905    1914       2    1890    1893    1905    1917       2
    1887    1875    1890    1893       2    1887    1875    1890    1896       1
    1887    1875    1890    1899       1    1884    1875    1890    1893       2
    1884    1875    1890    1896       1    1884    1875    1890    1899       1
    1881    1866    1875    1884       1    1881    1866    1875    1887       1
    1881    1866    1875    1890       2    1878    1866    1875    1884       1
    1878    1866    1875    1887       1    1878    1866    1875    1890       2
    1875    1890    1893    1902       2    1875    1890    1893    1908       2
    1872    1857    1866    1875       2    1872    1857    1866    1878       1
    1872    1857    1866    1881       1    1869    1857    1866    1875       2
    1869    1857    1866    1878       1    1869    1857    1866    1881       1
    1866    1875    1890    1896       2    1866    1875    1890    1899       2
    1863    1848    1857    1866       2    1863    1848    1857    1869       1
    1863    1848    1857    1872       1    1860    1848    1857    1866       2
    1860    1848    1857    1869       1    1860    1848    1857    1872       1
    1857    1866    1875    1884       2    1857    1866    1875    1887       2
    1854    1836    1848    1857       2    1854    1836    1848    1860       1
    1854    1836    1848    1863       1    1851    1836    1848    1857       2
    1851    1836    1848    1860       1    1851    1836    1848    1863       1
    1848    1857    1866    1878       2    1848    1857    1866    1881       2
    1842    1818    1836    1848       2    1842    1818    1836    1851       1
    1842    1818    1836    1854       1    1839    1818    1836    1848       2
    1839    1818    1836    1851       1    1839    1818    1836    1854       1
    1836    1848    1857    1869       2    1836    1848    1857    1872       2
    1833    1812    1827    1845       4    1830    1806    1827    1845       4
    1824    1803    1818    1836       2    1824    1803    1818    1839       1
    1824    1803    1818    1842       1    1821    1803    1818    1836       2
    1821    1803    1818    1839       1    1821    1803    1818    1842       1
    1818    1836    1848    1860       2    1818    1836    1848    1863       2
    1815    1800    1812    1827       4    1815    1800    1812    1833       4
    1812    1827    1806    1830       4    1809    1797    1806    1827       4
    1809    1797    1806    1830       4    1806    1827    1812    1833       4
    1803    1818    1836    1851       2    1803    1818    1836    1854       2
    1800    1779    1797    1809       4    1800    1812    1827    1845       4
    1797    1779    1800    1815       4    1797    1806    1827    1845       4
    1791    1773    1785    1803       4    1788    1767    1785    1803       4
    1785    1803    1818    1839       5    1785    1803    1818    1842       5
    1782    1764    1776    1794       4    1779    1758    1776    1794       4
    1779    1797    1806    1830       4    1779    1800    1812    1833       4
    1773    1785    1767    1788       4    1773    1785    1803    1821       8
    1773    1785    1803    1824       8    1770    1749    1767    1785       4
    1770    1749    1767    1788       4    1767    1785    1773    1791       4
    1767    1785    1803    1821       8    1767    1785    1803    1824       8
    1761    1743    1758    1776       4    1761    1743    1758    1779       4
    1758    1776    1764    1782       4    1758    1779    1797    1809       4
    1758    1779    1800    1815       4    1755    1752    1773    1791       4
    1752    1737    1749    1770       4    1746    1734    1743    1761       4
    1746    1764    1776    1794       4    1743    1758    1776    1794       4
    1740    1746    1764    1782       4    1737    1749    1767    1788       4
    1737    1752    1773    1791       4    1734    1746    1764    1782       4
    1731    1737    1749    1770       4    1728    1734    1743    1761       4
    2100    2085    2097    2103       1    2100    2085    2097    2106       1
    2100    2085    2097    2109       1    2094    2085    2097    2103       1
    2094    2085    2097    2106       1    2094    2085    2097    2109       1
    2091    2082    2085    2094       1    2091    2082    2085    2097       2
    2091    2082    2085    2100       1    2088    2082    2085    2094       1
    2088    2082    2085    2097       2    2088    2082    2085    2100       1
    2082    2085    2097    2103       2    2082    2085    2097    2106       2
    2082    2085    2097    2109       2    2079    2067    2082    2085       2
    2079    2067    2082    2088       1    2079    2067    2082    2091       1
    2076    2067    2082    2085       2    2076    2067    2082    2088       1
    2076    2067    2082    2091       1    2073    2058    2067    2076       1
    2073    2058    2067    2079       1    2073    2058    2067    2082       2
    2070    2058    2067    2076       1    2070    2058    2067    2079       1
    2070    2058    2067    2082       2    2067    2082    2085    2094       2
    2067    2082    2085    2100       2    2064    2049    2058    2067       2
    2064    2049    2058    2070       1    2064    2049    2058    2073       1
    2061    2049    2058    2067       2    2061    2049    2058    2070       1
    2061    2049    2058    2073       1    2058    2067    2082    2088       2
    2058    2067    2082    2091       2    2055    2040    2049    2058       2
    2055    2040    2049    2061       1    2055    2040    2049    2064       1
    2052    2040    2049    2058       2    2052    2040    2049    2061       1
    2052    2040    2049    2064       1    2049    2058    2067    2076       2
    2049    2058    2067    2079       2    2046    2028    2040    2049       2
    2046    2028    2040    2052       1    2046    2028    2040    2055       1
    2043    2028    2040    2049       2    2043    2028    2040    2052       1
    2043    2028    2040    2055       1    2040    2049    2058    2070       2
    2040    2049    2058    2073       2    2034    2010    2028    2040       2
    2034    2010    2028    2043       1    2034    2010    2028    2046       1
    2031    2010    2028    2040       2    2031    2010    2028    2043       1
    2031    2010    2028    2046       1    2028    2040    2049    2061       2
    2028    2040    2049    2064       2    2025    2004    2019    2037       4
    2022    1998    2019    2037       4    2016    1995    2010    2028       2
    2016    1995    2010    2031       1    2016    1995    2010    2034       1
    2013    1995    2010    2028       2    2013    1995    2010    2031       1
    2013    1995    2010    2034       1    2010    2028    2040    2052       2
    2010    2028    2040    2055       2    2007    1992    2004    2019       4
    2007    1992    2004    2025       4    2004    2019    1998    2022       4
    2001    1989    1998    2019       4    2001    1989    1998    2022       4
    1998    2019    2004    2025       4    1995    2010    2028    2043       2
    1995    2010    2028    2046       2    1992    1971    1989    2001       4
    1992    2004    2019    2037       4    1989    1971    1992    2007       4
    1989    1998    2019    2037       4    1983    1965    1977    1995       4
    1980    1959    1977    1995       4    1977    1995    2010    2031       5
    1977    1995    2010    2034       5    1974    1956    1968    1986       4
    1971    1950    1968    1986       4    1971    1989    1998    2022       4
    1971    1992    2004    2025       4    1965    1977    1959    1980       4
    1965    1977    1995    2013       8    1965    1977    1995    2016       8
    1962    1941    1959    1977       4    1962    1941    1959    1980       4
    1959    1977    1965    1983       4    1959    1977    1995    2013       8
    1959    1977    1995    2016       8    1953    1935    1950    1968       4
    1953    1935    1950    1971       4    1950    1968    1956    1974       4
    1950    1971    1989    2001       4    1950    1971    1992    2007       4
    1947    1944    1965    1983       4    1944    1929    1941    1962       4
    1938    1926    1935    1953       4    1938    1956    1968    1986       4
    1935    1950    1968    1986       4    1932    1938    1956    1974       4
    1929    1941    1959    1980       4    1929    1944    1965    1983       4
    1926    1938    1956    1974       4    1923    1929    1941    1962       4
    1920    1926    1935    1953       4    2292    2277    2289    2295       1
    2292    2277    2289    2298       1    2292    2277    2289    2301       1
    2286    2277    2289    2295       1    2286    2277    2289    2298       1
    2286    2277    2289    2301       1    2283    2274    2277    2286       1
    2283    2274    2277    2289       2    2283    2274    2277    2292       1
    2280    2274    2277    2286       1    2280    2274    2277    2289       2
    2280    2274    2277    2292       1    2274    2277    2289    2295       2
    2274    2277    2289    2298       2    2274    2277    2289    2301       2
    2271    2259    2274    2277       2    2271    2259    2274    2280       1
    2271    2259    2274    2283       1    2268    2259    2274    2277       2
    2268    2259    2274    2280       1    2268    2259    2274    2283       1
    2265    2250    2259    2268       1    2265    2250    2259    2271       1
    2265    2250    2259    2274       2    2262    2250    2259    2268       1
    2262    2250    2259    2271       1    2262    2250    2259    2274       2
    2259    2274    2277    2286       2    2259    2274    2277    2292       2
    2256    2241    2250    2259       2    2256    2241    2250    2262       1
    2256    2241    2250    2265       1    2253    2241    2250    2259       2
    2253    2241    2250    2262       1    2253    2241    2250    2265       1
    2250    2259    2274    2280       2    2250    2259    2274    2283       2
    2247    2232    2241    2250       2    2247    2232    2241    2253       1
    2247    2232    2241    2256       1    2244    2232    2241    2250       2
    2244    2232    2241    2253       1    2244    2232    2241    2256       1
    2241    2250    2259    2268       2    2241    2250    2259    2271       2
    2238    2220    2232    2241       2    2238    2220    2232    2244       1
    2238    2220    2232    2247       1    2235    2220    2232    2241       2
    2235    2220    2232    2244       1    2235    2220    2232    2247       1
    2232    2241    2250    2262       2    2232    2241    2250    2265       2
    2226    2202    2220    2232       2    2226    2202    2220    2235       1
    2226    2202    2220    2238       1    2223    2202    2220    2232       2
    2223    2202    2220    2235       1    2223    2202    2220    2238       1
    2220    2232    2241    2253       2    2220    2232    2241    2256       2
    2217    2196    2211    2229       4    2214    2190    2211    2229       4
    2208    2187    2202    2220       2    2208    2187    2202    2223       1
    2208    2187    2202    2226       1    2205    2187    2202    2220       2
    2205    2187    2202    2223       1    2205    2187    2202    2226       1
    2202    2220    2232    2244       2    2202    2220    2232    2247       2
    2199    2184    2196    2211       4    2199    2184    2196    2217       4
    2196    2211    2190    2214       4    2193    2181    2190    2211       4
    2193    2181    2190    2214       4    2190    2211    2196    2217       4
    2187    2202    2220    2235       2    2187    2202    2220    2238       2
    2184    2163    2181    2193       4    2184    2196    2211    2229       4
    2181    2163    2184    2199       4    2181    2190    2211    2229       4
    2175    2157    2169    2187       4    2172    2151    2169    2187       4
    2169    2187    2202    2223       5    2169    2187    2202    2226       5
    2166    2148    2160    2178       4    2163    2142    2160    2178       4
    2163    2181    2190    2214       4    2163    2184    2196    2217       4
    2157    2169    2151    2172       4    2157    2169    2187    2205       8
    2157    2169    2187    2208       8    2154    2133    2151    2169       4
    2154    2133    2151    2172       4    2151    2169    2157    2175       4
    2151    2169    2187    2205       8    2151    2169    2187    2208       8
    2145    2127    2142    2160       4    2145    2127    2142    2163       4
    2142    2160    2148    2166       4    2142    2163    2181    2193       4
    2142    2163    2184    2199       4    2139    2136    2157    2175       4
    2136    2121    2133    2154       4    2130    2118    2127    2145       4
    2130    2148    2160    2178       4    2127    2142    2160    2178       4
    2124    2130    2148    2166       4    2121    2133    2151    2172       4
    2121    2136    2157    2175       4    2118    2130    2148    2166       4
    2115    2121    2133    2154       4    2112    2118    2127    2145       4
    2484    2469    2481    2487       1    2484    2469    2481    2490       1
    2484    2469    2481    2493       1    2478    2469    2481    2487       1
    2478    2469    2481    2490       1    2478    2469    2481    2493       1
    2475    2466    2469    2478       1    2475    2466    2469    2481       2
    2475    2466    2469    2484       1    2472    2466    2469    2478       1
    2472    2466    2469    2481       2    2472    2466    2469    2484       1
    2466    2469    2481    2487       2    2466    2469    2481    2490       2
    2466    2469    2481    2493       2    2463    2451    2466    2469       2
    2463    2451    2466    2472       1    2463    2451    2466    2475       1
    2460    2451    2466    2469       2    2460    2451    2466    2472       1
    2460    2451    2466    2475       1    2457    2442    2451    2460       1
    2457    2442    2451    2463       1    2457    2442    2451    2466       2
    2454    2442    2451    2460       1    2454    2442    2451    2463       1
    2454    2442    2451    2466       2    2451    2466    2469    2478       2
    2451    2466    2469    2484       2    2448    2433    2442    2451       2
    2448    2433    2442    2454       1    2448    2433    2442    2457       1
    2445    2433    2442    2451       2    2445    2433    2442    2454       1
    2445    2433    2442    2457       1    2442    2451    2466    2472       2
    2442    2451    2466    2475       2    2439    2424    2433    2442       2
    2439    2424    2433    2445       1    2439    2424    2433    2448       1
    2436    2424    2433    2442       2    2436    2424    2433    2445       1
    2436    2424    2433    2448       1    2433    2442    2451    2460       2
    2433    2442    2451    2463       2    2430    2412    2424    2433       2
    2430    2412    2424    2436       1    2430    2412    2424    2439       1
    2427    2412    2424    2433       2    2427    2412    2424    2436       1
    2427    2412    2424    2439       1    2424    2433    2442    2454       2
    2424    2433    2442    2457       2    2418    2394    2412    2424       2
    2418    2394    2412    2427       1    2418    2394    2412    2430       1
    2415    2394    2412    2424       2    2415    2394    2412    2427       1
    2415    2394    2412    2430       1    2412    2424    2433    2445       2
    2412    2424    2433    2448       2    2409    2388    2403    2421       4
    2406    2382    2403    2421       4    2400    2379    2394    2412       2
    2400    2379    2394    2415       1    2400    2379    2394    2418       1
    2397    2379    2394    2412       2    2397    2379    2394    2415       1
    2397    2379    2394    2418       1    2394    2412    2424    2436       2
    2394    2412    2424    2439       2    2391    2376    2388    2403       4
    2391    2376    2388    2409       4    2388    2403    2382    2406       4
    2385    2373    2382    2403       4    2385    2373    2382    2406       4
    2382    2403    2388    2409       4    2379    2394    2412    2427       2
    2379    2394    2412    2430       2    2376    2355    2373    2385       4
    2376    2388    2403    2421       4    2373    2355    2376    2391       4
    2373    2382    2403    2421       4    2367    2349    2361    2379       4
    2364    2343    2361    2379       4    2361    2379    2394    2415       5
    2361    2379    2394    2418       5    2358    2340    2352    2370       4
    2355    2334    2352    2370       4    2355    2373    2382    2406       4
    2355    2376    2388    2409       4    2349    2361    2343    2364       4
    2349    2361    2379    2397       8    2349    2361    2379    2400       8
    2346    2325    2343    2361       4    2346    2325    2343    2364       4
    2343    2361    2349    2367       4    2343    2361    2379    2397       8
    2343    2361    2379    2400       8    2337    2319    2334    2352       4
    2337    2319    2334    2355       4    2334    2352    2340    2358       4
    2334    2355    2373    2385       4    2334    2355    2376    2391       4
    2331    2328    2349    2367       4    2328    2313    2325    2346       4
    2322    2310    2319    2337       4    2322    2340    2352    2370       4
    2319    2334    2352    2370       4    2316    2322    2340    2358       4
    2313    2325    2343    2364       4    2313    2328    2349    2367       4
    2310    2322    2340    2358       4    2307    2313    2325    2346       4
    2304    2310    2319    2337       4    2676    2661    2673    2679       1
    2676    2661    2673    2682       1    2676    2661    2673    2685       1
    2670    2661    2673    2679       1    2670    2661    2673    2682       1
    2670    2661    2673    2685       1    2667    2658    2661    2670       1
    2667    2658    2661    2673       2    2667    2658    2661    2676       1
    2664    2658    2661    2670       1    2664    2658    2661    2673       2
    2664    2658    2661    2676       1    2658    2661    2673    2679       2
    2658    2661    2673    2682       2    2658    2661    2673    2685       2
    2655    2643    2658    2661       2    2655    2643    2658    2664       1
    2655    2643    2658    2667       1    2652    2643    2658    2661       2
    2652    2643    2658    2664       1    2652    2643    2658    2667       1
    2649    2634    2643    2652       1    2649    2634    2643    2655       1
    2649    2634    2643    2658       2    2646    2634    2643    2652       1
    2646    2634    2643    2655       1    2646    2634    2643    2658       2
    2643    2658    2661    2670       2    2643    2658    2661    2676       2
    2640    2625    2634    2643       2    2640    2625    2634    2646       1
    2640    2625    2634    2649       1    2637    2625    2634    2643       2
    2637    2625    2634    2646       1    2637    2625    2634    2649       1
    2634    2643    2658    2664       2    2634    2643    2658    2667       2
    2631    2616    2625    2634       2    2631    2616    2625    2637       1
    2631    2616    2625    2640       1    2628    2616    2625    2634       2
    2628    2616    2625    2637       1    2628    2616    2625    2640       1
    2625    2634    2643    2652       2    2625    2634    2643    2655       2
    2622    2604    2616    2625       2    2622    2604    2616    2628       1
    2622    2604    2616    2631       1    2619    2604    2616    2625       2
    2619    2604    2616    2628       1    2619    2604    2616    2631       1
    2616    2625    2634    2646       2    2616    2625    2634    2649       2
    2610    2586    2604    2616       2    2610    2586    2604    2619       1
    2610    2586    2604    2622       1    2607    2586    2604    2616       2
    2607    2586    2604    2619       1    2607    2586    2604    2622       1
    2604    2616    2625    2637       2    2604    2616    2625    2640       2
    2601    2580    2595    2613       4    2598    2574    2595    2613       4
    2592    2571    2586    2604       2    2592    2571    2586    2607       1
    2592    2571    2586    2610       1    2589    2571    2586    2604       2
    2589    2571    2586    2607       1    2589    2571    2586    2610       1
    2586    2604    2616    2628       2    2586    2604    2616    2631       2
    2583    2568    2580    2595       4    2583    2568    2580    2601       4
    2580    2595    2574    2598       4    2577    2565    2574    2595       4
    2577    2565    2574    2598       4    2574    2595    2580    2601       4
    2571    2586    2604    2619       2    2571    2586    2604    2622       2
    2568    2547    2565    2577       4    2568    2580    2595    2613       4
    2565    2547    2568    2583       4    2565    2574    2595    2613       4
    2559    2541    2553    2571       4    2556    2535    2553    2571       4
    2553    2571    2586    2607       5    2553    2571    2586    2610       5
    2550    2532    2544    2562       4    2547    2526    2544    2562       4
    2547    2565    2574    2598       4    2547    2568    2580    2601       4
    2541    2553    2535    2556       4    2541    2553    2571    2589       8
    2541    2553    2571    2592       8    2538    2517    2535    2553       4
    2538    2517    2535    2556       4    2535    2553    2541    2559       4
    2535    2553    2571    2589       8    2535    2553    2571    2592       8
    2529    2511    2526    2544       4    2529    2511    2526    2547       4
    2526    2544    2532    2550       4    2526    2547    2565    2577       4
    2526    2547    2568    2583       4    2523    2520    2541    2559       4
    2520    2505    2517    2538       4    2514    2502    2511    2529       4
    2514    2532    2544    2562       4    2511    2526    2544    2562       4
    2508    2514    2532    2550       4    2505    2517    2535    2556       4
    2505    2520    2541    2559       4    2502    2514    2532    2550       4
    2499    2505    2517    2538       4    2496    2502    2511    2529       4
    2868    2853    2865    2871       1    2868    2853    2865    2874       1
    2868    2853    2865    2877       1    2862    2853    2865    2871       1
    2862    2853    2865    2874       1    2862    2853    2865    2877       1
    2859    2850    2853    2862       1    2859    2850    2853    2865       2
    2859    2850    2853    2868       1    2856    2850    2853    2862       1
    2856    2850    2853    2865       2    2856    2850    2853    2868       1
    2850    2853    2865    2871       2    2850    2853    2865    2874       2
    2850    2853    2865    2877       2    2847    2835    2850    2853       2
    2847    2835    2850    2856       1    2847    2835    2850    2859       1
    2844    2835    2850    2853       2    2844    2835    2850    2856       1
    2844    2835    2850    2859       1    2841    2826    2835    2844       1
    2841    2826    2835    2847       1    2841    2826    2835    2850       2
    2838    2826    2835    2844       1    2838    2826    2835    2847       1
    2838    2826    2835    2850       2    2835    2850    2853    2862       2
    2835    2850    2853    2868       2    2832    2817    2826    2835       2
    2832    2817    2826    2838       1    2832    2817    2826    2841       1
    2829    2817    2826    2835       2    2829    2817    2826    2838       1
    2829    2817    2826    2841       1    2826    2835    2850    2856       2
    2826    2835    2850    2859       2    2823    2808    2817    2826       2
    2823    2808    2817    2829       1    2823    2808    2817    2832       1
    2820    2808    2817    2826       2    2820    2808    2817    2829       1
    2820    2808    2817    2832       1    2817    2826    2835    2844       2
    2817    2826    2835    2847       2    2814    2796    2808    2817       2
    2814    2796    2808    2820       1    2814    2796    2808    2823       1
    2811    2796    2808    2817       2    2811    2796    2808    2820       1
    2811    2796    2808    2823       1    2808    2817    2826    2838       2
    2808    2817    2826    2841       2    2802    2778    2796    2808       2
    2802    2778    2796    2811       1    2802    2778    2796    2814       1
    2799    2778    2796    2808       2    2799    2778    2796    2811       1
    2799    2778    2796    2814       1    2796    2808    2817    2829       2
    2796    2808    2817    2832       2    2793    2772    2787    2805       4
    2790    2766    2787    2805       4    2784    2763    2778    2796       2
    2784    2763    2778    2799       1    2784    2763    2778    2802       1
    2781    2763    2778    2796       2    2781    2763    2778    2799       1
    2781    2763    2778    2802       1    2778    2796    2808    2820       2
    2778    2796    2808    2823       2    2775    2760    2772    2787       4
    2775    2760    2772    2793       4    2772    2787    2766    2790       4
    2769    2757    2766    2787       4    2769    2757    2766    2790       4
    2766    2787    2772    2793       4    2763    2778    2796    2811       2
    2763    2778    2796    2814       2    2760    2739    2757    2769       4
    2760    2772    2787    2805       4    2757    2739    2760    2775       4
    2757    2766    2787    2805       4    2751    2733    2745    2763       4
    2748    2727    2745    2763       4    2745    2763    2778    2799       5
    2745    2763    2778    2802       5    2742    2724    2736    2754       4
    2739    2718    2736    2754       4    2739    2757    2766    2790       4
    2739    2760    2772    2793       4    2733    2745    2727    2748       4
    2733    2745    2763    2781       8    2733    2745    2763    2784       8
    2730    2709    2727    2745       4    2730    2709    2727    2748       4
    2727    2745    2733    2751       4    2727    2745    2763    2781       8
    2727    2745    2763    2784       8    2721    2703    2718    2736       4
    2721    2703    2718    2739       4    2718    2736    2724    2742       4
    2718    2739    2757    2769       4    2718    2739    2760    2775       4
    2715    2712    2733    2751       4    2712    2697    2709    2730       4
    2706    2694    2703    2721       4    2706    2724    2736    2754       4
    2703    2718    2736    2754       4    2700    2706    2724    2742       4
    2697    2709    2727    2748       4    2697    2712    2733    2751       4
    2694    2706    2724    2742       4    2691    2697    2709    2730       4
    2688    2694    2703    2721       4    3060    3045    3057    3063       1
    3060    3045    3057    3066       1    3060    3045    3057    3069       1
    3054    3045    3057    3063       1    3054    3045    3057    3066       1
    3054    3045    3057    3069       1    3051    3042    3045    3054       1
    3051    3042    3045    3057       2    3051    3042    3045    3060       1
    3048    3042    3045    3054       1    3048    3042    3045    3057       2
    3048    3042    3045    3060       1    3042    3045    3057    3063       2
    3042    3045    3057    3066       2    3042    3045    3057    3069       2
    3039    3027    3042    3045       2    3039    3027    3042    3048       1
    3039    3027    3042    3051       1    3036    3027    3042    3045       2
    3036    3027    3042    3048       1    3036    3027    3042    3051       1
    3033    3018    3027    3036       1    3033    3018    3027    3039       1
    3033    3018    3027    3042       2    3030    3018    3027    3036       1
    3030    3018    3027    3039       1    3030    3018    3027    3042       2
    3027    3042    3045    3054       2    3027    3042    3045    3060       2
    3024    3009    3018    3027       2    3024    3009    3018    3030       1
    3024    3009    3018    3033       1    3021    3009    3018    3027       2
    3021    3009    3018    3030       1    3021    3009    3018    3033       1
    3018    3027    3042    3048       2    3018    3027    3042    3051       2
    3015    3000    3009    3018       2    3015    3000    3009    3021       1
    3015    3000    3009    3024       1    3012    3000    3009    3018       2
    3012    3000    3009    3021       1    3012    3000    3009    3024       1
    3009    3018    3027    3036       2    3009    3018    3027    3039       2
    3006    2988    3000    3009       2    3006    2988    3000    3012       1
    3006    2988    3000    3015       1    3003    2988    3000    3009       2
    3003    2988    3000    3012       1    3003    2988    3000    3015       1
    3000    3009    3018    3030       2    3000    3009    3018    3033       2
    2994    2970    2988    3000       2    2994    2970    2988    3003       1
    2994    2970    2988    3006       1    2991    2970    2988    3000       2
    2991    2970    2988    3003       1    2991    2970    2988    3006       1
    2988    3000    3009    3021       2    2988    3000    3009    3024       2
    2985    2964    2979    2997       4    2982    2958    2979    2997       4
    2976    2955    2970    2988       2    2976    2955    2970    2991       1
    2976    2955    2970    2994       1    2973    2955    2970    2988       2
    2973    2955    2970    2991       1    2973    2955    2970    2994       1
    2970    2988    3000    3012       2    2970    2988    3000    3015       2
    2967    2952    2964    2979       4    2967    2952    2964    2985       4
    2964    2979    2958    2982       4    2961    2949    2958    2979       4
    2961    2949    2958    2982       4    2958    2979    2964    2985       4
    2955    2970    2988    3003       2    2955    2970    2988    3006       2
    2952    2931    2949    2961       4    2952    2964    2979    2997       4
    2949    2931    2952    2967       4    2949    2958    2979    2997       4
    2943    2925    2937    2955       4    2940    2919    2937    2955       4
    2937    2955    2970    2991       5    2937    2955    2970    2994       5
    2934    2916    2928    2946       4    2931    2910    2928    2946       4
    2931    2949    2958    2982       4    2931    2952    2964    2985       4
    2925    2937    2919    2940       4    2925    2937    2955    2973       8
    2925    2937    2955    2976       8    2922    2901    2919    2937       4
    2922    2901    2919    2940       4    2919    2937    2925    2943       4
    2919    2937    2955    2973       8    2919    2937    2955    2976       8
    2913    2895    2910    2928       4    2913    2895    2910    2931       4
    2910    2928    2916    2934       4    2910    2931    2949    2961       4
    2910    2931    2952    2967       4    2907    2904    2925    2943       4
    2904    2889    2901    2922       4    2898    2886    2895    2913       4
    2898    2916    2928    2946       4    2895    2910    2928    2946       4
    2892    2898    2916    2934       4    2889    2901    2919    2940       4
    2889    2904    2925    2943       4    2886    2898    2916    2934       4
    2883    2889    2901    2922       4    2880    2886    2895    2913       4
    3252    3237    3249    3255       1    3252    3237    3249    3258       1
    3252    3237    3249    3261       1    3246    3237    3249    3255       1
    3246    3237    3249    3258       1    3246    3237    3249    3261       1
    3243    3234    3237    3246       1    3243    3234    3237    3249       2
    3243    3234    3237    3252       1    3240    3234    3237    3246       1
    3240    3234    3237    3249       2    3240    3234    3237    3252       1
    3234    3237    3249    3255       2    3234    3237    3249    3258       2
    3234    3237    3249    3261       2    3231    3219    3234    3237       2
    3231    3219    3234    3240       1    3231    3219    3234    3243       1
    3228    3219    3234    3237       2    3228    3219    3234    3240       1
    3228    3219    3234    3243       1    3225    3210    3219    3228       1
    3225    3210    3219    3231       1    3225    3210    3219    3234       2
    3222    3210    3219    3228       1    3222    3210    3219    3231       1
    3222    3210    3219    3234       2    3219    3234    3237    3246       2
    3219    3234    3237    3252       2    3216    3201    3210    3219       2
    3216    3201    3210    3222       1    3216    3201    3210    3225       1
    3213    3201    3210    3219       2    3213    3201    3210    3222       1
    3213    3201    3210    3225       1    3210    3219    3234    3240       2
    3210    3219    3234    3243       2    3207    3192    3201    3210       2
    3207    3192    3201    3213       1    3207    3192    3201    3216       1
    3204    3192    3201    3210       2    3204    3192    3201    3213       1
    3204    3192    3201    3216       1    3201    3210    3219    3228       2
    3201    3210    3219    3231       2    3198    3180    3192    3201       2
    3198    3180    3192    3204       1    3198    3180    3192    3207       1
    3195    3180    3192    3201       2    3195    3180    3192    3204       1
    3195    3180    3192    3207       1    3192    3201    3210    3222       2
    3192    3201    3210    3225       2    3186    3162    3180    3192       2
    3186    3162    3180    3195       1    3186    3162    3180    3198       1
    3183    3162    3180    3192       2    3183    3162    3180    3195       1
    3183    3162    3180    3198       1    3180    3192    3201    3213       2
    3180    3192    3201    3216       2    3177    3156    3171    3189       4
    3174    3150    3171    3189       4    3168    3147    3162    3180       2
    3168    3147    3162    3183       1    3168    3147    3162    3186       1
    3165    3147    3162    3180       2    3165    3147    3162    3183       1
    3165    3147    3162    3186       1    3162    3180    3192    3204       2
    3162    3180    3192    3207       2    3159    3144    3156    3171       4
    3159    3144    3156    3177       4    3156    3171    3150    3174       4
    3153    3141    3150    3171       4    3153    3141    3150    3174       4
    3150    3171    3156    3177       4    3147    3162    3180    3195       2
    3147    3162    3180    3198       2    3144    3123    3141    3153       4
    3144    3156    3171    3189       4    3141    3123    3144    3159       4
    3141    3150    3171    3189       4    3135    3117    3129    3147       4
    3132    3111    3129    3147       4    3129    3147    3162    3183       5
    3129    3147    3162    3186       5    3126    3108    3120    3138       4
    3123    3102    3120    3138       4    3123    3141    3150    3174       4
    3123    3144    3156    3177       4    3117    3129    3111    3132       4
    3117    3129    3147    3165       8    3117    3129    3147    3168       8
    3114    3093    3111    3129       4    3114    3093    3111    3132       4
    3111    3129    3117    3135       4    3111    3129    3147    3165       8
    3111    3129    3147    3168       8    3105    3087    3102    3120       4
    3105    3087    3102    3123       4    3102    3120    3108    3126       4
    3102    3123    3141    3153       4    3102    3123    3144    3159       4
    3099    3096    3117    3135       4    3096    3081    3093    3114       4
    3090    3078    3087    3105       4    3090    3108    3120    3138       4
    3087    3102    3120    3138       4    3084    3090    3108    3126       4
    3081    3093    3111    3132       4    3081    3096    3117    3135       4
    3078    3090    3108    3126       4    3075    3081    3093    3114       4
    3072    3078    3087    3105       4    3444    3429    3441    3447       1
    3444    3429    3441    3450       1    3444    3429    3441    3453       1
    3438    3429    3441    3447       1    3438    3429    3441    3450       1
    3438    3429    3441    3453       1    3435    3426    3429    3438       1
    3435    3426    3429    3441       2    3435    3426    3429    3444       1
    3432    3426    3429    3438       1    3432    3426    3429    3441       2
    3432    3426    3429    3444       1    3426    3429    3441    3447       2
    3426    3429    3441    3450       2    3426    3429    3441    3453       2
    3423    3411    3426    3429       2    3423    3411    3426    3432       1
    3423    3411    3426    3435       1    3420    3411    3426    3429       2
    3420    3411    3426    3432       1    3420    3411    3426    3435       1
    3417    3402    3411    3420       1    3417    3402    3411    3423       1
    3417    3402    3411    3426       2    3414    3402    3411    3420       1
    3414    3402    3411    3423       1    3414    3402    3411    3426       2
    3411    3426    3429    3438       2    3411    3426    3429    3444       2
    3408    3393    3402    3411       2    3408    3393    3402    3414       1
    3408    3393    3402    3417       1    3405    3393    3402    3411       2
    3405    3393    3402    3414       1    3405    3393    3402    3417       1
    3402    3411    3426    3432       2    3402    3411    3426    3435       2
    3399    3384    3393    3402       2    3399    3384    3393    3405       1
    3399    3384    3393    3408       1    3396    3384    3393    3402       2
    3396    3384    3393    3405       1    3396    3384    3393    3408       1
    3393    3402    3411    3420       2    3393    3402    3411    3423       2
    3390    3372    3384    3393       2    3390    3372    3384    3396       1
    3390    3372    3384    3399       1    3387    3372    3384    3393       2
    3387    3372    3384    3396       1    3387    3372    3384    3399       1
    3384    3393    3402    3414       2    3384    3393    3402    3417       2
    3378    3354    3372    3384       2    3378    3354    3372    3387       1
    3378    3354    3372    3390       1    3375    3354    3372    3384       2
    3375    3354    3372    3387       1    3375    3354    3372    3390       1
    3372    3384    3393    3405       2    3372    3384    3393    3408       2
    3369    3348    3363    3381       4    3366    3342    3363    3381       4
    3360    3339    3354    3372       2    3360    3339    3354    3375       1
    3360    3339    3354    3378       1    3357    3339    3354    3372       2
    3357    3339    3354    3375       1    3357    3339    3354    3378       1
    3354    3372    3384    3396       2    3354    3372    3384    3399       2
    3351    3336    3348    3363       4    3351    3336    3348    3369       4
    3348    3363    3342    3366       4    3345    3333    3342    3363       4
    3345    3333    3342    3366       4    3342    3363    3348    3369       4
    3339    3354    3372    3387       2    3339    3354    3372    3390       2
    3336    3315    3333    3345       4    3336    3348    3363    3381       4
    3333    3315    3336    3351       4    3333    3342    3363    3381       4
    3327    3309    3321    3339       4    3324    3303    3321    3339       4
    3321    3339    3354    3375       5    3321    3339    3354    3378       5
    3318    3300    3312    3330       4    3315    3294    3312    3330       4
    3315    3333    3342    3366       4    3315    3336    3348    3369       4
    3309    3321    3303    3324       4    3309    3321    3339    3357       8
    3309    3321    3339    3360       8    3306    3285    3303    3321       4
    3306    3285    3303    3324       4    3303    3321    3309    3327       4
    3303    3321    3339    3357       8    3303    3321    3339    3360       8
    3297    3279    3294    3312       4    3297    3279    3294    3315       4
    3294    3312    3300    3318       4    3294    3315    3333    3345       4
    3294    3315    3336    3351       4    3291    3288    3309    3327       4
    3288    3273    3285    3306       4    3282    3270    3279    3297       4
    3282    3300    3312    3330       4    3279    3294    3312    3330       4
    3276    3282    3300    3318       4    3273    3285    3303    3324       4
    3273    3288    3309    3327       4    3270    3282    3300    3318       4
    3267    3273    3285    3306       4    3264    3270    3279    3297       4
    3636    3621    3633    3639       1    3636    3621    3633    3642       1
    3636    3621    3633    3645       1    3630    3621    3633    3639       1
    3630    3621    3633    3642       1    3630    3621    3633    3645       1
    3627    3618    3621    3630       1    3627    3618    3621    3633       2
    3627    3618    3621    3636       1    3624    3618    3621    3630       1
    3624    3618    3621    3633       2    3624    3618    3621    3636       1
    3618    3621    3633    3639       2    3618    3621    3633    3642       2
    3618    3621    3633    3645       2    3615    3603    3618    3621       2
    3615    3603    3618    3624       1    3615    3603    3618    3627       1
    3612    3603    3618    3621       2    3612    3603    3618    3624       1
    3612    3603    3618    3627       1    3609    3594    3603    3612       1
    3609    3594    3603    3615       1    3609    3594    3603    3618       2
    3606    3594    3603    3612       1    3606    3594    3603    3615       1
    3606    3594    3603    3618       2    3603    3618    3621    3630       2
    3603    3618    3621    3636       2    3600    3585    3594    3603       2
    3600    3585    3594    3606       1    3600    3585    3594    3609       1
    3597    3585    3594    3603       2    3597    3585    3594    3606       1
    3597    3585    3594    3609       1    3594    3603    3618    3624       2
    3594    3603    3618    3627       2    3591    3576    3585    3594       2
    3591    3576    3585    3597       1    3591    3576    3585    3600       1
    3588    3576    3585    3594       2    3588    3576    3585    3597       1
    3588    3576    3585    3600       1    3585    3594    3603    3612       2
    3585    3594    3603    3615       2    3582    3564    3576    3585       2
    3582    3564    3576    3588       1    3582    3564    3576    3591       1
    3579    3564    3576    3585       2    3579    3564    3576    3588       1
    3579    3564    3576    3591       1    3576    3585    3594    3606       2
    3576    3585    3594    3609       2    3570    3546    3564    3576       2
    3570    3546    3564    3579       1    3570    3546    3564    3582       1
    3567    3546    3564    3576       2    3567    3546    3564    3579       1
    3567    3546    3564    3582       1    3564    3576    3585    3597       2
    3564    3576    3585    3600       2    3561    3540    3555    3573       4
    3558    3534    3555    3573       4    3552    3531    3546    3564       2
    3552    3531    3546    3567       1    3552    3531    3546    3570       1
    3549    3531    3546    3564       2    3549    3531    3546    3567       1
    3549    3531    3546    3570       1    3546    3564    3576    3588       2
    3546    3564    3576    3591       2    3543    3528    3540    3555       4
    3543    3528    3540    3561       4    3540    3555    3534    3558       4
    3537    3525    3534    3555       4    3537    3525    3534    3558       4
    3534    3555    3540    3561       4    3531    3546    3564    3579       2
    3531    3546    3564    3582       2    3528    3507    3525    3537       4
    3528    3540    3555    3573       4    3525    3507    3528    3543       4
    3525    3534    3555    3573       4    3519    3501    3513    3531       4
    3516    3495    3513    3531       4    3513    3531    3546    3567       5
    3513    3531    3546    3570       5    3510    3492    3504    3522       4
    3507    3486    3504    3522       4    3507    3525    3534    3558       4
    3507    3528    3540    3561       4    3501    3513    3495    3516       4
    3501    3513    3531    3549       8    3501    3513    3531    3552       8
    3498    3477    3495    3513       4    3498    3477    3495    3516       4
    3495    3513    3501    3519       4    3495    3513    3531    3549       8
    3495    3513    3531    3552       8    3489    3471    3486    3504       4
    3489    3471    3486    3507       4    3486    3504    3492    3510       4
    3486    3507    3525    3537       4    3486    3507    3528    3543       4
    3483    3480    3501    3519       4    3480    3465    3477    3498       4
    3474    3462    3471    3489       4    3474    3492    3504    3522       4
    3471    3486    3504    3522       4    3468    3474    3492    3510       4
    3465    3477    3495    3516       4    3465    3480    3501    3519       4
    3462    3474    3492    3510       4    3459    3465    3477    3498       4
    3456    3462    3471    3489       4    3828    3813    3825    3831       1
    3828    3813    3825    3834       1    3828    3813    3825    3837       1
    3822    3813    3825    3831       1    3822    3813    3825    3834       1
    3822    3813    3825    3837       1    3819    3810    3813    3822       1
    3819    3810    3813    3825       2    3819    3810    3813    3828       1
    3816    3810    3813    3822       1    3816    3810    3813    3825       2
    3816    3810    3813    3828       1    3810    3813    3825    3831       2
    3810    3813    3825    3834       2    3810    3813    3825    3837       2
    3807    3795    3810    3813       2    3807    3795    3810    3816       1
    3807    3795    3810    3819       1    3804    3795    3810    3813       2
    3804    3795    3810    3816       1    3804    3795    3810    3819       1
    3801    3786    3795    3804       1    3801    3786    3795    3807       1
    3801    3786    3795    3810       2    3798    3786    3795    3804       1
    3798    3786    3795    3807       1    3798    3786    3795    3810       2
    3795    3810    3813    3822       2    3795    3810    3813    3828       2
    3792    3777    3786    3795       2    3792    3777    3786    3798       1
    3792    3777    3786    3801       1    3789    3777    3786    3795       2
    3789    3777    3786    3798       1    3789    3777    3786    3801       1
    3786    3795    3810    3816       2    3786    3795    3810    3819       2
    3783    3768    3777    3786       2    3783    3768    3777    3789       1
    3783    3768    3777    3792       1    3780    3768    3777    3786       2
    3780    3768    3777    3789       1    3780    3768    3777    3792       1
    3777    3786    3795    3804       2    3777    3786    3795    3807       2
    3774    3756    3768    3777       2    3774    3756    3768    3780       1
    3774    3756    3768    3783       1    3771    3756    3768    3777       2
    3771    3756    3768    3780       1    3771    3756    3768    3783       1
    3768    3777    3786    3798       2    3768    3777    3786    3801       2
    3762    3738    3756    3768       2    3762    3738    3756    3771       1
    3762    3738    3756    3774       1    3759    3738    3756    3768       2
    3759    3738    3756    3771       1    3759    3738    3756    3774       1
    3756    3768    3777    3789       2    3756    3768    3777    3792       2
    3753    3732    3747    3765       4    3750    3726    3747    3765       4
    3744    3723    3738    3756       2    3744    3723    3738    3759       1
    3744    3723    3738    3762       1    3741    3723    3738    3756       2
    3741    3723    3738    3759       1    3741    3723    3738    3762       1
    3738    3756    3768    3780       2    3738    3756    3768    3783       2
    3735    3720    3732    3747       4    3735    3720    3732    3753       4
    3732    3747    3726    3750       4    3729    3717    3726    3747       4
    3729    3717    3726    3750       4    3726    3747    3732    3753       4
    3723    3738    3756    3771       2    3723    3738    3756    3774       2
    3720    3699    3717    3729       4    3720    3732    3747    3765       4
    3717    3699    3720    3735       4    3717    3726    3747    3765       4
    3711    3693    3705    3723       4    3708    3687    3705    3723       4
    3705    3723    3738    3759       5    3705    3723    3738    3762       5
    3702    3684    3696    3714       4    3699    3678    3696    3714       4
    3699    3717    3726    3750       4    3699    3720    3732    3753       4
    3693    3705    3687    3708       4    3693    3705    3723    3741       8
    3693    3705    3723    3744       8    3690    3669    3687    3705       4
    3690    3669    3687    3708       4    3687    3705    3693    3711       4
    3687    3705    3723    3741       8    3687    3705    3723    3744       8
    3681    3663    3678    3696       4    3681    3663    3678    3699       4
    3678    3696    3684    3702       4    3678    3699    3717    3729       4
    3678    3699    3720    3735       4    3675    3672    3693    3711       4
    3672    3657    3669    3690       4    3666    3654    3663    3681       4
    3666    3684    3696    3714       4    3663    3678    3696    3714       4
    3660    3666    3684    3702       4    3657    3669    3687    3708       4
    3657    3672    3693    3711       4    3654    3666    3684    3702       4
    3651    3657    3669    3690       4    3648    3654    3663    3681       4
    4020    4005    4017    4023       1    4020    4005    4017    4026       1
    4020    4005    4017    4029       1    4014    4005    4017    4023       1
    4014    4005    4017    4026       1    4014    4005    4017    4029       1
    4011    4002    4005    4014       1    4011    4002    4005    4017       2
    4011    4002    4005    4020       1    4008    4002    4005    4014       1
    4008    4002    4005    4017       2    4008    4002    4005    4020       1
    4002    4005    4017    4023       2    4002    4005    4017    4026       2
    4002    4005    4017    4029       2    3999    3987    4002    4005       2
    3999    3987    4002    4008       1    3999    3987    4002    4011       1
    3996    3987    4002    4005       2    3996    3987    4002    4008       1
    3996    3987    4002    4011       1    3993    3978    3987    3996       1
    3993    3978    3987    3999       1    3993    3978    3987    4002       2
    3990    3978    3987    3996       1    3990    3978    3987    3999       1
    3990    3978    3987    4002       2    3987    4002    4005    4014       2
    3987    4002    4005    4020       2    3984    3969    3978    3987       2
    3984    3969    3978    3990       1    3984    3969    3978    3993       1
    3981    3969    3978    3987       2    3981    3969    3978    3990       1
    3981    3969    3978    3993       1    3978    3987    4002    4008       2
    3978    3987    4002    4011       2    3975    3960    3969    3978       2
    3975    3960    3969    3981       1    3975    3960    3969    3984       1
    3972    3960    3969    3978       2    3972    3960    3969    3981       1
    3972    3960    3969    3984       1    3969    3978    3987    3996       2
    3969    3978    3987    3999       2    3966    3948    3960    3969       2
    3966    3948    3960    3972       1    3966    3948    3960    3975       1
    3963    3948    3960    3969       2    3963    3948    3960    3972       1
    3963    3948    3960    3975       1    3960    3969    3978    3990       2
    3960    3969    3978    3993       2    3954    3930    3948    3960       2
    3954    3930    3948    3963       1    3954    3930    3948    3966       1
    3951    3930    3948    3960       2    3951    3930    3948    3963       1
    3951    3930    3948    3966       1    3948    3960    3969    3981       2
    3948    3960    3969    3984       2    3945    3924    3939    3957       4
    3942    3918    3939    3957       4    3936    3915    3930    3948       2
    3936    3915    3930    3951       1    3936    3915    3930    3954       1
    3933    3915    3930    3948       2    3933    3915    3930    3951       1
    3933    3915    3930    3954       1    3930    3948    3960    3972       2
    3930    3948    3960    3975       2    3927    3912    3924    3939       4
    3927    3912    3924    3945       4    3924    3939    3918    3942       4
    3921    3909    3918    3939       4    3921    3909    3918    3942       4
    3918    3939    3924    3945       4    3915    3930    3948    3963       2
    3915    3930    3948    3966       2    3912    3891    3909    3921       4
    3912    3924    3939    3957       4    3909    3891    3912    3927       4
    3909    3918    3939    3957       4    3903    3885    3897    3915       4
    3900    3879    3897    3915       4    3897    3915    3930    3951       5
    3897    3915    3930    3954       5    3894    3876    3888    3906       4
    3891    3870    3888    3906       4    3891    3909    3918    3942       4
    3891    3912    3924    3945       4    3885    3897    3879    3900       4
    3885    3897    3915    3933       8    3885    3897    3915    3936       8
    3882    3861    3879    3897       4    3882    3861    3879    3900       4
    3879    3897    3885    3903       4    3879    3897    3915    3933       8
    3879    3897    3915    3936       8    3873    3855    3870    3888       4
    3873    3855    3870    3891       4    3870    3888    3876    3894       4
    3870    3891    3909    3921       4    3870    3891    3912    3927       4
    3867    3864    3885    3903       4    3864    3849    3861    3882       4
    3858    3846    3855    3873       4    3858    3876    3888    3906       4
    3855    3870    3888    3906       4    3852    3858    3876    3894       4
    3849    3861    3879    3900       4    3849    3864    3885    3903       4
    3846    3858    3876    3894       4    3843    3849    3861    3882       4
    3840    3846    3855    3873       4    4212    4197    4209    4215       1
    4212    4197    4209    4218       1    4212    4197    4209    4221       1
    4206    4197    4209    4215       1    4206    4197    4209    4218       1
    4206    4197    4209    4221       1    4203    4194    4197    4206       1
    4203    4194    4197    4209       2    4203    4194    4197    4212       1
    4200    4194    4197    4206       1    4200    4194    4197    4209       2
    4200    4194    4197    4212       1    4194    4197    4209    4215       2
    4194    4197    4209    4218       2    4194    4197    4209    4221       2
    4191    4179    4194    4197       2    4191    4179    4194    4200       1
    4191    4179    4194    4203       1    4188    4179    4194    4197       2
    4188    4179    4194    4200       1    4188    4179    4194    4203       1
    4185    4170    4179    4188       1    4185    4170    4179    4191       1
    4185    4170    4179    4194       2    4182    4170    4179    4188       1
    4182    4170    4179    4191       1    4182    4170    4179    4194       2
    4179    4194    4197    4206       2    4179    4194    4197    4212       2
    4176    4161    4170    4179       2    4176    4161    4170    4182       1
    4176    4161    4170    4185       1    4173    4161    4170    4179       2
    4173    4161    4170    4182       1    4173    4161    4170    4185       1
    4170    4179    4194    4200       2    4170    4179    4194    4203       2
    4167    4152    4161    4170       2    4167    4152    4161    4173       1
    4167    4152    4161    4176       1    4164    4152    4161    4170       2
    4164    4152    4161    4173       1    4164    4152    4161    4176       1
    4161    4170    4179    4188       2    4161    4170    4179    4191       2
    4158    4140    4152    4161       2    4158    4140    4152    4164       1
    4158    4140    4152    4167       1    4155    4140    4152    4161       2
    4155    4140    4152    4164       1    4155    4140    4152    4167       1
    4152    4161    4170    4182       2    4152    4161    4170    4185       2
    4146    4122    4140    4152       2    4146    4122    4140    4155       1
    4146    4122    4140    4158       1    4143    4122    4140    4152       2
    4143    4122    4140    4155       1    4143    4122    4140    4158       1
    4140    4152    4161    4173       2    4140    4152    4161    4176       2
    4137    4116    4131    4149       4    4134    4110    4131    4149       4
    4128    4107    4122    4140       2    4128    4107    4122    4143       1
    4128    4107    4122    4146       1    4125    4107    4122    4140       2
    4125    4107    4122    4143       1    4125    4107    4122    4146       1
    4122    4140    4152    4164       2    4122    4140    4152    4167       2
    4119    4104    4116    4131       4    4119    4104    4116    4137       4
    4116    4131    4110    4134       4    4113    4101    4110    4131       4
    4113    4101    4110    4134       4    4110    4131    4116    4137       4
    4107    4122    4140    4155       2    4107    4122    4140    4158       2
    4104    4083    4101    4113       4    4104    4116    4131    4149       4
    4101    4083    4104    4119       4    4101    4110    4131    4149       4
    4095    4077    4089    4107       4    4092    4071    4089    4107       4
    4089    4107    4122    4143       5    4089    4107    4122    4146       5
    4086    4068    4080    4098       4    4083    4062    4080    4098       4
    4083    4101    4110    4134       4    4083    4104    4116    4137       4
    4077    4089    4071    4092       4    4077    4089    4107    4125       8
    4077    4089    4107    4128       8    4074    4053    4071    4089       4
    4074    4053    4071    4092       4    4071    4089    4077    4095       4
    4071    4089    4107    4125       8    4071    4089    4107    4128       8
    4065    4047    4062    4080       4    4065    4047    4062    4083       4
    4062    4080    4068    4086       4    4062    4083    4101    4113       4
    4062    4083    4104    4119       4    4059    4056    4077    4095       4
    4056    4041    4053    4074       4    4050    4038    4047    4065       4
    4050    4068    4080    4098       4    4047    4062    4080    4098       4
    4044    4050    4068    4086       4    4041    4053    4071    4092       4
    4041    4056    4077    4095       4    4038    4050    4068    4086       4
    4035    4041    4053    4074       4    4032    4038    4047    4065       4
    4404    4389    4401    4407       1    4404    4389    4401    4410       1
    4404    4389    4401    4413       1    4398    4389    4401    4407       1
    4398    4389    4401    4410       1    4398    4389    4401    4413       1
    4395    4386    4389    4398       1    4395    4386    4389    4401       2
    4395    4386    4389    4404       1    4392    4386    4389    4398       1
    4392    4386    4389    4401       2    4392    4386    4389    4404       1
    4386    4389    4401    4407       2    4386    4389    4401    4410       2
    4386    4389    4401    4413       2    4383    4371    4386    4389       2
    4383    4371    4386    4392       1    4383    4371    4386    4395       1
    4380    4371    4386    4389       2    4380    4371    4386    4392       1
    4380    4371    4386    4395       1    4377    4362    4371    4380       1
    4377    4362    4371    4383       1    4377    4362    4371    4386       2
    4374    4362    4371    4380       1    4374    4362    4371    4383       1
    4374    4362    4371    4386       2    4371    4386    4389    4398       2
    4371    4386    4389    4404       2    4368    4353    4362    4371       2
    4368    4353    4362    4374       1    4368    4353    4362    4377       1
    4365    4353    4362    4371       2    4365    4353    4362    4374       1
    4365    4353    4362    4377       1    4362    4371    4386    4392       2
    4362    4371    4386    4395       2    4359    4344    4353    4362       2
    4359    4344    4353    4365       1    4359    4344    4353    4368       1
    4356    4344    4353    4362       2    4356    4344    4353    4365       1
    4356    4344    4353    4368       1    4353    4362    4371    4380       2
    4353    4362    4371    4383       2    4350    4332    4344    4353       2
    4350    4332    4344    4356       1    4350    4332    4344    4359       1
    4347    4332    4344    4353       2    4347    4332    4344    4356       1
    4347    4332    4344    4359       1    4344    4353    4362    4374       2
    4344    4353    4362    4377       2    4338    4314    4332    4344       2
    4338    4314    4332    4347       1    4338    4314    4332    4350       1
    4335    4314    4332    4344       2    4335    4314    4332    4347       1
    4335    4314    4332    4350       1    4332    4344    4353    4365       2
    4332    4344    4353    4368       2    4329    4308    4323    4341       4
    4326    4302    4323    4341       4    4320    4299    4314    4332       2
    4320    4299    4314    4335       1    4320    4299    4314    4338       1
    4317    4299    4314    4332       2    4317    4299    4314    4335       1
    4317    4299    4314    4338       1    4314    4332    4344    4356       2
    4314    4332    4344    4359       2    4311    4296    4308    4323       4
    4311    4296    4308    4329       4    4308    4323    4302    4326       4
    4305    4293    4302    4323       4    4305    4293    4302    4326       4
    4302    4323    4308    4329       4    4299    4314    4332    4347       2
    4299    4314    4332    4350       2    4296    4275    4293    4305       4
    4296    4308    4323    4341       4    4293    4275    4296    4311       4
    4293    4302    4323    4341       4    4287    4269    4281    4299       4
    4284    4263    4281    4299       4    4281    4299    4314    4335       5
    4281    4299    4314    4338       5    4278    4260    4272    4290       4
    4275    4254    4272    4290       4    4275    4293    4302    4326       4
    4275    4296    4308    4329       4    4269    4281    4263    4284       4
    4269    4281    4299    4317       8    4269    4281    4299    4320       8
    4266    4245    4263    4281       4    4266    4245    4263    4284       4
    4263    4281    4269    4287       4    4263    4281    4299    4317       8
    4263    4281    4299    4320       8    4257    4239    4254    4272       4
    4257    4239    4254    4275       4    4254    4272    4260    4278       4
    4254    4275    4293    4305       4    4254    4275    4296    4311       4
    4251    4248    4269    4287       4    4248    4233    4245    4266       4
    4242    4230    4239    4257       4    4242    4260    4272    4290       4
    4239    4254    4272    4290       4    4236    4242    4260    4278       4
    4233    4245    4263    4284       4    4233    4248    4269    4287       4
    4230    4242    4260    4278       4    4227    4233    4245    4266       4
    4224    4230    4239    4257       4    4596    4581    4593    4599       1
    4596    4581    4593    4602       1    4596    4581    4593    4605       1
    4590    4581    4593    4599       1    4590    4581    4593    4602       1
    4590    4581    4593    4605       1    4587    4578    4581    4590       1
    4587    4578    4581    4593       2    4587    4578    4581    4596       1
    4584    4578    4581    4590       1    4584    4578    4581    4593       2
    4584    4578    4581    4596       1    4578    4581    4593    4599       2
    4578    4581    4593    4602       2    4578    4581    4593    4605       2
    4575    4563    4578    4581       2    4575    4563    4578    4584       1
    4575    4563    4578    4587       1    4572    4563    4578    4581       2
    4572    4563    4578    4584       1    4572    4563    4578    4587       1
    4569    4554    4563    4572       1    4569    4554    4563    4575       1
    4569    4554    4563    4578       2    4566    4554    4563    4572       1
    4566    4554    4563    4575       1    4566    4554    4563    4578       2
    4563    4578    4581    4590       2    4563    4578    4581    4596       2
    4560    4545    4554    4563       2    4560    4545    4554    4566       1
    4560    4545    4554    4569       1    4557    4545    4554    4563       2
    4557    4545    4554    4566       1    4557    4545    4554    4569       1
    4554    4563    4578    4584       2    4554    4563    4578    4587       2
    4551    4536    4545    4554       2    4551    4536    4545    4557       1
    4551    4536    4545    4560       1    4548    4536    4545    4554       2
    4548    4536    4545    4557       1    4548    4536    4545    4560       1
    4545    4554    4563    4572       2    4545    4554    4563    4575       2
    4542    4524    4536    4545       2    4542    4524    4536    4548       1
    4542    4524    4536    4551       1    4539    4524    4536    4545       2
    4539    4524    4536    4548       1    4539    4524    4536    4551       1
    4536    4545    4554    4566       2    4536    4545    4554    4569       2
    4530    4506    4524    4536       2    4530    4506    4524    4539       1
    4530    4506    4524    4542       1    4527    4506    4524    4536       2
    4527    4506    4524    4539       1    4527    4506    4524    4542       1
    4524    4536    4545    4557       2    4524    4536    4545    4560       2
    4521    4500    4515    4533       4    4518    4494    4515    4533       4
    4512    4491    4506    4524       2    4512    4491    4506    4527       1
    4512    4491    4506    4530       1    4509    4491    4506    4524       2
    4509    4491    4506    4527       1    4509    4491    4506    4530       1
    4506    4524    4536    4548       2    4506    4524    4536    4551       2
    4503    4488    4500    4515       4    4503    4488    4500    4521       4
    4500    4515    4494    4518       4    4497    4485    4494    4515       4
    4497    4485    4494    4518       4    4494    4515    4500    4521       4
    4491    4506    4524    4539       2    4491    4506    4524    4542       2
    4488    4467    4485    4497       4    4488    4500    4515    4533       4
    4485    4467    4488    4503       4    4485    4494    4515    4533       4
    4479    4461    4473    4491       4    4476    4455    4473    4491       4
    4473    4491    4506    4527       5    4473    4491    4506    4530       5
    4470    4452    4464    4482       4    4467    4446    4464    4482       4
    4467    4485    4494    4518       4    4467    4488    4500    4521       4
    4461    4473    4455    4476       4    4461    4473    4491    4509       8
    4461    4473    4491    4512       8    4458    4437    4455    4473       4
    4458    4437    4455    4476       4    4455    4473    4461    4479       4
    4455    4473    4491    4509       8    4455    4473    4491    4512       8
    4449    4431    4446    4464       4    4449    4431    4446    4467       4
    4446    4464    4452    4470       4    4446    4467    4485    4497       4
    4446    4467    4488    4503       4    4443    4440    4461    4479       4
    4440    4425    4437    4458       4    4434    4422    4431    4449       4
    4434    4452    4464    4482       4    4431    4446    4464    4482       4
    4428    4434    4452    4470       4    4425    4437    4455    4476       4
    4425    4440    4461    4479       4    4422    4434    4452    4470       4
    4419    4425    4437    4458       4    4416    4422    4431    4449       4
    4788    4773    4785    4791       1    4788    4773    4785    4794       1
    4788    4773    4785    4797       1    4782    4773    4785    4791       1
    4782    4773    4785    4794       1    4782    4773    4785    4797       1
    4779    4770    4773    4782       1    4779    4770    4773    4785       2
    4779    4770    4773    4788       1    4776    4770    4773    4782       1
    4776    4770    4773    4785       2    4776    4770    4773    4788       1
    4770    4773    4785    4791       2    4770    4773    4785    4794       2
    4770    4773    4785    4797       2    4767    4755    4770    4773       2
    4767    4755    4770    4776       1    4767    4755    4770    4779       1
    4764    4755    4770    4773       2    4764    4755    4770    4776       1
    4764    4755    4770    4779       1    4761    4746    4755    4764       1
    4761    4746    4755    4767       1    4761    4746    4755    4770       2
    4758    4746    4755    4764       1    4758    4746    4755    4767       1
    4758    4746    4755    4770       2    4755    4770    4773    4782       2
    4755    4770    4773    4788       2    4752    4737    4746    4755       2
    4752    4737    4746    4758       1    4752    4737    4746    4761       1
    4749    4737    4746    4755       2    4749    4737    4746    4758       1
    4749    4737    4746    4761       1    4746    4755    4770    4776       2
    4746    4755    4770    4779       2    4743    4728    4737    4746       2
    4743    4728    4737    4749       1    4743    4728    4737    4752       1
    4740    4728    4737    4746       2    4740    4728    4737    4749       1
    4740    4728    4737    4752       1    4737    4746    4755    4764       2
    4737    4746    4755    4767       2    4734    4716    4728    4737       2
    4734    4716    4728    4740       1    4734    4716    4728    4743       1
    4731    4716    4728    4737       2    4731    4716    4728    4740       1
    4731    4716    4728    4743       1    4728    4737    4746    4758       2
    4728    4737    4746    4761       2    4722    4698    4716    4728       2
    4722    4698    4716    4731       1    4722    4698    4716    4734       1
    4719    4698    4716    4728       2    4719    4698    4716    4731       1
    4719    4698    4716    4734       1    4716    4728    4737    4749       2
    4716    4728    4737    4752       2    4713    4692    4707    4725       4
    4710    4686    4707    4725       4    4704    4683    4698    4716       2
    4704    4683    4698    4719       1    4704    4683    4698    4722       1
    4701    4683    4698    4716       2    4701    4683    4698    4719       1
    4701    4683    4698    4722       1    4698    4716    4728    4740       2
    4698    4716    4728    4743       2    4695    4680    4692    4707       4
    4695    4680    4692    4713       4    4692    4707    4686    4710       4
    4689    4677    4686    4707       4    4689    4677    4686    4710       4
    4686    4707    4692    4713       4    4683    4698    4716    4731       2
    4683    4698    4716    4734       2    4680    4659    4677    4689       4
    4680    4692    4707    4725       4    4677    4659    4680    4695       4
    4677    4686    4707    4725       4    4671    4653    4665    4683       4
    4668    4647    4665    4683       4    4665    4683    4698    4719       5
    4665    4683    4698    4722       5    4662    4644    4656    4674       4
    4659    4638    4656    4674       4    4659    4677    4686    4710       4
    4659    4680    4692    4713       4    4653    4665    4647    4668       4
    4653    4665    4683    4701       8    4653    4665    4683    4704       8
    4650    4629    4647    4665       4    4650    4629    4647    4668       4
    4647    4665    4653    4671       4    4647    4665    4683    4701       8
    4647    4665    4683    4704       8    4641    4623    4638    4656       4
    4641    4623    4638    4659       4    4638    4656    4644    4662       4
    4638    4659    4677    4689       4    4638    4659    4680    4695       4
    4635    4632    4653    4671       4    4632    4617    4629    4650       4
    4626    4614    4623    4641       4    4626    4644    4656    4674       4
    4623    4638    4656    4674       4    4620    4626    4644    4662       4
    4617    4629    4647    4668       4    4617    4632    4653    4671       4
    4614    4626    4644    4662       4    4611    4617    4629    4650       4
    4608    4614    4623    4641       4    4980    4965    4977    4983       1
    4980    4965    4977    4986       1    4980    4965    4977    4989       1
    4974    4965    4977    4983       1    4974    4965    4977    4986       1
    4974    4965    4977    4989       1    4971    4962    4965    4974       1
    4971    4962    4965    4977       2    4971    4962    4965    4980       1
    4968    4962    4965    4974       1    4968    4962    4965    4977       2
    4968    4962    4965    4980       1    4962    4965    4977    4983       2
    4962    4965    4977    4986       2    4962    4965    4977    4989       2
    4959    4947    4962    4965       2    4959    4947    4962    4968       1
    4959    4947    4962    4971       1    4956    4947    4962    4965       2
    4956    4947    4962    4968       1    4956    4947    4962    4971       1
    4953    4938    4947    4956       1    4953    4938    4947    4959       1
    4953    4938    4947    4962       2    4950    4938    4947    4956       1
    4950    4938    4947    4959       1    4950    4938    4947    4962       2
    4947    4962    4965    4974       2    4947    4962    4965    4980       2
    4944    4929    4938    4947       2    4944    4929    4938    4950       1
    4944    4929    4938    4953       1    4941    4929    4938    4947       2
    4941    4929    4938    4950       1    4941    4929    4938    4953       1
    4938    4947    4962    4968       2    4938    4947    4962    4971       2
    4935    4920    4929    4938       2    4935    4920    4929    4941       1
    4935    4920    4929    4944       1    4932    4920    4929    4938       2
    4932    4920    4929    4941       1    4932    4920    4929    4944       1
    4929    4938    4947    4956       2    4929    4938    4947    4959       2
    4926    4908    4920    4929       2    4926    4908    4920    4932       1
    4926    4908    4920    4935       1    4923    4908    4920    4929       2
    4923    4908    4920    4932       1    4923    4908    4920    4935       1
    4920    4929    4938    4950       2    4920    4929    4938    4953       2
    4914    4890    4908    4920       2    4914    4890    4908    4923       1
    4914    4890    4908    4926       1    4911    4890    4908    4920       2
    4911    4890    4908    4923       1    4911    4890    4908    4926       1
    4908    4920    4929    4941       2    4908    4920    4929    4944       2
    4905    4884    4899    4917       4    4902    4878    4899    4917       4
    4896    4875    4890    4908       2    4896    4875    4890    4911       1
    4896    4875    4890    4914       1    4893    4875    4890    4908       2
    4893    4875    4890    4911       1    4893    4875    4890    4914       1
    4890    4908    4920    4932       2    4890    4908    4920    4935       2
    4887    4872    4884    4899       4    4887    4872    4884    4905       4
    4884    4899    4878    4902       4    4881    4869    4878    4899       4
    4881    4869    4878    4902       4    4878    4899    4884    4905       4
    4875    4890    4908    4923       2    4875    4890    4908    4926       2
    4872    4851    4869    4881       4    4872    4884    4899    4917       4
    4869    4851    4872    4887       4    4869    4878    4899    4917       4
    4863    4845    4857    4875       4    4860    4839    4857    4875       4
    4857    4875    4890    4911       5    4857    4875    4890    4914       5
    4854    4836    4848    4866       4    4851    4830    4848    4866       4
    4851    4869    4878    4902       4    4851    4872    4884    4905       4
    4845    4857    4839    4860       4    4845    4857    4875    4893       8
    4845    4857    4875    4896       8    4842    4821    4839    4857       4
    4842    4821    4839    4860       4    4839    4857    4845    4863       4
    4839    4857    4875    4893       8    4839    4857    4875    4896       8
    4833    4815    4830    4848       4    4833    4815    4830    4851       4
    4830    4848    4836    4854       4    4830    4851    4869    4881       4
    4830    4851    4872    4887       4    4827    4824    4845    4863       4
    4824    4809    4821    4842       4    4818    4806    4815    4833       4
    4818    4836    4848    4866       4    4815    4830    4848    4866       4
    4812    4818    4836    4854       4    4809    4821    4839    4860       4
    4809    4824    4845    4863       4    4806    4818    4836    4854       4
    4803    4809    4821    4842       4    4800    4806    4815    4833       4
    5172    5157    5169    5175       1    5172    5157    5169    5178       1
    5172    5157    5169    5181       1    5166    5157    5169    5175       1
    5166    5157    5169    5178       1    5166    5157    5169    5181       1
    5163    5154    5157    5166       1    5163    5154    5157    5169       2
    5163    5154    5157    5172       1    5160    5154    5157    5166       1
    5160    5154    5157    5169       2    5160    5154    5157    5172       1
    5154    5157    5169    5175       2    5154    5157    5169    5178       2
    5154    5157    5169    5181       2    5151    5139    5154    5157       2
    5151    5139    5154    5160       1    5151    5139    5154    5163       1
    5148    5139    5154    5157       2    5148    5139    5154    5160       1
    5148    5139    5154    5163       1    5145    5130    5139    5148       1
    5145    5130    5139    5151       1    5145    5130    5139    5154       2
    5142    5130    5139    5148       1    5142    5130    5139    5151       1
    5142    5130    5139    5154       2    5139    5154    5157    5166       2
    5139    5154    5157    5172       2    5136    5121    5130    5139       2
    5136    5121    5130    5142       1    5136    5121    5130    5145       1
    5133    5121    5130    5139       2    5133    5121    5130    5142       1
    5133    5121    5130    5145       1    5130    5139    5154    5160       2
    5130    5139    5154    5163       2    5127    5112    5121    5130       2
    5127    5112    5121    5133       1    5127    5112    5121    5136       1
    5124    5112    5121    5130       2    5124    5112    5121    5133       1
    5124    5112    5121    5136       1    5121    5130    5139    5148       2
    5121    5130    5139    5151       2    5118    5100    5112    5121       2
    5118    5100    5112    5124       1    5118    5100    5112    5127       1
    5115    5100    5112    5121       2    5115    5100    5112    5124       1
    5115    5100    5112    5127       1    5112    5121    5130    5142       2
    5112    5121    5130    5145       2    5106    5082    5100    5112       2
    5106    5082    5100    5115       1    5106    5082    5100    5118       1
    5103    5082    5100    5112       2    5103    5082    5100    5115       1
    5103    5082    5100    5118       1    5100    5112    5121    5133       2
    5100    5112    5121    5136       2    5097    5076    5091    5109       4
    5094    5070    5091    5109       4    5088    5067    5082    5100       2
    5088    5067    5082    5103       1    5088    5067    5082    5106       1
    5085    5067    5082    5100       2    5085    5067    5082    5103       1
    5085    5067    5082    5106       1    5082    5100    5112    5124       2
    5082    5100    5112    5127       2    5079    5064    5076    5091       4
    5079    5064    5076    5097       4    5076    5091    5070    5094       4
    5073    5061    5070    5091       4    5073    5061    5070    5094       4
    5070    5091    5076    5097       4    5067    5082    5100    5115       2
    5067    5082    5100    5118       2    5064    5043    5061    5073       4
    5064    5076    5091    5109       4    5061    5043    5064    5079       4
    5061    5070    5091    5109       4    5055    5037    5049    5067       4
    5052    5031    5049    5067       4    5049    5067    5082    5103       5
    5049    5067    5082    5106       5    5046    5028    5040    5058       4
    5043    5022    5040    5058       4    5043    5061    5070    5094       4
    5043    5064    5076    5097       4    5037    5049    5031    5052       4
    5037    5049    5067    5085       8    5037    5049    5067    5088       8
    5034    5013    5031    5049       4    5034    5013    5031    5052       4
    5031    5049    5037    5055       4    5031    5049    5067    5085       8
    5031    5049    5067    5088       8    5025    5007    5022    5040       4
    5025    5007    5022    5043       4    5022    5040    5028    5046       4
    5022    5043    5061    5073       4    5022    5043    5064    5079       4
    5019    5016    5037    5055       4    5016    5001    5013    5034       4
    5010    4998    5007    5025       4    5010    5028    5040    5058       4
    5007    5022    5040    5058       4    5004    5010    5028    5046       4
    5001    5013    5031    5052       4    5001    5016    5037    5055       4
    4998    5010    5028    5046       4    4995    5001    5013    5034       4
    4992    4998    5007    5025       4    5364    5349    5361    5367       1
    5364    5349    5361    5370       1    5364    5349    5361    5373       1
    5358    5349    5361    5367       1    5358    5349    5361    5370       1
    5358    5349    5361    5373       1    5355    5346    5349    5358       1
    5355    5346    5349    5361       2    5355    5346    5349    5364       1
    5352    5346    5349    5358       1    5352    5346    5349    5361       2
    5352    5346    5349    5364       1    5346    5349    5361    5367       2
    5346    5349    5361    5370       2    5346    5349    5361    5373       2
    5343    5331    5346    5349       2    5343    5331    5346    5352       1
    5343    5331    5346    5355       1    5340    5331    5346    5349       2
    5340    5331    5346    5352       1    5340    5331    5346    5355       1
    5337    5322    5331    5340       1    5337    5322    5331    5343       1
    5337    5322    5331    5346       2    5334    5322    5331    5340       1
    5334    5322    5331    5343       1    5334    5322    5331    5346       2
    5331    5346    5349    5358       2    5331    5346    5349    5364       2
    5328    5313    5322    5331       2    5328    5313    5322    5334       1
    5328    5313    5322    5337       1    5325    5313    5322    5331       2
    5325    5313    5322    5334       1    5325    5313    5322    5337       1
    5322    5331    5346    5352       2    5322    5331    5346    5355       2
    5319    5304    5313    5322       2    5319    5304    5313    5325       1
    5319    5304    5313    5328       1    5316    5304    5313    5322       2
    5316    5304    5313    5325       1    5316    5304    5313    5328       1
    5313    5322    5331    5340       2    5313    5322    5331    5343       2
    5310    5292    5304    5313       2    5310    5292    5304    5316       1
    5310    5292    5304    5319       1    5307    5292    5304    5313       2
    5307    5292    5304    5316       1    5307    5292    5304    5319       1
    5304    5313    5322    5334       2    5304    5313    5322    5337       2
    5298    5274    5292    5304       2    5298    5274    5292    5307       1
    5298    5274    5292    5310       1    5295    5274    5292    5304       2
    5295    5274    5292    5307       1    5295    5274    5292    5310       1
    5292    5304    5313    5325       2    5292    5304    5313    5328       2
    5289    5268    5283    5301       4    5286    5262    5283    5301       4
    5280    5259    5274    5292       2    5280    5259    5274    5295       1
    5280    5259    5274    5298       1    5277    5259    5274    5292       2
    5277    5259    5274    5295       1    5277    5259    5274    5298       1
    5274    5292    5304    5316       2    5274    5292    5304    5319       2
    5271    5256    5268    5283       4    5271    5256    5268    5289       4
    5268    5283    5262    5286       4    5265    5253    5262    5283       4
    5265    5253    5262    5286       4    5262    5283    5268    5289       4
    5259    5274    5292    5307       2    5259    5274    5292    5310       2
    5256    5235    5253    5265       4    5256    5268    5283    5301       4
    5253    5235    5256    5271       4    5253    5262    5283    5301       4
    5247    5229    5241    5259       4    5244    5223    5241    5259       4
    5241    5259    5274    5295       5    5241    5259    5274    5298       5
    5238    5220    5232    5250       4    5235    5214    5232    5250       4
    5235    5253    5262    5286       4    5235    5256    5268    5289       4
    5229    5241    5223    5244       4    5229    5241    5259    5277       8
    5229    5241    5259    5280       8    5226    5205    5223    5241       4
    5226    5205    5223    5244       4    5223    5241    5229    5247       4
    5223    5241    5259    5277       8    5223    5241    5259    5280       8
    5217    5199    5214    5232       4    5217    5199    5214    5235       4
    5214    5232    5220    5238       4    5214    5235    5253    5265       4
    5214    5235    5256    5271       4    5211    5208    5229    5247       4
    5208    5193    5205    5226       4    5202    5190    5199    5217       4
    5202    5220    5232    5250       4    5199    5214    5232    5250       4
    5196    5202    5220    5238       4    5193    5205    5223    5244       4
    5193    5208    5229    5247       4    5190    5202    5220    5238       4
    5187    5193    5205    5226       4    5184    5190    5199    5217       4
    5556    5541    5553    5559       1    5556    5541    5553    5562       1
    5556    5541    5553    5565       1    5550    5541    5553    5559       1
    5550    5541    5553    5562       1    5550    5541    5553    5565       1
    5547    5538    5541    5550       1    5547    5538    5541    5553       2
    5547    5538    5541    5556       1    5544    5538    5541    5550       1
    5544    5538    5541    5553       2    5544    5538    5541    5556       1
    5538    5541    5553    5559       2    5538    5541    5553    5562       2
    5538    5541    5553    5565       2    5535    5523    5538    5541       2
    5535    5523    5538    5544       1    5535    5523    5538    5547       1
    5532    5523    5538    5541       2    5532    5523    5538    5544       1
    5532    5523    5538    5547       1    5529    5514    5523    5532       1
    5529    5514    5523    5535       1    5529    5514    5523    5538       2
    5526    5514    5523    5532       1    5526    5514    5523    5535       1
    5526    5514    5523    5538       2    5523    5538    5541    5550       2
    5523    5538    5541    5556       2    5520    5505    5514    5523       2
    5520    5505    5514    5526       1    5520    5505    5514    5529       1
    5517    5505    5514    5523       2    5517    5505    5514    5526       1
    5517    5505    5514    5529       1    5514    5523    5538    5544       2
    5514    5523    5538    5547       2    5511    5496    5505    5514       2
    5511    5496    5505    5517       1    5511    5496    5505    5520       1
    5508    5496    5505    5514       2    5508    5496    5505    5517       1
    5508    5496    5505    5520       1    5505    5514    5523    5532       2
    5505    5514    5523    5535       2    5502    5484    5496    5505       2
    5502    5484    5496    5508       1    5502    5484    5496    5511       1
    5499    5484    5496    5505       2    5499    5484    5496    5508       1
    5499    5484    5496    5511       1    5496    5505    5514    5526       2
    5496    5505    5514    5529       2    5490    5466    5484    5496       2
    5490    5466    5484    5499       1    5490    5466    5484    5502       1
    5487    5466    5484    5496       2    5487    5466    5484    5499       1
    5487    5466    5484    5502       1    5484    5496    5505    5517       2
    5484    5496    5505    5520       2    5481    5460    5475    5493       4
    5478    5454    5475    5493       4    5472    5451    5466    5484       2
    5472    5451    5466    5487       1    5472    5451    5466    5490       1
    5469    5451    5466    5484       2    5469    5451    5466    5487       1
    5469    5451    5466    5490       1    5466    5484    5496    5508       2
    5466    5484    5496    5511       2    5463    5448    5460    5475       4
    5463    5448    5460    5481       4    5460    5475    5454    5478       4
    5457    5445    5454    5475       4    5457    5445    5454    5478       4
    5454    5475    5460    5481       4    5451    5466    5484    5499       2
    5451    5466    5484    5502       2    5448    5427    5445    5457       4
    5448    5460    5475    5493       4    5445    5427    5448    5463       4
    5445    5454    5475    5493       4    5439    5421    5433    5451       4
    5436    5415    5433    5451       4    5433    5451    5466    5487       5
    5433    5451    5466    5490       5    5430    5412    5424    5442       4
    5427    5406    5424    5442       4    5427    5445    5454    5478       4
    5427    5448    5460    5481       4    5421    5433    5415    5436       4
    5421    5433    5451    5469       8    5421    5433    5451    5472       8
    5418    5397    5415    5433       4    5418    5397    5415    5436       4
    5415    5433    5421    5439       4    5415    5433    5451    5469       8
    5415    5433    5451    5472       8    5409    5391    5406    5424       4
    5409    5391    5406    5427       4    5406    5424    5412    5430       4
    5406    5427    5445    5457       4    5406    5427    5448    5463       4
    5403    5400    5421    5439       4    5400    5385    5397    5418       4
    5394    5382    5391    5409       4    5394    5412    5424    5442       4
    5391    5406    5424    5442       4    5388    5394    5412    5430       4
    5385    5397    5415    5436       4    5385    5400    5421    5439       4
    5382    5394    5412    5430       4    5379    5385    5397    5418       4
    5376    5382    5391    5409       4    5748    5733    5745    5751       1
    5748    5733    5745    5754       1    5748    5733    5745    5757       1
    5742    5733    5745    5751       1    5742    5733    5745    5754       1
    5742    5733    5745    5757       1    5739    5730    5733    5742       1
    5739    5730    5733    5745       2    5739    5730    5733    5748       1
    5736    5730    5733    5742       1    5736    5730    5733    5745       2
    5736    5730    5733    5748       1    5730    5733    5745    5751       2
    5730    5733    5745    5754       2    5730    5733    5745    5757       2
    5727    5715    5730    5733       2    5727    5715    5730    5736       1
    5727    5715    5730    5739       1    5724    5715    5730    5733       2
    5724    5715    5730    5736       1    5724    5715    5730    5739       1
    5721    5706    5715    5724       1    5721    5706    5715    5727       1
    5721    5706    5715    5730       2    5718    5706    5715    5724       1
    5718    5706    5715    5727       1    5718    5706    5715    5730       2
    5715    5730    5733    5742       2    5715    5730    5733    5748       2
    5712    5697    5706    5715       2    5712    5697    5706    5718       1
    5712    5697    5706    5721       1    5709    5697    5706    5715       2
    5709    5697    5706    5718       1    5709    5697    5706    5721       1
    5706    5715    5730    5736       2    5706    5715    5730    5739       2
    5703    5688    5697    5706       2    5703    5688    5697    5709       1
    5703    5688    5697    5712       1    5700    5688    5697    5706       2
    5700    5688    5697    5709       1    5700    5688    5697    5712       1
    5697    5706    5715    5724       2    5697    5706    5715    5727       2
    5694    5676    5688    5697       2    5694    5676    5688    5700       1
    5694    5676    5688    5703       1    5691    5676    5688    5697       2
    5691    5676    5688    5700       1    5691    5676    5688    5703       1
    5688    5697    5706    5718       2    5688    5697    5706    5721       2
    5682    5658    5676    5688       2    5682    5658    5676    5691       1
    5682    5658    5676    5694       1    5679    5658    5676    5688       2
    5679    5658    5676    5691       1    5679    5658    5676    5694       1
    5676    5688    5697    5709       2    5676    5688    5697    5712       2
    5673    5652    5667    5685       4    5670    5646    5667    5685       4
    5664    5643    5658    5676       2    5664    5643    5658    5679       1
    5664    5643    5658    5682       1    5661    5643    5658    5676       2
    5661    5643    5658    5679       1    5661    5643    5658    5682       1
    5658    5676    5688    5700       2    5658    5676    5688    5703       2
    5655    5640    5652    5667       4    5655    5640    5652    5673       4
    5652    5667    5646    5670       4    5649    5637    5646    5667       4
    5649    5637    5646    5670       4    5646    5667    5652    5673       4
    5643    5658    5676    5691       2    5643    5658    5676    5694       2
    5640    5619    5637    5649       4    5640    5652    5667    5685       4
    5637    5619    5640    5655       4    5637    5646    5667    5685       4
    5631    5613    5625    5643       4    5628    5607    5625    5643       4
    5625    5643    5658    5679       5    5625    5643    5658    5682       5
    5622    5604    5616    5634       4    5619    5598    5616    5634       4
    5619    5637    5646    5670       4    5619    5640    5652    5673       4
    5613    5625    5607    5628       4    5613    5625    5643    5661       8
    5613    5625    5643    5664       8    5610    5589    5607    5625       4
    5610    5589    5607    5628       4    5607    5625    5613    5631       4
    5607    5625    5643    5661       8    5607    5625    5643    5664       8
    5601    5583    5598    5616       4    5601    5583    5598    5619       4
    5598    5616    5604    5622       4    5598    5619    5637    5649       4
    5598    5619    5640    5655       4    5595    5592    5613    5631       4
    5592    5577    5589    5610       4    5586    5574    5583    5601       4
    5586    5604    5616    5634       4    5583    5598    5616    5634       4
    5580    5586    5604    5622       4    5577    5589    5607    5628       4
    5577    5592    5613    5631       4    5574    5586    5604    5622       4
    5571    5577    5589    5610       4    5568    5574    5583    5601       4
    5940    5925    5937    5943       1    5940    5925    5937    5946       1
    5940    5925    5937    5949       1    5934    5925    5937    5943       1
    5934    5925    5937    5946       1    5934    5925    5937    5949       1
    5931    5922    5925    5934       1    5931    5922    5925    5937       2
    5931    5922    5925    5940       1    5928    5922    5925    5934       1
    5928    5922    5925    5937       2    5928    5922    5925    5940       1
    5922    5925    5937    5943       2    5922    5925    5937    5946       2
    5922    5925    5937    5949       2    5919    5907    5922    5925       2
    5919    5907    5922    5928       1    5919    5907    5922    5931       1
    5916    5907    5922    5925       2    5916    5907    5922    5928       1
    5916    5907    5922    5931       1    5913    5898    5907    5916       1
    5913    5898    5907    5919       1    5913    5898    5907    5922       2
    5910    5898    5907    5916       1    5910    5898    5907    5919       1
    5910    5898    5907    5922       2    5907    5922    5925    5934       2
    5907    5922    5925    5940       2    5904    5889    5898    5907       2
    5904    5889    5898    5910       1    5904    5889    5898    5913       1
    5901    5889    5898    5907       2    5901    5889    5898    5910       1
    5901    5889    5898    5913       1    5898    5907    5922    5928       2
    5898    5907    5922    5931       2    5895    5880    5889    5898       2
    5895    5880    5889    5901       1    5895    5880    5889    5904       1
    5892    5880    5889    5898       2    5892    5880    5889    5901       1
    5892    5880    5889    5904       1    5889    5898    5907    5916       2
    5889    5898    5907    5919       2    5886    5868    5880    5889       2
    5886    5868    5880    5892       1    5886    5868    5880    5895       1
    5883    5868    5880    5889       2    5883    5868    5880    5892       1
    5883    5868    5880    5895       1    5880    5889    5898    5910       2
    5880    5889    5898    5913       2    5874    5850    5868    5880       2
    5874    5850    5868    5883       1    5874    5850    5868    5886       1
    5871    5850    5868    5880       2    5871    5850    5868    5883       1
    5871    5850    5868    5886       1    5868    5880    5889    5901       2
    5868    5880    5889    5904       2    5865    5844    5859    5877       4
    5862    5838    5859    5877       4    5856    5835    5850    5868       2
    5856    5835    5850    5871       1    5856    5835    5850    5874       1
    5853    5835    5850    5868       2    5853    5835    5850    5871       1
    5853    5835    5850    5874       1    5850    5868    5880    5892       2
    5850    5868    5880    5895       2    5847    5832    5844    5859       4
    5847    5832    5844    5865       4    5844    5859    5838    5862       4
    5841    5829    5838    5859       4    5841    5829    5838    5862       4
    5838    5859    5844    5865       4    5835    5850    5868    5883       2
    5835    5850    5868    5886       2    5832    5811    5829    5841       4
    5832    5844    5859    5877       4    5829    5811    5832    5847       4
    5829    5838    5859    5877       4    5823    5805    5817    5835       4
    5820    5799    5817    5835       4    5817    5835    5850    5871       5
    5817    5835    5850    5874       5    5814    5796    5808    5826       4
    5811    5790    5808    5826       4    5811    5829    5838    5862       4
    5811    5832    5844    5865       4    5805    5817    5799    5820       4
    5805    5817    5835    5853       8    5805    5817    5835    5856       8
    5802    5781    5799    5817       4    5802    5781    5799    5820       4
    5799    5817    5805    5823       4    5799    5817    5835    5853       8
    5799    5817    5835    5856       8    5793    5775    5790    5808       4
    5793    5775    5790    5811       4    5790    5808    5796    5814       4
    5790    5811    5829    5841       4    5790    5811    5832    5847       4
    5787    5784    5805    5823       4    5784    5769    5781    5802       4
    5778    5766    5775    5793       4    5778    5796    5808    5826       4
    5775    5790    5808    5826       4    5772    5778    5796    5814       4
    5769    5781    5799    5820       4    5769    5784    5805    5823       4
    5766    5778    5796    5814       4    5763    5769    5781    5802       4
    5760    5766    5775    5793       4    6132    6117    6129    6135       1
    6132    6117    6129    6138       1    6132    6117    6129    6141       1
    6126    6117    6129    6135       1    6126    6117    6129    6138       1
    6126    6117    6129    6141       1    6123    6114    6117    6126       1
    6123    6114    6117    6129       2    6123    6114    6117    6132       1
    6120    6114    6117    6126       1    6120    6114    6117    6129       2
    6120    6114    6117    6132       1    6114    6117    6129    6135       2
    6114    6117    6129    6138       2    6114    6117    6129    6141       2
    6111    6099    6114    6117       2    6111    6099    6114    6120       1
    6111    6099    6114    6123       1    6108    6099    6114    6117       2
    6108    6099    6114    6120       1    6108    6099    6114    6123       1
    6105    6090    6099    6108       1    6105    6090    6099    6111       1
    6105    6090    6099    6114       2    6102    6090    6099    6108       1
    6102    6090    6099    6111       1    6102    6090    6099    6114       2
    6099    6114    6117    6126       2    6099    6114    6117    6132       2
    6096    6081    6090    6099       2    6096    6081    6090    6102       1
    6096    6081    6090    6105       1    6093    6081    6090    6099       2
    6093    6081    6090    6102       1    6093    6081    6090    6105       1
    6090    6099    6114    6120       2    6090    6099    6114    6123       2
    6087    6072    6081    6090       2    6087    6072    6081    6093       1
    6087    6072    6081    6096       1    6084    6072    6081    6090       2
    6084    6072    6081    6093       1    6084    6072    6081    6096       1
    6081    6090    6099    6108       2    6081    6090    6099    6111       2
    6078    6060    6072    6081       2    6078    6060    6072    6084       1
    6078    6060    6072    6087       1    6075    6060    6072    6081       2
    6075    6060    6072    6084       1    6075    6060    6072    6087       1
    6072    6081    6090    6102       2    6072    6081    6090    6105       2
    6066    6042    6060    6072       2    6066    6042    6060    6075       1
    6066    6042    6060    6078       1    6063    6042    6060    6072       2
    6063    6042    6060    6075       1    6063    6042    6060    6078       1
    6060    6072    6081    6093       2    6060    6072    6081    6096       2
    6057    6036    6051    6069       4    6054    6030    6051    6069       4
    6048    6027    6042    6060       2    6048    6027    6042    6063       1
    6048    6027    6042    6066       1    6045    6027    6042    6060       2
    6045    6027    6042    6063       1    6045    6027    6042    6066       1
    6042    6060    6072    6084       2    6042    6060    6072    6087       2
    6039    6024    6036    6051       4    6039    6024    6036    6057       4
    6036    6051    6030    6054       4    6033    6021    6030    6051       4
    6033    6021    6030    6054       4    6030    6051    6036    6057       4
    6027    6042    6060    6075       2    6027    6042    6060    6078       2
    6024    6003    6021    6033       4    6024    6036    6051    6069       4
    6021    6003    6024    6039       4    6021    6030    6051    6069       4
    6015    5997    6009    6027       4    6012    5991    6009    6027       4
    6009    6027    6042    6063       5    6009    6027    6042    6066       5
    6006    5988    6000    6018       4    6003    5982    6000    6018       4
    6003    6021    6030    6054       4    6003    6024    6036    6057       4
    5997    6009    5991    6012       4    5997    6009    6027    6045       8
    5997    6009    6027    6048       8    5994    5973    5991    6009       4
    5994    5973    5991    6012       4    5991    6009    5997    6015       4
    5991    6009    6027    6045       8    5991    6009    6027    6048       8
    5985    5967    5982    6000       4    5985    5967    5982    6003       4
    5982    6000    5988    6006       4    5982    6003    6021    6033       4
    5982    6003    6024    6039       4    5979    5976    5997    6015       4
    5976    5961    5973    5994       4    5970    5958    5967    5985       4
    5970    5988    6000    6018       4    5967    5982    6000    6018       4
    5964    5970    5988    6006       4    5961    5973    5991    6012       4
    5961    5976    5997    6015       4    5958    5970    5988    6006       4
    5955    5961    5973    5994       4    5952    5958    5967    5985       4
    6324    6309    6321    6327       1    6324    6309    6321    6330       1
    6324    6309    6321    6333       1    6318    6309    6321    6327       1
    6318    6309    6321    6330       1    6318    6309    6321    6333       1
    6315    6306    6309    6318       1    6315    6306    6309    6321       2
    6315    6306    6309    6324       1    6312    6306    6309    6318       1
    6312    6306    6309    6321       2    6312    6306    6309    6324       1
    6306    6309    6321    6327       2    6306    6309    6321    6330       2
    6306    6309    6321    6333       2    6303    6291    6306    6309       2
    6303    6291    6306    6312       1    6303    6291    6306    6315       1
    6300    6291    6306    6309       2    6300    6291    6306    6312       1
    6300    6291    6306    6315       1    6297    6282    6291    6300       1
    6297    6282    6291    6303       1    6297    6282    6291    6306       2
    6294    6282    6291    6300       1    6294    6282    6291    6303       1
    6294    6282    6291    6306       2    6291    6306    6309    6318       2
    6291    6306    6309    6324       2    6288    6273    6282    6291       2
    6288    6273    6282    6294       1    6288    6273    6282    6297       1
    6285    6273    6282    6291       2    6285    6273    6282    6294       1
    6285    6273    6282    6297       1    6282    6291    6306    6312       2
    6282    6291    6306    6315       2    6279    6264    6273    6282       2
    6279    6264    6273    6285       1    6279    6264    6273    6288       1
    6276    6264    6273    6282       2    6276    6264    6273    6285       1
    6276    6264    6273    6288       1    6273    6282    6291    6300       2
    6273    6282    6291    6303       2    6270    6252    6264    6273       2
    6270    6252    6264    6276       1    6270    6252    6264    6279       1
    6267    6252    6264    6273       2    6267    6252    6264    6276       1
    6267    6252    6264    6279       1    6264    6273    6282    6294       2
    6264    6273    6282    6297       2    6258    6234    6252    6264       2
    6258    6234    6252    6267       1    6258    6234    6252    6270       1
    6255    6234    6252    6264       2    6255    6234    6252    6267       1
    6255    6234    6252    6270       1    6252    6264    6273    6285       2
    6252    6264    6273    6288       2    6249    6228    6243    6261       4
    6246    6222    6243    6261       4    6240    6219    6234    6252       2
    6240    6219    6234    6255       1    6240    6219    6234    6258       1
    6237    6219    6234    6252       2    6237    6219    6234    6255       1
    6237    6219    6234    6258       1    6234    6252    6264    6276       2
    6234    6252    6264    6279       2    6231    6216    6228    6243       4
    6231    6216    6228    6249       4    6228    6243    6222    6246       4
    6225    6213    6222    6243       4    6225    6213    6222    6246       4
    6222    6243    6228    6249       4    6219    6234    6252    6267       2
    6219    6234    6252    6270       2    6216    6195    6213    6225       4
    6216    6228    6243    6261       4    6213    6195    6216    6231       4
    6213    6222    6243    6261       4    6207    6189    6201    6219       4
    6204    6183    6201    6219       4    6201    6219    6234    6255       5
    6201    6219    6234    6258       5    6198    6180    6192    6210       4
    6195    6174    6192    6210       4    6195    6213    6222    6246       4
    6195    6216    6228    6249       4    6189    6201    6183    6204       4
    6189    6201    6219    6237       8    6189    6201    6219    6240       8
    6186    6165    6183    6201       4    6186    6165    6183    6204       4
    6183    6201    6189    6207       4    6183    6201    6219    6237       8
    6183    6201    6219    6240       8    6177    6159    6174    6192       4
    6177    6159    6174    6195       4    6174    6192    6180    6198       4
    6174    6195    6213    6225       4    6174    6195    6216    6231       4
    6171    6168    6189    6207       4    6168    6153    6165    6186       4
    6162    6150    6159    6177       4    6162    6180    6192    6210       4
    6159    6174    6192    6210       4    6156    6162    6180    6198       4
    6153    6165    6183    6204       4    6153    6168    6189    6207       4
    6150    6162    6180    6198       4    6147    6153    6165    6186       4
    6144    6150    6159    6177       4    6516    6501    6513    6519       1
    6516    6501    6513    6522       1    6516    6501    6513    6525       1
    6510    6501    6513    6519       1    6510    6501    6513    6522       1
    6510    6501    6513    6525       1    6507    6498    6501    6510       1
    6507    6498    6501    6513       2    6507    6498    6501    6516       1
    6504    6498    6501    6510       1    6504    6498    6501    6513       2
    6504    6498    6501    6516       1    6498    6501    6513    6519       2
    6498    6501    6513    6522       2    6498    6501    6513    6525       2
    6495    6483    6498    6501       2    6495    6483    6498    6504       1
    6495    6483    6498    6507       1    6492    6483    6498    6501       2
    6492    6483    6498    6504       1    6492    6483    6498    6507       1
    6489    6474    6483    6492       1    6489    6474    6483    6495       1
    6489    6474    6483    6498       2    6486    6474    6483    6492       1
    6486    6474    6483    6495       1    6486    6474    6483    6498       2
    6483    6498    6501    6510       2    6483    6498    6501    6516       2
    6480    6465    6474    6483       2    6480    6465    6474    6486       1
    6480    6465    6474    6489       1    6477    6465    6474    6483       2
    6477    6465    6474    6486       1    6477    6465    6474    6489       1
    6474    6483    6498    6504       2    6474    6483    6498    6507       2
    6471    6456    6465    6474       2    6471    6456    6465    6477       1
    6471    6456    6465    6480       1    6468    6456    6465    6474       2
    6468    6456    6465    6477       1    6468    6456    6465    6480       1
    6465    6474    6483    6492       2    6465    6474    6483    6495       2
    6462    6444    6456    6465       2    6462    6444    6456    6468       1
    6462    6444    6456    6471       1    6459    6444    6456    6465       2
    6459    6444    6456    6468       1    6459    6444    6456    6471       1
    6456    6465    6474    6486       2    6456    6465    6474    6489       2
    6450    6426    6444    6456       2    6450    6426    6444    6459       1
    6450    6426    6444    6462       1    6447    6426    6444    6456       2
    6447    6426    6444    6459       1    6447    6426    6444    6462       1
    6444    6456    6465    6477       2    6444    6456    6465    6480       2
    6441    6420    6435    6453       4    6438    6414    6435    6453       4
    6432    6411    6426    6444       2    6432    6411    6426    6447       1
    6432    6411    6426    6450       1    6429    6411    6426    6444       2
    6429    6411    6426    6447       1    6429    6411    6426    6450       1
    6426    6444    6456    6468       2    6426    6444    6456    6471       2
    6423    6408    6420    6435       4    6423    6408    6420    6441       4
    6420    6435    6414    6438       4    6417    6405    6414    6435       4
    6417    6405    6414    6438       4    6414    6435    6420    6441       4
    6411    6426    6444    6459       2    6411    6426    6444    6462       2
    6408    6387    6405    6417       4    6408    6420    6435    6453       4
    6405    6387    6408    6423       4    6405    6414    6435    6453       4
    6399    6381    6393    6411       4    6396    6375    6393    6411       4
    6393    6411    6426    6447       5    6393    6411    6426    6450       5
    6390    6372    6384    6402       4    6387    6366    6384    6402       4
    6387    6405    6414    6438       4    6387    6408    6420    6441       4
    6381    6393    6375    6396       4    6381    6393    6411    6429       8
    6381    6393    6411    6432       8    6378    6357    6375    6393       4
    6378    6357    6375    6396       4    6375    6393    6381    6399       4
    6375    6393    6411    6429       8    6375    6393    6411    6432       8
    6369    6351    6366    6384       4    6369    6351    6366    6387       4
    6366    6384    6372    6390       4    6366    6387    6405    6417       4
    6366    6387    6408    6423       4    6363    6360    6381    6399       4
    6360    6345    6357    6378       4    6354    6342    6351    6369       4
    6354    6372    6384    6402       4    6351    6366    6384    6402       4
    6348    6354    6372    6390       4    6345    6357    6375    6396       4
    6345    6360    6381    6399       4    6342    6354    6372    6390       4
    6339    6345    6357    6378       4    6336    6342    6351    6369       4
    6708    6693    6705    6711       1    6708    6693    6705    6714       1
    6708    6693    6705    6717       1    6702    6693    6705    6711       1
    6702    6693    6705    6714       1    6702    6693    6705    6717       1
    6699    6690    6693    6702       1    6699    6690    6693    6705       2
    6699    6690    6693    6708       1    6696    6690    6693    6702       1
    6696    6690    6693    6705       2    6696    6690    6693    6708       1
    6690    6693    6705    6711       2    6690    6693    6705    6714       2
    6690    6693    6705    6717       2    6687    6675    6690    6693       2
    6687    6675    6690    6696       1    6687    6675    6690    6699       1
    6684    6675    6690    6693       2    6684    6675    6690    6696       1
    6684    6675    6690    6699       1    6681    6666    6675    6684       1
    6681    6666    6675    6687       1    6681    6666    6675    6690       2
    6678    6666    6675    6684       1    6678    6666    6675    6687       1
    6678    6666    6675    6690       2    6675    6690    6693    6702       2
    6675    6690    6693    6708       2    6672    6657    6666    6675       2
    6672    6657    6666    6678       1    6672    6657    6666    6681       1
    6669    6657    6666    6675       2    6669    6657    6666    6678       1
    6669    6657    6666    6681       1    6666    6675    6690    6696       2
    6666    6675    6690    6699       2    6663    6648    6657    6666       2
    6663    6648    6657    6669       1    6663    6648    6657    6672       1
    6660    6648    6657    6666       2    6660    6648    6657    6669       1
    6660    6648    6657    6672       1    6657    6666    6675    6684       2
    6657    6666    6675    6687       2    6654    6636    6648    6657       2
    6654    6636    6648    6660       1    6654    6636    6648    6663       1
    6651    6636    6648    6657       2    6651    6636    6648    6660       1
    6651    6636    6648    6663       1    6648    6657    6666    6678       2
    6648    6657    6666    6681       2    6642    6618    6636    6648       2
    6642    6618    6636    6651       1    6642    6618    6636    6654       1
    6639    6618    6636    6648       2    6639    6618    6636    6651       1
    6639    6618    6636    6654       1    6636    6648    6657    6669       2
    6636    6648    6657    6672       2    6633    6612    6627    6645       4
    6630    6606    6627    6645       4    6624    6603    6618    6636       2
    6624    6603    6618    6639       1    6624    6603    6618    6642       1
    6621    6603    6618    6636       2    6621    6603    6618    6639       1
    6621    6603    6618    6642       1    6618    6636    6648    6660       2
    6618    6636    6648    6663       2    6615    6600    6612    6627       4
    6615    6600    6612    6633       4    6612    6627    6606    6630       4
    6609    6597    6606    6627       4    6609    6597    6606    6630       4
    6606    6627    6612    6633       4    6603    6618    6636    6651       2
    6603    6618    6636    6654       2    6600    6579    6597    6609       4
    6600    6612    6627    6645       4    6597    6579    6600    6615       4
    6597    6606    6627    6645       4    6591    6573    6585    6603       4
    6588    6567    6585    6603       4    6585    6603    6618    6639       5
    6585    6603    6618    6642       5    6582    6564    6576    6594       4
    6579    6558    6576    6594       4    6579    6597    6606    6630       4
    6579    6600    6612    6633       4    6573    6585    6567    6588       4
    6573    6585    6603    6621       8    6573    6585    6603    6624       8
    6570    6549    6567    6585       4    6570    6549    6567    6588       4
    6567    6585    6573    6591       4    6567    6585    6603    6621       8
    6567    6585    6603    6624       8    6561    6543    6558    6576       4
    6561    6543    6558    6579       4    6558    6576    6564    6582       4
    6558    6579    6597    6609       4    6558    6579    6600    6615       4
    6555    6552    6573    6591       4    6552    6537    6549    6570       4
    6546    6534    6543    6561       4    6546    6564    6576    6594       4
    6543    6558    6576    6594       4    6540    6546    6564    6582       4
    6537    6549    6567    6588       4    6537    6552    6573    6591       4
    6534    6546    6564    6582       4    6531    6537    6549    6570       4
    6528    6534    6543    6561       4    6900    6885    6897    6903       1
    6900    6885    6897    6906       1    6900    6885    6897    6909       1
    6894    6885    6897    6903       1    6894    6885    6897    6906       1
    6894    6885    6897    6909       1    6891    6882    6885    6894       1
    6891    6882    6885    6897       2    6891    6882    6885    6900       1
    6888    6882    6885    6894       1    6888    6882    6885    6897       2
    6888    6882    6885    6900       1    6882    6885    6897    6903       2
    6882    6885    6897    6906       2    6882    6885    6897    6909       2
    6879    6867    6882    6885       2    6879    6867    6882    6888       1
    6879    6867    6882    6891       1    6876    6867    6882    6885       2
    6876    6867    6882    6888       1    6876    6867    6882    6891       1
    6873    6858    6867    6876       1    6873    6858    6867    6879       1
    6873    6858    6867    6882       2    6870    6858    6867    6876       1
    6870    6858    6867    6879       1    6870    6858    6867    6882       2
    6867    6882    6885    6894       2    6867    6882    6885    6900       2
    6864    6849    6858    6867       2    6864    6849    6858    6870       1
    6864    6849    6858    6873       1    6861    6849    6858    6867       2
    6861    6849    6858    6870       1    6861    6849    6858    6873       1
    6858    6867    6882    6888       2    6858    6867    6882    6891       2
    6855    6840    6849    6858       2    6855    6840    6849    6861       1
    6855    6840    6849    6864       1    6852    6840    6849    6858       2
    6852    6840    6849    6861       1    6852    6840    6849    6864       1
    6849    6858    6867    6876       2    6849    6858    6867    6879       2
    6846    6828    6840    6849       2    6846    6828    6840    6852       1
    6846    6828    6840    6855       1    6843    6828    6840    6849       2
    6843    6828    6840    6852       1    6843    6828    6840    6855       1
    6840    6849    6858    6870       2    6840    6849    6858    6873       2
    6834    6810    6828    6840       2    6834    6810    6828    6843       1
    6834    6810    6828    6846       1    6831    6810    6828    6840       2
    6831    6810    6828    6843       1    6831    6810    6828    6846       1
    6828    6840    6849    6861       2    6828    6840    6849    6864       2
    6825    6804    6819    6837       4    6822    6798    6819    6837       4
    6816    6795    6810    6828       2    6816    6795    6810    6831       1
    6816    6795    6810    6834       1    6813    6795    6810    6828       2
    6813    6795    6810    6831       1    6813    6795    6810    6834       1
    6810    6828    6840    6852       2    6810    6828    6840    6855       2
    6807    6792    6804    6819       4    6807    6792    6804    6825       4
    6804    6819    6798    6822       4    6801    6789    6798    6819       4
    6801    6789    6798    6822       4    6798    6819    6804    6825       4
    6795    6810    6828    6843       2    6795    6810    6828    6846       2
    6792    6771    6789    6801       4    6792    6804    6819    6837       4
    6789    6771    6792    6807       4    6789    6798    6819    6837       4
    6783    6765    6777    6795       4    6780    6759    6777    6795       4
    6777    6795    6810    6831       5    6777    6795    6810    6834       5
    6774    6756    6768    6786       4    6771    6750    6768    6786       4
    6771    6789    6798    6822       4    6771    6792    6804    6825       4
    6765    6777    6759    6780       4    6765    6777    6795    6813       8
    6765    6777    6795    6816       8    6762    6741    6759    6777       4
    6762    6741    6759    6780       4    6759    6777    6765    6783       4
    6759    6777    6795    6813       8    6759    6777    6795    6816       8
    6753    6735    6750    6768       4    6753    6735    6750    6771       4
    6750    6768    6756    6774       4    6750    6771    6789    6801       4
    6750    6771    6792    6807       4    6747    6744    6765    6783       4
    6744    6729    6741    6762       4    6738    6726    6735    6753       4
    6738    6756    6768    6786       4    6735    6750    6768    6786       4
    6732    6738    6756    6774       4    6729    6741    6759    6780       4
    6729    6744    6765    6783       4    6726    6738    6756    6774       4
    6723    6729    6741    6762       4    6720    6726    6735    6753       4
    7092    7077    7089    7095       1    7092    7077    7089    7098       1
    7092    7077    7089    7101       1    7086    7077    7089    7095       1
    7086    7077    7089    7098       1    7086    7077    7089    7101       1
    7083    7074    7077    7086       1    7083    7074    7077    7089       2
    7083    7074    7077    7092       1    7080    7074    7077    7086       1
    7080    7074    7077    7089       2    7080    7074    7077    7092       1
    7074    7077    7089    7095       2    7074    7077    7089    7098       2
    7074    7077    7089    7101       2    7071    7059    7074    7077       2
    7071    7059    7074    7080       1    7071    7059    7074    7083       1
    7068    7059    7074    7077       2    7068    7059    7074    7080       1
    7068    7059    7074    7083       1    7065    7050    7059    7068       1
    7065    7050    7059    7071       1    7065    7050    7059    7074       2
    7062    7050    7059    7068       1    7062    7050    7059    7071       1
    7062    7050    7059    7074       2    7059    7074    7077    7086       2
    7059    7074    7077    7092       2    7056    7041    7050    7059       2
    7056    7041    7050    7062       1    7056    7041    7050    7065       1
    7053    7041    7050    7059       2    7053    7041    7050    7062       1
    7053    7041    7050    7065       1    7050    7059    7074    7080       2
    7050    7059    7074    7083       2    7047    7032    7041    7050       2
    7047    7032    7041    7053       1    7047    7032    7041    7056       1
    7044    7032    7041    7050       2    7044    7032    7041    7053       1
    7044    7032    7041    7056       1    7041    7050    7059    7068       2
    7041    7050    7059    7071       2    7038    7020    7032    7041       2
    7038    7020    7032    7044       1    7038    7020    7032    7047       1
    7035    7020    7032    7041       2    7035    7020    7032    7044       1
    7035    7020    7032    7047       1    7032    7041    7050    7062       2
    7032    7041    7050    7065       2    7026    7002    7020    7032       2
    7026    7002    7020    7035       1    7026    7002    7020    7038       1
    7023    7002    7020    7032       2    7023    7002    7020    7035       1
    7023    7002    7020    7038       1    7020    7032    7041    7053       2
    7020    7032    7041    7056       2    7017    6996    7011    7029       4
    7014    6990    7011    7029       4    7008    6987    7002    7020       2
    7008    6987    7002    7023       1    7008    6987    7002    7026       1
    7005    6987    7002    7020       2    7005    6987    7002    7023       1
    7005    6987    7002    7026       1    7002    7020    7032    7044       2
    7002    7020    7032    7047       2    6999    6984    6996    7011       4
    6999    6984    6996    7017       4    6996    7011    6990    7014       4
    6993    6981    6990    7011       4    6993    6981    6990    7014       4
    6990    7011    6996    7017       4    6987    7002    7020    7035       2
    6987    7002    7020    7038       2    6984    6963    6981    6993       4
    6984    6996    7011    7029       4    6981    6963    6984    6999       4
    6981    6990    7011    7029       4    6975    6957    6969    6987       4
    6972    6951    6969    6987       4    6969    6987    7002    7023       5
    6969    6987    7002    7026       5    6966    6948    6960    6978       4
    6963    6942    6960    6978       4    6963    6981    6990    7014       4
    6963    6984    6996    7017       4    6957    6969    6951    6972       4
    6957    6969    6987    7005       8    6957    6969    6987    7008       8
    6954    6933    6951    6969       4    6954    6933    6951    6972       4
    6951    6969    6957    6975       4    6951    6969    6987    7005       8
    6951    6969    6987    7008       8    6945    6927    6942    6960       4
    6945    6927    6942    6963       4    6942    6960    6948    6966       4
    6942    6963    6981    6993       4    6942    6963    6984    6999       4
    6939    6936    6957    6975       4    6936    6921    6933    6954       4
    6930    6918    6927    6945       4    6930    6948    6960    6978       4
    6927    6942    6960    6978       4    6924    6930    6948    6966       4
    6921    6933    6951    6972       4    6921    6936    6957    6975       4
    6918    6930    6948    6966       4    6915    6921    6933    6954       4
    6912    6918    6927    6945       4    7284    7269    7281    7287       1
    7284    7269    7281    7290       1    7284    7269    7281    7293       1
    7278    7269    7281    7287       1    7278    7269    7281    7290       1
    7278    7269    7281    7293       1    7275    7266    7269    7278       1
    7275    7266    7269    7281       2    7275    7266    7269    7284       1
    7272    7266    7269    7278       1    7272    7266    7269    7281       2
    7272    7266    7269    7284       1    7266    7269    7281    7287       2
    7266    7269    7281    7290       2    7266    7269    7281    7293       2
    7263    7251    7266    7269       2    7263    7251    7266    7272       1
    7263    7251    7266    7275       1    7260    7251    7266    7269       2
    7260    7251    7266    7272       1    7260    7251    7266    7275       1
    7257    7242    7251    7260       1    7257    7242    7251    7263       1
    7257    7242    7251    7266       2    7254    7242    7251    7260       1
    7254    7242    7251    7263       1    7254    7242    7251    7266       2
    7251    7266    7269    7278       2    7251    7266    7269    7284       2
    7248    7233    7242    7251       2    7248    7233    7242    7254       1
    7248    7233    7242    7257       1    7245    7233    7242    7251       2
    7245    7233    7242    7254       1    7245    7233    7242    7257       1
    7242    7251    7266    7272       2    7242    7251    7266    7275       2
    7239    7224    7233    7242       2    7239    7224    7233    7245       1
    7239    7224    7233    7248       1    7236    7224    7233    7242       2
    7236    7224    7233    7245       1    7236    7224    7233    7248       1
    7233    7242    7251    7260       2    7233    7242    7251    7263       2
    7230    7212    7224    7233       2    7230    7212    7224    7236       1
    7230    7212    7224    7239       1    7227    7212    7224    7233       2
    7227    7212    7224    7236       1    7227    7212    7224    7239       1
    7224    7233    7242    7254       2    7224    7233    7242    7257       2
    7218    7194    7212    7224       2    7218    7194    7212    7227       1
    7218    7194    7212    7230       1    7215    7194    7212    7224       2
    7215    7194    7212    7227       1    7215    7194    7212    7230       1
    7212    7224    7233    7245       2    7212    7224    7233    7248       2
    7209    7188    7203    7221       4    7206    7182    7203    7221       4
    7200    7179    7194    7212       2    7200    7179    7194    7215       1
    7200    7179    7194    7218       1    7197    7179    7194    7212       2
    7197    7179    7194    7215       1    7197    7179    7194    7218       1
    7194    7212    7224    7236       2    7194    7212    7224    7239       2
    7191    7176    7188    7203       4    7191    7176    7188    7209       4
    7188    7203    7182    7206       4    7185    7173    7182    7203       4
    7185    7173    7182    7206       4    7182    7203    7188    7209       4
    7179    7194    7212    7227       2    7179    7194    7212    7230       2
    7176    7155    7173    7185       4    7176    7188    7203    7221       4
    7173    7155    7176    7191       4    7173    7182    7203    7221       4
    7167    7149    7161    7179       4    7164    7143    7161    7179       4
    7161    7179    7194    7215       5    7161    7179    7194    7218       5
    7158    7140    7152    7170       4    7155    7134    7152    7170       4
    7155    7173    7182    7206       4    7155    7176    7188    7209       4
    7149    7161    7143    7164       4    7149    7161    7179    7197       8
    7149    7161    7179    7200       8    7146    7125    7143    7161       4
    7146    7125    7143    7164       4    7143    7161    7149    7167       4
    7143    7161    7179    7197       8    7143    7161    7179    7200       8
    7137    7119    7134    7152       4    7137    7119    7134    7155       4
    7134    7152    7140    7158       4    7134    7155    7173    7185       4
    7134    7155    7176    7191       4    7131    7128    7149    7167       4
    7128    7113    7125    7146       4    7122    7110    7119    7137       4
    7122    7140    7152    7170       4    7119    7134    7152    7170       4
    7116    7122    7140    7158       4    7113    7125    7143    7164       4
    7113    7128    7149    7167       4    7110    7122    7140    7158       4
    7107    7113    7125    7146       4    7104    7110    7119    7137       4
    7476    7461    7473    7479       1    7476    7461    7473    7482       1
    7476    7461    7473    7485       1    7470    7461    7473    7479       1
    7470    7461    7473    7482       1    7470    7461    7473    7485       1
    7467    7458    7461    7470       1    7467    7458    7461    7473       2
    7467    7458    7461    7476       1    7464    7458    7461    7470       1
    7464    7458    7461    7473       2    7464    7458    7461    7476       1
    7458    7461    7473    7479       2    7458    7461    7473    7482       2
    7458    7461    7473    7485       2    7455    7443    7458    7461       2
    7455    7443    7458    7464       1    7455    7443    7458    7467       1
    7452    7443    7458    7461       2    7452    7443    7458    7464       1
    7452    7443    7458    7467       1    7449    7434    7443    7452       1
    7449    7434    7443    7455       1    7449    7434    7443    7458       2
    7446    7434    7443    7452       1    7446    7434    7443    7455       1
    7446    7434    7443    7458       2    7443    7458    7461    7470       2
    7443    7458    7461    7476       2    7440    7425    7434    7443       2
    7440    7425    7434    7446       1    7440    7425    7434    7449       1
    7437    7425    7434    7443       2    7437    7425    7434    7446       1
    7437    7425    7434    7449       1    7434    7443    7458    7464       2
    7434    7443    7458    7467       2    7431    7416    7425    7434       2
    7431    7416    7425    7437       1    7431    7416    7425    7440       1
    7428    7416    7425    7434       2    7428    7416    7425    7437       1
    7428    7416    7425    7440       1    7425    7434    7443    7452       2
    7425    7434    7443    7455       2    7422    7404    7416    7425       2
    7422    7404    7416    7428       1    7422    7404    7416    7431       1
    7419    7404    7416    7425       2    7419    7404    7416    7428       1
    7419    7404    7416    7431       1    7416    7425    7434    7446       2
    7416    7425    7434    7449       2    7410    7386    7404    7416       2
    7410    7386    7404    7419       1    7410    7386    7404    7422       1
    7407    7386    7404    7416       2    7407    7386    7404    7419       1
    7407    7386    7404    7422       1    7404    7416    7425    7437       2
    7404    7416    7425    7440       2    7401    7380    7395    7413       4
    7398    7374    7395    7413       4    7392    7371    7386    7404       2
    7392    7371    7386    7407       1    7392    7371    7386    7410       1
    7389    7371    7386    7404       2    7389    7371    7386    7407       1
    7389    7371    7386    7410       1    7386    7404    7416    7428       2
    7386    7404    7416    7431       2    7383    7368    7380    7395       4
    7383    7368    7380    7401       4    7380    7395    7374    7398       4
    7377    7365    7374    7395       4    7377    7365    7374    7398       4
    7374    7395    7380    7401       4    7371    7386    7404    7419       2
    7371    7386    7404    7422       2    7368    7347    7365    7377       4
    7368    7380    7395    7413       4    7365    7347    7368    7383       4
    7365    7374    7395    7413       4    7359    7341    7353    7371       4
    7356    7335    7353    7371       4    7353    7371    7386    7407       5
    7353    7371    7386    7410       5    7350    7332    7344    7362       4
    7347    7326    7344    7362       4    7347    7365    7374    7398       4
    7347    7368    7380    7401       4    7341    7353    7335    7356       4
    7341    7353    7371    7389       8    7341    7353    7371    7392       8
    7338    7317    7335    7353       4    7338    7317    7335    7356       4
    7335    7353    7341    7359       4    7335    7353    7371    7389       8
    7335    7353    7371    7392       8    7329    7311    7326    7344       4
    7329    7311    7326    7347       4    7326    7344    7332    7350       4
    7326    7347    7365    7377       4    7326    7347    7368    7383       4
    7323    7320    7341    7359       4    7320    7305    7317    7338       4
    7314    7302    7311    7329       4    7314    7332    7344    7362       4
    7311    7326    7344    7362       4    7308    7314    7332    7350       4
    7305    7317    7335    7356       4    7305    7320    7341    7359       4
    7302    7314    7332    7350       4    7299    7305    7317    7338       4
    7296    7302    7311    7329       4    7668    7653    7665    7671       1
    7668    7653    7665    7674       1    7668    7653    7665    7677       1
    7662    7653    7665    7671       1    7662    7653    7665    7674       1
    7662    7653    7665    7677       1    7659    7650    7653    7662       1
    7659    7650    7653    7665       2    7659    7650    7653    7668       1
    7656    7650    7653    7662       1    7656    7650    7653    7665       2
    7656    7650    7653    7668       1    7650    7653    7665    7671       2
    7650    7653    7665    7674       2    7650    7653    7665    7677       2
    7647    7635    7650    7653       2    7647    7635    7650    7656       1
    7647    7635    7650    7659       1    7644    7635    7650    7653       2
    7644    7635    7650    7656       1    7644    7635    7650    7659       1
    7641    7626    7635    7644       1    7641    7626    7635    7647       1
    7641    7626    7635    7650       2    7638    7626    7635    7644       1
    7638    7626    7635    7647       1    7638    7626    7635    7650       2
    7635    7650    7653    7662       2    7635    7650    7653    7668       2
    7632    7617    7626    7635       2    7632    7617    7626    7638       1
    7632    7617    7626    7641       1    7629    7617    7626    7635       2
    7629    7617    7626    7638       1    7629    7617    7626    7641       1
    7626    7635    7650    7656       2    7626    7635    7650    7659       2
    7623    7608    7617    7626       2    7623    7608    7617    7629       1
    7623    7608    7617    7632       1    7620    7608    7617    7626       2
    7620    7608    7617    7629       1    7620    7608    7617    7632       1
    7617    7626    7635    7644       2    7617    7626    7635    7647       2
    7614    7596    7608    7617       2    7614    7596    7608    7620       1
    7614    7596    7608    7623       1    7611    7596    7608    7617       2
    7611    7596    7608    7620       1    7611    7596    7608    7623       1
    7608    7617    7626    7638       2    7608    7617    7626    7641       2
    7602    7578    7596    7608       2    7602    7578    7596    7611       1
    7602    7578    7596    7614       1    7599    7578    7596    7608       2
    7599    7578    7596    7611       1    7599    7578    7596    7614       1
    7596    7608    7617    7629       2    7596    7608    7617    7632       2
    7593    7572    7587    7605       4    7590    7566    7587    7605       4
    7584    7563    7578    7596       2    7584    7563    7578    7599       1
    7584    7563    7578    7602       1    7581    7563    7578    7596       2
    7581    7563    7578    7599       1    7581    7563    7578    7602       1
    7578    7596    7608    7620       2    7578    7596    7608    7623       2
    7575    7560    7572    7587       4    7575    7560    7572    7593       4
    7572    7587    7566    7590       4    7569    7557    7566    7587       4
    7569    7557    7566    7590       4    7566    7587    7572    7593       4
    7563    7578    7596    7611       2    7563    7578    7596    7614       2
    7560    7539    7557    7569       4    7560    7572    7587    7605       4
    7557    7539    7560    7575       4    7557    7566    7587    7605       4
    7551    7533    7545    7563       4    7548    7527    7545    7563       4
    7545    7563    7578    7599       5    7545    7563    7578    7602       5
    7542    7524    7536    7554       4    7539    7518    7536    7554       4
    7539    7557    7566    7590       4    7539    7560    7572    7593       4
    7533    7545    7527    7548       4    7533    7545    7563    7581       8
    7533    7545    7563    7584       8    7530    7509    7527    7545       4
    7530    7509    7527    7548       4    7527    7545    7533    7551       4
    7527    7545    7563    7581       8    7527    7545    7563    7584       8
    7521    7503    7518    7536       4    7521    7503    7518    7539       4
    7518    7536    7524    7542       4    7518    7539    7557    7569       4
    7518    7539    7560    7575       4    7515    7512    7533    7551       4
    7512    7497    7509    7530       4    7506    7494    7503    7521       4
    7506    7524    7536    7554       4    7503    7518    7536    7554       4
    7500    7506    7524    7542       4    7497    7509    7527    7548       4
    7497    7512    7533    7551       4    7494    7506    7524    7542       4
    7491    7497    7509    7530       4    7488    7494    7503    7521       4
    7860    7845    7857    7863       1    7860    7845    7857    7866       1
    7860    7845    7857    7869       1    7854    7845    7857    7863       1
    7854    7845    7857    7866       1    7854    7845    7857    7869       1
    7851    7842    7845    7854       1    7851    7842    7845    7857       2
    7851    7842    7845    7860       1    7848    7842    7845    7854       1
    7848    7842    7845    7857       2    7848    7842    7845    7860       1
    7842    7845    7857    7863       2    7842    7845    7857    7866       2
    7842    7845    7857    7869       2    7839    7827    7842    7845       2
    7839    7827    7842    7848       1    7839    7827    7842    7851       1
    7836    7827    7842    7845       2    7836    7827    7842    7848       1
    7836    7827    7842    7851       1    7833    7818    7827    7836       1
    7833    7818    7827    7839       1    7833    7818    7827    7842       2
    7830    7818    7827    7836       1    7830    7818    7827    7839       1
    7830    7818    7827    7842       2    7827    7842    7845    7854       2
    7827    7842    7845    7860       2    7824    7809    7818    7827       2
    7824    7809    7818    7830       1    7824    7809    7818    7833       1
    7821    7809    7818    7827       2    7821    7809    7818    7830       1
    7821    7809    7818    7833       1    7818    7827    7842    7848       2
    7818    7827    7842    7851       2    7815    7800    7809    7818       2
    7815    7800    7809    7821       1    7815    7800    7809    7824       1
    7812    7800    7809    7818       2    7812    7800    7809    7821       1
    7812    7800    7809    7824       1    7809    7818    7827    7836       2
    7809    7818    7827    7839       2    7806    7788    7800    7809       2
    7806    7788    7800    7812       1    7806    7788    7800    7815       1
    7803    7788    7800    7809       2    7803    7788    7800    7812       1
    7803    7788    7800    7815       1    7800    7809    7818    7830       2
    7800    7809    7818    7833       2    7794    7770    7788    7800       2
    7794    7770    7788    7803       1    7794    7770    7788    7806       1
    7791    7770    7788    7800       2    7791    7770    7788    7803       1
    7791    7770    7788    7806       1    7788    7800    7809    7821       2
    7788    7800    7809    7824       2    7785    7764    7779    7797       4
    7782    7758    7779    7797       4    7776    7755    7770    7788       2
    7776    7755    7770    7791       1    7776    7755    7770    7794       1
    7773    7755    7770    7788       2    7773    7755    7770    7791       1
    7773    7755    7770    7794       1    7770    7788    7800    7812       2
    7770    7788    7800    7815       2    7767    7752    7764    7779       4
    7767    7752    7764    7785       4    7764    7779    7758    7782       4
    7761    7749    7758    7779       4    7761    7749    7758    7782       4
    7758    7779    7764    7785       4    7755    7770    7788    7803       2
    7755    7770    7788    7806       2    7752    7731    7749    7761       4
    7752    7764    7779    7797       4    7749    7731    7752    7767       4
    7749    7758    7779    7797       4    7743    7725    7737    7755       4
    7740    7719    7737    7755       4    7737    7755    7770    7791       5
    7737    7755    7770    7794       5    7734    7716    7728    7746       4
    7731    7710    7728    7746       4    7731    7749    7758    7782       4
    7731    7752    7764    7785       4    7725    7737    7719    7740       4
    7725    7737    7755    7773       8    7725    7737    7755    7776       8
    7722    7701    7719    7737       4    7722    7701    7719    7740       4
    7719    7737    7725    7743       4    7719    7737    7755    7773       8
    7719    7737    7755    7776       8    7713    7695    7710    7728       4
    7713    7695    7710    7731       4    7710    7728    7716    7734       4
    7710    7731    7749    7761       4    7710    7731    7752    7767       4
    7707    7704    7725    7743       4    7704    7689    7701    7722       4
    7698    7686    7695    7713       4    7698    7716    7728    7746       4
    7695    7710    7728    7746       4    7692    7698    7716    7734       4
    7689    7701    7719    7740       4    7689    7704    7725    7743       4
    7686    7698    7716    7734       4    7683    7689    7701    7722       4
    7680    7686    7695    7713       4    8052    8037    8049    8055       1
    8052    8037    8049    8058       1    8052    8037    8049    8061       1
    8046    8037    8049    8055       1    8046    8037    8049    8058       1
    8046    8037    8049    8061       1    8043    8034    8037    8046       1
    8043    8034    8037    8049       2    8043    8034    8037    8052       1
    8040    8034    8037    8046       1    8040    8034    8037    8049       2
    8040    8034    8037    8052       1    8034    8037    8049    8055       2
    8034    8037    8049    8058       2    8034    8037    8049    8061       2
    8031    8019    8034    8037       2    8031    8019    8034    8040       1
    8031    8019    8034    8043       1    8028    8019    8034    8037       2
    8028    8019    8034    8040       1    8028    8019    8034    8043       1
    8025    8010    8019    8028       1    8025    8010    8019    8031       1
    8025    8010    8019    8034       2    8022    8010    8019    8028       1
    8022    8010    8019    8031       1    8022    8010    8019    8034       2
    8019    8034    8037    8046       2    8019    8034    8037    8052       2
    8016    8001    8010    8019       2    8016    8001    8010    8022       1
    8016    8001    8010    8025       1    8013    8001    8010    8019       2
    8013    8001    8010    8022       1    8013    8001    8010    8025       1
    8010    8019    8034    8040       2    8010    8019    8034    8043       2
    8007    7992    8001    8010       2    8007    7992    8001    8013       1
    8007    7992    8001    8016       1    8004    7992    8001    8010       2
    8004    7992    8001    8013       1    8004    7992    8001    8016       1
    8001    8010    8019    8028       2    8001    8010    8019    8031       2
    7998    7980    7992    8001       2    7998    7980    7992    8004       1
    7998    7980    7992    8007       1    7995    7980    7992    8001       2
    7995    7980    7992    8004       1    7995    7980    7992    8007       1
    7992    8001    8010    8022       2    7992    8001    8010    8025       2
    7986    7962    7980    7992       2    7986    7962    7980    7995       1
    7986    7962    7980    7998       1    7983    7962    7980    7992       2
    7983    7962    7980    7995       1    7983    7962    7980    7998       1
    7980    7992    8001    8013       2    7980    7992    8001    8016       2
    7977    7956    7971    7989       4    7974    7950    7971    7989       4
    7968    7947    7962    7980       2    7968    7947    7962    7983       1
    7968    7947    7962    7986       1    7965    7947    7962    7980       2
    7965    7947    7962    7983       1    7965    7947    7962    7986       1
    7962    7980    7992    8004       2    7962    7980    7992    8007       2
    7959    7944    7956    7971       4    7959    7944    7956    7977       4
    7956    7971    7950    7974       4    7953    7941    7950    7971       4
    7953    7941    7950    7974       4    7950    7971    7956    7977       4
    7947    7962    7980    7995       2    7947    7962    7980    7998       2
    7944    7923    7941    7953       4    7944    7956    7971    7989       4
    7941    7923    7944    7959       4    7941    7950    7971    7989       4
    7935    7917    7929    7947       4    7932    7911    7929    7947       4
    7929    7947    7962    7983       5    7929    7947    7962    7986       5
    7926    7908    7920    7938       4    7923    7902    7920    7938       4
    7923    7941    7950    7974       4    7923    7944    7956    7977       4
    7917    7929    7911    7932       4    7917    7929    7947    7965       8
    7917    7929    7947    7968       8    7914    7893    7911    7929       4
    7914    7893    7911    7932       4    7911    7929    7917    7935       4
    7911    7929    7947    7965       8    7911    7929    7947    7968       8
    7905    7887    7902    7920       4    7905    7887    7902    7923       4
    7902    7920    7908    7926       4    7902    7923    7941    7953       4
    7902    7923    7944    7959       4    7899    7896    7917    7935       4
    7896    7881    7893    7914       4    7890    7878    7887    7905       4
    7890    7908    7920    7938       4    7887    7902    7920    7938       4
    7884    7890    7908    7926       4    7881    7893    7911    7932       4
    7881    7896    7917    7935       4    7878    7890    7908    7926       4
    7875    7881    7893    7914       4    7872    7878    7887    7905       4
    8244    8229    8241    8247       1    8244    8229    8241    8250       1
    8244    8229    8241    8253       1    8238    8229    8241    8247       1
    8238    8229    8241    8250       1    8238    8229    8241    8253       1
    8235    8226    8229    8238       1    8235    8226    8229    8241       2
    8235    8226    8229    8244       1    8232    8226    8229    8238       1
    8232    8226    8229    8241       2    8232    8226    8229    8244       1
    8226    8229    8241    8247       2    8226    8229    8241    8250       2
    8226    8229    8241    8253       2    8223    8211    8226    8229       2
    8223    8211    8226    8232       1    8223    8211    8226    8235       1
    8220    8211    8226    8229       2    8220    8211    8226    8232       1
    8220    8211    8226    8235       1    8217    8202    8211    8220       1
    8217    8202    8211    8223       1    8217    8202    8211    8226       2
    8214    8202    8211    8220       1    8214    8202    8211    8223       1
    8214    8202    8211    8226       2    8211    8226    8229    8238       2
    8211    8226    8229    8244       2    8208    8193    8202    8211       2
    8208    8193    8202    8214       1    8208    8193    8202    8217       1
    8205    8193    8202    8211       2    8205    8193    8202    8214       1
    8205    8193    8202    8217       1    8202    8211    8226    8232       2
    8202    8211    8226    8235       2    8199    8184    8193    8202       2
    8199    8184    8193    8205       1    8199    8184    8193    8208       1
    8196    8184    8193    8202       2    8196    8184    8193    8205       1
    8196    8184    8193    8208       1    8193    8202    8211    8220       2
    8193    8202    8211    8223       2    8190    8172    8184    8193       2
    8190    8172    8184    8196       1    8190    8172    8184    8199       1
    8187    8172    8184    8193       2    8187    8172    8184    8196       1
    8187    8172    8184    8199       1    8184    8193    8202    8214       2
    8184    8193    8202    8217       2    8178    8154    8172    8184       2
    8178    8154    8172    8187       1    8178    8154    8172    8190       1
    8175    8154    8172    8184       2    8175    8154    8172    8187       1
    8175    8154    8172    8190       1    8172    8184    8193    8205       2
    8172    8184    8193    8208       2    8169    8148    8163    8181       4
    8166    8142    8163    8181       4    8160    8139    8154    8172       2
    8160    8139    8154    8175       1    8160    8139    8154    8178       1
    8157    8139    8154    8172       2    8157    8139    8154    8175       1
    8157    8139    8154    8178       1    8154    8172    8184    8196       2
    8154    8172    8184    8199       2    8151    8136    8148    8163       4
    8151    8136    8148    8169       4    8148    8163    8142    8166       4
    8145    8133    8142    8163       4    8145    8133    8142    8166       4
    8142    8163    8148    8169       4    8139    8154    8172    8187       2
    8139    8154    8172    8190       2    8136    8115    8133    8145       4
    8136    8148    8163    8181       4    8133    8115    8136    8151       4
    8133    8142    8163    8181       4    8127    8109    8121    8139       4
    8124    8103    8121    8139       4    8121    8139    8154    8175       5
    8121    8139    8154    8178       5    8118    8100    8112    8130       4
    8115    8094    8112    8130       4    8115    8133    8142    8166       4
    8115    8136    8148    8169       4    8109    8121    8103    8124       4
    8109    8121    8139    8157       8    8109    8121    8139    8160       8
    8106    8085    8103    8121       4    8106    8085    8103    8124       4
    8103    8121    8109    8127       4    8103    8121    8139    8157       8
    8103    8121    8139    8160       8    8097    8079    8094    8112       4
    8097    8079    8094    8115       4    8094    8112    8100    8118       4
    8094    8115    8133    8145       4    8094    8115    8136    8151       4
    8091    8088    8109    8127       4    8088    8073    8085    8106       4
    8082    8070    8079    8097       4    8082    8100    8112    8130       4
    8079    8094    8112    8130       4    8076    8082    8100    8118       4
    8073    8085    8103    8124       4    8073    8088    8109    8127       4
    8070    8082    8100    8118       4    8067    8073    8085    8106       4
    8064    8070    8079    8097       4    8436    8421    8433    8439       1
    8436    8421    8433    8442       1    8436    8421    8433    8445       1
    8430    8421    8433    8439       1    8430    8421    8433    8442       1
    8430    8421    8433    8445       1    8427    8418    8421    8430       1
    8427    8418    8421    8433       2    8427    8418    8421    8436       1
    8424    8418    8421    8430       1    8424    8418    8421    8433       2
    8424    8418    8421    8436       1    8418    8421    8433    8439       2
    8418    8421    8433    8442       2    8418    8421    8433    8445       2
    8415    8403    8418    8421       2    8415    8403    8418    8424       1
    8415    8403    8418    8427       1    8412    8403    8418    8421       2
    8412    8403    8418    8424       1    8412    8403    8418    8427       1
    8409    8394    8403    8412       1    8409    8394    8403    8415       1
    8409    8394    8403    8418       2    8406    8394    8403    8412       1
    8406    8394    8403    8415       1    8406    8394    8403    8418       2
    8403    8418    8421    8430       2    8403    8418    8421    8436       2
    8400    8385    8394    8403       2    8400    8385    8394    8406       1
    8400    8385    8394    8409       1    8397    8385    8394    8403       2
    8397    8385    8394    8406       1    8397    8385    8394    8409       1
    8394    8403    8418    8424       2    8394    8403    8418    8427       2
    8391    8376    8385    8394       2    8391    8376    8385    8397       1
    8391    8376    8385    8400       1    8388    8376    8385    8394       2
    8388    8376    8385    8397       1    8388    8376    8385    8400       1
    8385    8394    8403    8412       2    8385    8394    8403    8415       2
    8382    8364    8376    8385       2    8382    8364    8376    8388       1
    8382    8364    8376    8391       1    8379    8364    8376    8385       2
    8379    8364    8376    8388       1    8379    8364    8376    8391       1
    8376    8385    8394    8406       2    8376    8385    8394    8409       2
    8370    8346    8364    8376       2    8370    8346    8364    8379       1
    8370    8346    8364    8382       1    8367    8346    8364    8376       2
    8367    8346    8364    8379       1    8367    8346    8364    8382       1
    8364    8376    8385    8397       2    8364    8376    8385    8400       2
    8361    8340    8355    8373       4    8358    8334    8355    8373       4
    8352    8331    8346    8364       2    8352    8331    8346    8367       1
    8352    8331    8346    8370       1    8349    8331    8346    8364       2
    8349    8331    8346    8367       1    8349    8331    8346    8370       1
    8346    8364    8376    8388       2    8346    8364    8376    8391       2
    8343    8328    8340    8355       4    8343    8328    8340    8361       4
    8340    8355    8334    8358       4    8337    8325    8334    8355       4
    8337    8325    8334    8358       4    8334    8355    8340    8361       4
    8331    8346    8364    8379       2    8331    8346    8364    8382       2
    8328    8307    8325    8337       4    8328    8340    8355    8373       4
    8325    8307    8328    8343       4    8325    8334    8355    8373       4
    8319    8301    8313    8331       4    8316    8295    8313    8331       4
    8313    8331    8346    8367       5    8313    8331    8346    8370       5
    8310    8292    8304    8322       4    8307    8286    8304    8322       4
    8307    8325    8334    8358       4    8307    8328    8340    8361       4
    8301    8313    8295    8316       4    8301    8313    8331    8349       8
    8301    8313    8331    8352       8    8298    8277    8295    8313       4
    8298    8277    8295    8316       4    8295    8313    8301    8319       4
    8295    8313    8331    8349       8    8295    8313    8331    8352       8
    8289    8271    8286    8304       4    8289    8271    8286    8307       4
    8286    8304    8292    8310       4    8286    8307    8325    8337       4
    8286    8307    8328    8343       4    8283    8280    8301    8319       4
    8280    8265    8277    8298       4    8274    8262    8271    8289       4
    8274    8292    8304    8322       4    8271    8286    8304    8322       4
    8268    8274    8292    8310       4    8265    8277    8295    8316       4
    8265    8280    8301    8319       4    8262    8274    8292    8310       4
    8259    8265    8277    8298       4    8256    8262    8271    8289       4
    8628    8613    8625    8631       1    8628    8613    8625    8634       1
    8628    8613    8625    8637       1    8622    8613    8625    8631       1
    8622    8613    8625    8634       1    8622    8613    8625    8637       1
    8619    8610    8613    8622       1    8619    8610    8613    8625       2
    8619    8610    8613    8628       1    8616    8610    8613    8622       1
    8616    8610    8613    8625       2    8616    8610    8613    8628       1
    8610    8613    8625    8631       2    8610    8613    8625    8634       2
    8610    8613    8625    8637       2    8607    8595    8610    8613       2
    8607    8595    8610    8616       1    8607    8595    8610    8619       1
    8604    8595    8610    8613       2    8604    8595    8610    8616       1
    8604    8595    8610    8619       1    8601    8586    8595    8604       1
    8601    8586    8595    8607       1    8601    8586    8595    8610       2
    8598    8586    8595    8604       1    8598    8586    8595    8607       1
    8598    8586    8595    8610       2    8595    8610    8613    8622       2
    8595    8610    8613    8628       2    8592    8577    8586    8595       2
    8592    8577    8586    8598       1    8592    8577    8586    8601       1
    8589    8577    8586    8595       2    8589    8577    8586    8598       1
    8589    8577    8586    8601       1    8586    8595    8610    8616       2
    8586    8595    8610    8619       2    8583    8568    8577    8586       2
    8583    8568    8577    8589       1    8583    8568    8577    8592       1
    8580    8568    8577    8586       2    8580    8568    8577    8589       1
    8580    8568    8577    8592       1    8577    8586    8595    8604       2
    8577    8586    8595    8607       2    8574    8556    8568    8577       2
    8574    8556    8568    8580       1    8574    8556    8568    8583       1
    8571    8556    8568    8577       2    8571    8556    8568    8580       1
    8571    8556    8568    8583       1    8568    8577    8586    8598       2
    8568    8577    8586    8601       2    8562    8538    8556    8568       2
    8562    8538    8556    8571       1    8562    8538    8556    8574       1
    8559    8538    8556    8568       2    8559    8538    8556    8571       1
    8559    8538    8556    8574       1    8556    8568    8577    8589       2
    8556    8568    8577    8592       2    8553    8532    8547    8565       4
    8550    8526    8547    8565       4    8544    8523    8538    8556       2
    8544    8523    8538    8559       1    8544    8523    8538    8562       1
    8541    8523    8538    8556       2    8541    8523    8538    8559       1
    8541    8523    8538    8562       1    8538    8556    8568    8580       2
    8538    8556    8568    8583       2    8535    8520    8532    8547       4
    8535    8520    8532    8553       4    8532    8547    8526    8550       4
    8529    8517    8526    8547       4    8529    8517    8526    8550       4
    8526    8547    8532    8553       4    8523    8538    8556    8571       2
    8523    8538    8556    8574       2    8520    8499    8517    8529       4
    8520    8532    8547    8565       4    8517    8499    8520    8535       4
    8517    8526    8547    8565       4    8511    8493    8505    8523       4
    8508    8487    8505    8523       4    8505    8523    8538    8559       5
    8505    8523    8538    8562       5    8502    8484    8496    8514       4
    8499    8478    8496    8514       4    8499    8517    8526    8550       4
    8499    8520    8532    8553       4    8493    8505    8487    8508       4
    8493    8505    8523    8541       8    8493    8505    8523    8544       8
    8490    8469    8487    8505       4    8490    8469    8487    8508       4
    8487    8505    8493    8511       4    8487    8505    8523    8541       8
    8487    8505    8523    8544       8    8481    8463    8478    8496       4
    8481    8463    8478    8499       4    8478    8496    8484    8502       4
    8478    8499    8517    8529       4    8478    8499    8520    8535       4
    8475    8472    8493    8511       4    8472    8457    8469    8490       4
    8466    8454    8463    8481       4    8466    8484    8496    8514       4
    8463    8478    8496    8514       4    8460    8466    8484    8502       4
    8457    8469    8487    8508       4    8457    8472    8493    8511       4
    8454    8466    8484    8502       4    8451    8457    8469    8490       4
    8448    8454    8463    8481       4    8820    8805    8817    8823       1
    8820    8805    8817    8826       1    8820    8805    8817    8829       1
    8814    8805    8817    8823       1    8814    8805    8817    8826       1
    8814    8805    8817    8829       1    8811    8802    8805    8814       1
    8811    8802    8805    8817       2    8811    8802    8805    8820       1
    8808    8802    8805    8814       1    8808    8802    8805    8817       2
    8808    8802    8805    8820       1    8802    8805    8817    8823       2
    8802    8805    8817    8826       2    8802    8805    8817    8829       2
    8799    8787    8802    8805       2    8799    8787    8802    8808       1
    8799    8787    8802    8811       1    8796    8787    8802    8805       2
    8796    8787    8802    8808       1    8796    8787    8802    8811       1
    8793    8778    8787    8796       1    8793    8778    8787    8799       1
    8793    8778    8787    8802       2    8790    8778    8787    8796       1
    8790    8778    8787    8799       1    8790    8778    8787    8802       2
    8787    8802    8805    8814       2    8787    8802    8805    8820       2
    8784    8769    8778    8787       2    8784    8769    8778    8790       1
    8784    8769    8778    8793       1    8781    8769    8778    8787       2
    8781    8769    8778    8790       1    8781    8769    8778    8793       1
    8778    8787    8802    8808       2    8778    8787    8802    8811       2
    8775    8760    8769    8778       2    8775    8760    8769    8781       1
    8775    8760    8769    8784       1    8772    8760    8769    8778       2
    8772    8760    8769    8781       1    8772    8760    8769    8784       1
    8769    8778    8787    8796       2    8769    8778    8787    8799       2
    8766    8748    8760    8769       2    8766    8748    8760    8772       1
    8766    8748    8760    8775       1    8763    8748    8760    8769       2
    8763    8748    8760    8772       1    8763    8748    8760    8775       1
    8760    8769    8778    8790       2    8760    8769    8778    8793       2
    8754    8730    8748    8760       2    8754    8730    8748    8763       1
    8754    8730    8748    8766       1    8751    8730    8748    8760       2
    8751    8730    8748    8763       1    8751    8730    8748    8766       1
    8748    8760    8769    8781       2    8748    8760    8769    8784       2
    8745    8724    8739    8757       4    8742    8718    8739    8757       4
    8736    8715    8730    8748       2    8736    8715    8730    8751       1
    8736    8715    8730    8754       1    8733    8715    8730    8748       2
    8733    8715    8730    8751       1    8733    8715    8730    8754       1
    8730    8748    8760    8772       2    8730    8748    8760    8775       2
    8727    8712    8724    8739       4    8727    8712    8724    8745       4
    8724    8739    8718    8742       4    8721    8709    8718    8739       4
    8721    8709    8718    8742       4    8718    8739    8724    8745       4
    8715    8730    8748    8763       2    8715    8730    8748    8766       2
    8712    8691    8709    8721       4    8712    8724    8739    8757       4
    8709    8691    8712    8727       4    8709    8718    8739    8757       4
    8703    8685    8697    8715       4    8700    8679    8697    8715       4
    8697    8715    8730    8751       5    8697    8715    8730    8754       5
    8694    8676    8688    8706       4    8691    8670    8688    8706       4
    8691    8709    8718    8742       4    8691    8712    8724    8745       4
    8685    8697    8679    8700       4    8685    8697    8715    8733       8
    8685    8697    8715    8736       8    8682    8661    8679    8697       4
    8682    8661    8679    8700       4    8679    8697    8685    8703       4
    8679    8697    8715    8733       8    8679    8697    8715    8736       8
    8673    8655    8670    8688       4    8673    8655    8670    8691       4
    8670    8688    8676    8694       4    8670    8691    8709    8721       4
    8670    8691    8712    8727       4    8667    8664    8685    8703       4
    8664    8649    8661    8682       4    8658    8646    8655    8673       4
    8658    8676    8688    8706       4    8655    8670    8688    8706       4
    8652    8658    8676    8694       4    8649    8661    8679    8700       4
    8649    8664    8685    8703       4    8646    8658    8676    8694       4
    8643    8649    8661    8682       4    8640    8646    8655    8673       4
    9012    8997    9009    9015       1    9012    8997    9009    9018       1
    9012    8997    9009    9021       1    9006    8997    9009    9015       1
    9006    8997    9009    9018       1    9006    8997    9009    9021       1
    9003    8994    8997    9006       1    9003    8994    8997    9009       2
    9003    8994    8997    9012       1    9000    8994    8997    9006       1
    9000    8994    8997    9009       2    9000    8994    8997    9012       1
    8994    8997    9009    9015       2    8994    8997    9009    9018       2
    8994    8997    9009    9021       2    8991    8979    8994    8997       2
    8991    8979    8994    9000       1    8991    8979    8994    9003       1
    8988    8979    8994    8997       2    8988    8979    8994    9000       1
    8988    8979    8994    9003       1    8985    8970    8979    8988       1
    8985    8970    8979    8991       1    8985    8970    8979    8994       2
    8982    8970    8979    8988       1    8982    8970    8979    8991       1
    8982    8970    8979    8994       2    8979    8994    8997    9006       2
    8979    8994    8997    9012       2    8976    8961    8970    8979       2
    8976    8961    8970    8982       1    8976    8961    8970    8985       1
    8973    8961    8970    8979       2    8973    8961    8970    8982       1
    8973    8961    8970    8985       1    8970    8979    8994    9000       2
    8970    8979    8994    9003       2    8967    8952    8961    8970       2
    8967    8952    8961    8973       1    8967    8952    8961    8976       1
    8964    8952    8961    8970       2    8964    8952    8961    8973       1
    8964    8952    8961    8976       1    8961    8970    8979    8988       2
    8961    8970    8979    8991       2    8958    8940    8952    8961       2
    8958    8940    8952    8964       1    8958    8940    8952    8967       1
    8955    8940    8952    8961       2    8955    8940    8952    8964       1
    8955    8940    8952    8967       1    8952    8961    8970    8982       2
    8952    8961    8970    8985       2    8946    8922    8940    8952       2
    8946    8922    8940    8955       1    8946    8922    8940    8958       1
    8943    8922    8940    8952       2    8943    8922    8940    8955       1
    8943    8922    8940    8958       1    8940    8952    8961    8973       2
    8940    8952    8961    8976       2    8937    8916    8931    8949       4
    8934    8910    8931    8949       4    8928    8907    8922    8940       2
    8928    8907    8922    8943       1    8928    8907    8922    8946       1
    8925    8907    8922    8940       2    8925    8907    8922    8943       1
    8925    8907    8922    8946       1    8922    8940    8952    8964       2
    8922    8940    8952    8967       2    8919    8904    8916    8931       4
    8919    8904    8916    8937       4    8916    8931    8910    8934       4
    8913    8901    8910    8931       4    8913    8901    8910    8934       4
    8910    8931    8916    8937       4    8907    8922    8940    8955       2
    8907    8922    8940    8958       2    8904    8883    8901    8913       4
    8904    8916    8931    8949       4    8901    8883    8904    8919       4
    8901    8910    8931    8949       4    8895    8877    8889    8907       4
    8892    8871    8889    8907       4    8889    8907    8922    8943       5
    8889    8907    8922    8946       5    8886    8868    8880    8898       4
    8883    8862    8880    8898       4    8883    8901    8910    8934       4
    8883    8904    8916    8937       4    8877    8889    8871    8892       4
    8877    8889    8907    8925       8    8877    8889    8907    8928       8
    8874    8853    8871    8889       4    8874    8853    8871    8892       4
    8871    8889    8877    8895       4    8871    8889    8907    8925       8
    8871    8889    8907    8928       8    8865    8847    8862    8880       4
    8865    8847    8862    8883       4    8862    8880    8868    8886       4
    8862    8883    8901    8913       4    8862    8883    8904    8919       4
    8859    8856    8877    8895       4    8856    8841    8853    8874       4
    8850    8838    8847    8865       4    8850    8868    8880    8898       4
    8847    8862    8880    8898       4    8844    8850    8868    8886       4
    8841    8853    8871    8892       4    8841    8856    8877    8895       4
    8838    8850    8868    8886       4    8835    8841    8853    8874       4
    8832    8838    8847    8865       4    9204    9189    9201    9207       1
    9204    9189    9201    9210       1    9204    9189    9201    9213       1
    9198    9189    9201    9207       1    9198    9189    9201    9210       1
    9198    9189    9201    9213       1    9195    9186    9189    9198       1
    9195    9186    9189    9201       2    9195    9186    9189    9204       1
    9192    9186    9189    9198       1    9192    9186    9189    9201       2
    9192    9186    9189    9204       1    9186    9189    9201    9207       2
    9186    9189    9201    9210       2    9186    9189    9201    9213       2
    9183    9171    9186    9189       2    9183    9171    9186    9192       1
    9183    9171    9186    9195       1    9180    9171    9186    9189       2
    9180    9171    9186    9192       1    9180    9171    9186    9195       1
    9177    9162    9171    9180       1    9177    9162    9171    9183       1
    9177    9162    9171    9186       2    9174    9162    9171    9180       1
    9174    9162    9171    9183       1    9174    9162    9171    9186       2
    9171    9186    9189    9198       2    9171    9186    9189    9204       2
    9168    9153    9162    9171       2    9168    9153    9162    9174       1
    9168    9153    9162    9177       1    9165    9153    9162    9171       2
    9165    9153    9162    9174       1    9165    9153    9162    9177       1
    9162    9171    9186    9192       2    9162    9171    9186    9195       2
    9159    9144    9153    9162       2    9159    9144    9153    9165       1
    9159    9144    9153    9168       1    9156    9144    9153    9162       2
    9156    9144    9153    9165       1    9156    9144    9153    9168       1
    9153    9162    9171    9180       2    9153    9162    9171    9183       2
    9150    9132    9144    9153       2    9150    9132    9144    9156       1
    9150    9132    9144    9159       1    9147    9132    9144    9153       2
    9147    9132    9144    9156       1    9147    9132    9144    9159       1
    9144    9153    9162    9174       2    9144    9153    9162    9177       2
    9138    9114    9132    9144       2    9138    9114    9132    9147       1
    9138    9114    9132    9150       1    9135    9114    9132    9144       2
    9135    9114    9132    9147       1    9135    9114    9132    9150       1
    9132    9144    9153    9165       2    9132    9144    9153    9168       2
    9129    9108    9123    9141       4    9126    9102    9123    9141       4
    9120    9099    9114    9132       2    9120    9099    9114    9135       1
    9120    9099    9114    9138       1    9117    9099    9114    9132       2
    9117    9099    9114    9135       1    9117    9099    9114    9138       1
    9114    9132    9144    9156       2    9114    9132    9144    9159       2
    9111    9096    9108    9123       4    9111    9096    9108    9129       4
    9108    9123    9102    9126       4    9105    9093    9102    9123       4
    9105    9093    9102    9126       4    9102    9123    9108    9129       4
    9099    9114    9132    9147       2    9099    9114    9132    9150       2
    9096    9075    9093    9105       4    9096    9108    9123    9141       4
    9093    9075    9096    9111       4    9093    9102    9123    9141       4
    9087    9069    9081    9099       4    9084    9063    9081    9099       4
    9081    9099    9114    9135       5    9081    9099    9114    9138       5
    9078    9060    9072    9090       4    9075    9054    9072    9090       4
    9075    9093    9102    9126       4    9075    9096    9108    9129       4
    9069    9081    9063    9084       4    9069    9081    9099    9117       8
    9069    9081    9099    9120       8    9066    9045    9063    9081       4
    9066    9045    9063    9084       4    9063    9081    9069    9087       4
    9063    9081    9099    9117       8    9063    9081    9099    9120       8
    9057    9039    9054    9072       4    9057    9039    9054    9075       4
    9054    9072    9060    9078       4    9054    9075    9093    9105       4
    9054    9075    9096    9111       4    9051    9048    9069    9087       4
    9048    9033    9045    9066       4    9042    9030    9039    9057       4
    9042    9060    9072    9090       4    9039    9054    9072    9090       4
    9036    9042    9060    9078       4    9033    9045    9063    9084       4
    9033    9048    9069    9087       4    9030    9042    9060    9078       4
    9027    9033    9045    9066       4    9024    9030    9039    9057       4
    9396    9381    9393    9399       1    9396    9381    9393    9402       1
    9396    9381    9393    9405       1    9390    9381    9393    9399       1
    9390    9381    9393    9402       1    9390    9381    9393    9405       1
    9387    9378    9381    9390       1    9387    9378    9381    9393       2
    9387    9378    9381    9396       1    9384    9378    9381    9390       1
    9384    9378    9381    9393       2    9384    9378    9381    9396       1
    9378    9381    9393    9399       2    9378    9381    9393    9402       2
    9378    9381    9393    9405       2    9375    9363    9378    9381       2
    9375    9363    9378    9384       1    9375    9363    9378    9387       1
    9372    9363    9378    9381       2    9372    9363    9378    9384       1
    9372    9363    9378    9387       1    9369    9354    9363    9372       1
    9369    9354    9363    9375       1    9369    9354    9363    9378       2
    9366    9354    9363    9372       1    9366    9354    9363    9375       1
    9366    9354    9363    9378       2    9363    9378    9381    9390       2
    9363    9378    9381    9396       2    9360    9345    9354    9363       2
    9360    9345    9354    9366       1    9360    9345    9354    9369       1
    9357    9345    9354    9363       2    9357    9345    9354    9366       1
    9357    9345    9354    9369       1    9354    9363    9378    9384       2
    9354    9363    9378    9387       2    9351    9336    9345    9354       2
    9351    9336    9345    9357       1    9351    9336    9345    9360       1
    9348    9336    9345    9354       2    9348    9336    9345    9357       1
    9348    9336    9345    9360       1    9345    9354    9363    9372       2
    9345    9354    9363    9375       2    9342    9324    9336    9345       2
    9342    9324    9336    9348       1    9342    9324    9336    9351       1
    9339    9324    9336    9345       2    9339    9324    9336    9348       1
    9339    9324    9336    9351       1    9336    9345    9354    9366       2
    9336    9345    9354    9369       2    9330    9306    9324    9336       2
    9330    9306    9324    9339       1    9330    9306    9324    9342       1
    9327    9306    9324    9336       2    9327    9306    9324    9339       1
    9327    9306    9324    9342       1    9324    9336    9345    9357       2
    9324    9336    9345    9360       2    9321    9300    9315    9333       4
    9318    9294    9315    9333       4    9312    9291    9306    9324       2
    9312    9291    9306    9327       1    9312    9291    9306    9330       1
    9309    9291    9306    9324       2    9309    9291    9306    9327       1
    9309    9291    9306    9330       1    9306    9324    9336    9348       2
    9306    9324    9336    9351       2    9303    9288    9300    9315       4
    9303    9288    9300    9321       4    9300    9315    9294    9318       4
    9297    9285    9294    9315       4    9297    9285    9294    9318       4
    9294    9315    9300    9321       4    9291    9306    9324    9339       2
    9291    9306    9324    9342       2    9288    9267    9285    9297       4
    9288    9300    9315    9333       4    9285    9267    9288    9303       4
    9285    9294    9315    9333       4    9279    9261    9273    9291       4
    9276    9255    9273    9291       4    9273    9291    9306    9327       5
    9273    9291    9306    9330       5    9270    9252    9264    9282       4
    9267    9246    9264    9282       4    9267    9285    9294    9318       4
    9267    9288    9300    9321       4    9261    9273    9255    9276       4
    9261    9273    9291    9309       8    9261    9273    9291    9312       8
    9258    9237    9255    9273       4    9258    9237    9255    9276       4
    9255    9273    9261    9279       4    9255    9273    9291    9309       8
    9255    9273    9291    9312       8    9249    9231    9246    9264       4
    9249    9231    9246    9267       4    9246    9264    9252    9270       4
    9246    9267    9285    9297       4    9246    9267    9288    9303       4
    9243    9240    9261    9279       4    9240    9225    9237    9258       4
    9234    9222    9231    9249       4    9234    9252    9264    9282       4
    9231    9246    9264    9282       4    9228    9234    9252    9270       4
    9225    9237    9255    9276       4    9225    9240    9261    9279       4
    9222    9234    9252    9270       4    9219    9225    9237    9258       4
    9216    9222    9231    9249       4    9588    9573    9585    9591       1
    9588    9573    9585    9594       1    9588    9573    9585    9597       1
    9582    9573    9585    9591       1    9582    9573    9585    9594       1
    9582    9573    9585    9597       1    9579    9570    9573    9582       1
    9579    9570    9573    9585       2    9579    9570    9573    9588       1
    9576    9570    9573    9582       1    9576    9570    9573    9585       2
    9576    9570    9573    9588       1    9570    9573    9585    9591       2
    9570    9573    9585    9594       2    9570    9573    9585    9597       2
    9567    9555    9570    9573       2    9567    9555    9570    9576       1
    9567    9555    9570    9579       1    9564    9555    9570    9573       2
    9564    9555    9570    9576       1    9564    9555    9570    9579       1
    9561    9546    9555    9564       1    9561    9546    9555    9567       1
    9561    9546    9555    9570       2    9558    9546    9555    9564       1
    9558    9546    9555    9567       1    9558    9546    9555    9570       2
    9555    9570    9573    9582       2    9555    9570    9573    9588       2
    9552    9537    9546    9555       2    9552    9537    9546    9558       1
    9552    9537    9546    9561       1    9549    9537    9546    9555       2
    9549    9537    9546    9558       1    9549    9537    9546    9561       1
    9546    9555    9570    9576       2    9546    9555    9570    9579       2
    9543    9528    9537    9546       2    9543    9528    9537    9549       1
    9543    9528    9537    9552       1    9540    9528    9537    9546       2
    9540    9528    9537    9549       1    9540    9528    9537    9552       1
    9537    9546    9555    9564       2    9537    9546    9555    9567       2
    9534    9516    9528    9537       2    9534    9516    9528    9540       1
    9534    9516    9528    9543       1    9531    9516    9528    9537       2
    9531    9516    9528    9540       1    9531    9516    9528    9543       1
    9528    9537    9546    9558       2    9528    9537    9546    9561       2
    9522    9498    9516    9528       2    9522    9498    9516    9531       1
    9522    9498    9516    9534       1    9519    9498    9516    9528       2
    9519    9498    9516    9531       1    9519    9498    9516    9534       1
    9516    9528    9537    9549       2    9516    9528    9537    9552       2
    9513    9492    9507    9525       4    9510    9486    9507    9525       4
    9504    9483    9498    9516       2    9504    9483    9498    9519       1
    9504    9483    9498    9522       1    9501    9483    9498    9516       2
    9501    9483    9498    9519       1    9501    9483    9498    9522       1
    9498    9516    9528    9540       2    9498    9516    9528    9543       2
    9495    9480    9492    9507       4    9495    9480    9492    9513       4
    9492    9507    9486    9510       4    9489    9477    9486    9507       4
    9489    9477    9486    9510       4    9486    9507    9492    9513       4
    9483    9498    9516    9531       2    9483    9498    9516    9534       2
    9480    9459    9477    9489       4    9480    9492    9507    9525       4
    9477    9459    9480    9495       4    9477    9486    9507    9525       4
    9471    9453    9465    9483       4    9468    9447    9465    9483       4
    9465    9483    9498    9519       5    9465    9483    9498    9522       5
    9462    9444    9456    9474       4    9459    9438    9456    9474       4
    9459    9477    9486    9510       4    9459    9480    9492    9513       4
    9453    9465    9447    9468       4    9453    9465    9483    9501       8
    9453    9465    9483    9504       8    9450    9429    9447    9465       4
    9450    9429    9447    9468       4    9447    9465    9453    9471       4
    9447    9465    9483    9501       8    9447    9465    9483    9504       8
    9441    9423    9438    9456       4    9441    9423    9438    9459       4
    9438    9456    9444    9462       4    9438    9459    9477    9489       4
    9438    9459    9480    9495       4    9435    9432    9453    9471       4
    9432    9417    9429    9450       4    9426    9414    9423    9441       4
    9426    9444    9456    9474       4    9423    9438    9456    9474       4
    9420    9426    9444    9462       4    9417    9429    9447    9468       4
    9417    9432    9453    9471       4    9414    9426    9444    9462       4
    9411    9417    9429    9450       4    9408    9414    9423    9441       4
    9780    9765    9777    9783       1    9780    9765    9777    9786       1
    9780    9765    9777    9789       1    9774    9765    9777    9783       1
    9774    9765    9777    9786       1    9774    9765    9777    9789       1
    9771    9762    9765    9774       1    9771    9762    9765    9777       2
    9771    9762    9765    9780       1    9768    9762    9765    9774       1
    9768    9762    9765    9777       2    9768    9762    9765    9780       1
    9762    9765    9777    9783       2    9762    9765    9777    9786       2
    9762    9765    9777    9789       2    9759    9747    9762    9765       2
    9759    9747    9762    9768       1    9759    9747    9762    9771       1
    9756    9747    9762    9765       2    9756    9747    9762    9768       1
    9756    9747    9762    9771       1    9753    9738    9747    9756       1
    9753    9738    9747    9759       1    9753    9738    9747    9762       2
    9750    9738    9747    9756       1    9750    9738    9747    9759       1
    9750    9738    9747    9762       2    9747    9762    9765    9774       2
    9747    9762    9765    9780       2    9744    9729    9738    9747       2
    9744    9729    9738    9750       1    9744    9729    9738    9753       1
    9741    9729    9738    9747       2    9741    9729    9738    9750       1
    9741    9729    9738    9753       1    9738    9747    9762    9768       2
    9738    9747    9762    9771       2    9735    9720    9729    9738       2
    9735    9720    9729    9741       1    9735    9720    9729    9744       1
    9732    9720    9729    9738       2    9732    9720    9729    9741       1
    9732    9720    9729    9744       1    9729    9738    9747    9756       2
    9729    9738    9747    9759       2    9726    9708    9720    9729       2
    9726    9708    9720    9732       1    9726    9708    9720    9735       1
    9723    9708    9720    9729       2    9723    9708    9720    9732       1
    9723    9708    9720    9735       1    9720    9729    9738    9750       2
    9720    9729    9738    9753       2    9714    9690    9708    9720       2
    9714    9690    9708    9723       1    9714    9690    9708    9726       1
    9711    9690    9708    9720       2    9711    9690    9708    9723       1
    9711    9690    9708    9726       1    9708    9720    9729    9741       2
    9708    9720    9729    9744       2    9705    9684    9699    9717       4
    9702    9678    9699    9717       4    9696    9675    9690    9708       2
    9696    9675    9690    9711       1    9696    9675    9690    9714       1
    9693    9675    9690    9708       2    9693    9675    9690    9711       1
    9693    9675    9690    9714       1    9690    9708    9720    9732       2
    9690    9708    9720    9735       2    9687    9672    9684    9699       4
    9687    9672    9684    9705       4    9684    9699    9678    9702       4
    9681    9669    9678    9699       4    9681    9669    9678    9702       4
    9678    9699    9684    9705       4    9675    9690    9708    9723       2
    9675    9690    9708    9726       2    9672    9651    9669    9681       4
    9672    9684    9699    9717       4    9669    9651    9672    9687       4
    9669    9678    9699    9717       4    9663    9645    9657    9675       4
    9660    9639    9657    9675       4    9657    9675    9690    9711       5
    9657    9675    9690    9714       5    9654    9636    9648    9666       4
    9651    9630    9648    9666       4    9651    9669    9678    9702       4
    9651    9672    9684    9705       4    9645    9657    9639    9660       4
    9645    9657    9675    9693       8    9645    9657    9675    9696       8
    9642    9621    9639    9657       4    9642    9621    9639    9660       4
    9639    9657    9645    9663       4    9639    9657    9675    9693       8
    9639    9657    9675    9696       8    9633    9615    9630    9648       4
    9633    9615    9630    9651       4    9630    9648    9636    9654       4
    9630    9651    9669    9681       4    9630    9651    9672    9687       4
    9627    9624    9645    9663       4    9624    9609    9621    9642       4
    9618    9606    9615    9633       4    9618    9636    9648    9666       4
    9615    9630    9648    9666       4    9612    9618    9636    9654       4
    9609    9621    9639    9660       4    9609    9624    9645    9663       4
    9606    9618    9636    9654       4    9603    9609    9621    9642       4
    9600    9606    9615    9633       4    9972    9957    9969    9975       1
    9972    9957    9969    9978       1    9972    9957    9969    9981       1
    9966    9957    9969    9975       1    9966    9957    9969    9978       1
    9966    9957    9969    9981       1    9963    9954    9957    9966       1
    9963    9954    9957    9969       2    9963    9954    9957    9972       1
    9960    9954    9957    9966       1    9960    9954    9957    9969       2
    9960    9954    9957    9972       1    9954    9957    9969    9975       2
    9954    9957    9969    9978       2    9954    9957    9969    9981       2
    9951    9939    9954    9957       2    9951    9939    9954    9960       1
    9951    9939    9954    9963       1    9948    9939    9954    9957       2
    9948    9939    9954    9960       1    9948    9939    9954    9963       1
    9945    9930    9939    9948       1    9945    9930    9939    9951       1
    9945    9930    9939    9954       2    9942    9930    9939    9948       1
    9942    9930    9939    9951       1    9942    9930    9939    9954       2
    9939    9954    9957    9966       2    9939    9954    9957    9972       2
    9936    9921    9930    9939       2    9936    9921    9930    9942       1
    9936    9921    9930    9945       1    9933    9921    9930    9939       2
    9933    9921    9930    9942       1    9933    9921    9930    9945       1
    9930    9939    9954    9960       2    9930    9939    9954    9963       2
    9927    9912    9921    9930       2    9927    9912    9921    9933       1
    9927    9912    9921    9936       1    9924    9912    9921    9930       2
    9924    9912    9921    9933       1    9924    9912    9921    9936       1
    9921    9930    9939    9948       2    9921    9930    9939    9951       2
    9918    9900    9912    9921       2    9918    9900    9912    9924       1
    9918    9900    9912    9927       1    9915    9900    9912    9921       2
    9915    9900    9912    9924       1    9915    9900    9912    9927       1
    9912    9921    9930    9942       2    9912    9921    9930    9945       2
    9906    9882    9900    9912       2    9906    9882    9900    9915       1
    9906    9882    9900    9918       1    9903    9882    9900    9912       2
    9903    9882    9900    9915       1    9903    9882    9900    9918       1
    9900    9912    9921    9933       2    9900    9912    9921    9936       2
    9897    9876    9891    9909       4    9894    9870    9891    9909       4
    9888    9867    9882    9900       2    9888    9867    9882    9903       1
    9888    9867    9882    9906       1    9885    9867    9882    9900       2
    9885    9867    9882    9903       1    9885    9867    9882    9906       1
    9882    9900    9912    9924       2    9882    9900    9912    9927       2
    9879    9864    9876    9891       4    9879    9864    9876    9897       4
    9876    9891    9870    9894       4    9873    9861    9870    9891       4
    9873    9861    9870    9894       4    9870    9891    9876    9897       4
    9867    9882    9900    9915       2    9867    9882    9900    9918       2
    9864    9843    9861    9873       4    9864    9876    9891    9909       4
    9861    9843    9864    9879       4    9861    9870    9891    9909       4
    9855    9837    9849    9867       4    9852    9831    9849    9867       4
    9849    9867    9882    9903       5    9849    9867    9882    9906       5
    9846    9828    9840    9858       4    9843    9822    9840    9858       4
    9843    9861    9870    9894       4    9843    9864    9876    9897       4
    9837    9849    9831    9852       4    9837    9849    9867    9885       8
    9837    9849    9867    9888       8    9834    9813    9831    9849       4
    9834    9813    9831    9852       4    9831    9849    9837    9855       4
    9831    9849    9867    9885       8    9831    9849    9867    9888       8
    9825    9807    9822    9840       4    9825    9807    9822    9843       4
    9822    9840    9828    9846       4    9822    9843    9861    9873       4
    9822    9843    9864    9879       4    9819    9816    9837    9855       4
    9816    9801    9813    9834       4    9810    9798    9807    9825       4
    9810    9828    9840    9858       4    9807    9822    9840    9858       4
    9804    9810    9828    9846       4    9801    9813    9831    9852       4
    9801    9816    9837    9855       4    9798    9810    9828    9846       4
    9795    9801    9813    9834       4    9792    9798    9807    9825       4
   10164   10149   10161   10167       1   10164   10149   10161   10170       1
   10164   10149   10161   10173       1   10158   10149   10161   10167       1
   10158   10149   10161   10170       1   10158   10149   10161   10173       1
   10155   10146   10149   10158       1   10155   10146   10149   10161       2
   10155   10146   10149   10164       1   10152   10146   10149   10158       1
   10152   10146   10149   10161       2   10152   10146   10149   10164       1
   10146   10149   10161   10167       2   10146   10149   10161   10170       2
   10146   10149   10161   10173       2   10143   10131   10146   10149       2
   10143   10131   10146   10152       1   10143   10131   10146   10155       1
   10140   10131   10146   10149       2   10140   10131   10146   10152       1
   10140   10131   10146   10155       1   10137   10122   10131   10140       1
   10137   10122   10131   10143       1   10137   10122   10131   10146       2
   10134   10122   10131   10140       1   10134   10122   10131   10143       1
   10134   10122   10131   10146       2   10131   10146   10149   10158       2
   10131   10146   10149   10164       2   10128   10113   10122   10131       2
   10128   10113   10122   10134       1   10128   10113   10122   10137       1
   10125   10113   10122   10131       2   10125   10113   10122   10134       1
   10125   10113   10122   10137       1   10122   10131   10146   10152       2
   10122   10131   10146   10155       2   10119   10104   10113   10122       2
   10119   10104   10113   10125       1   10119   10104   10113   10128       1
   10116   10104   10113   10122       2   10116   10104   10113   10125       1
   10116   10104   10113   10128       1   10113   10122   10131   10140       2
   10113   10122   10131   10143       2   10110   10092   10104   10113       2
   10110   10092   10104   10116       1   10110   10092   10104   10119       1
   10107   10092   10104   10113       2   10107   10092   10104   10116       1
   10107   10092   10104   10119       1   10104   10113   10122   10134       2
   10104   10113   10122   10137       2   10098   10074   10092   10104       2
   10098   10074   10092   10107       1   10098   10074   10092   10110       1
   10095   10074   10092   10104       2   10095   10074   10092   10107       1
   10095   10074   10092   10110       1   10092   10104   10113   10125       2
   10092   10104   10113   10128       2   10089   10068   10083   10101       4
   10086   10062   10083   10101       4   10080   10059   10074   10092       2
   10080   10059   10074   10095       1   10080   10059   10074   10098       1
   10077   10059   10074   10092       2   10077   10059   10074   10095       1
   10077   10059   10074   10098       1   10074   10092   10104   10116       2
   10074   10092   10104   10119       2   10071   10056   10068   10083       4
   10071   10056   10068   10089       4   10068   10083   10062   10086       4
   10065   10053   10062   10083       4   10065   10053   10062   10086       4
   10062   10083   10068   10089       4   10059   10074   10092   10107       2
   10059   10074   10092   10110       2   10056   10035   10053   10065       4
   10056   10068   10083   10101       4   10053   10035   10056   10071       4
   10053   10062   10083   10101       4   10047   10029   10041   10059       4
   10044   10023   10041   10059       4   10041   10059   10074   10095       5
   10041   10059   10074   10098       5   10038   10020   10032   10050       4
   10035   10014   10032   10050       4   10035   10053   10062   10086       4
   10035   10056   10068   10089       4   10029   10041   10023   10044       4
   10029   10041   10059   10077       8   10029   10041   10059   10080       8
   10026   10005   10023   10041       4   10026   10005   10023   10044       4
   10023   10041   10029   10047       4   10023   10041   10059   10077       8
   10023   10041   10059   10080       8   10017    9999   10014   10032       4
   10017    9999   10014   10035       4   10014   10032   10020   10038       4
   10014   10035   10053   10065       4   10014   10035   10056   10071       4
   10011   10008   10029   10047       4   10008    9993   10005   10026       4
   10002    9990    9999   10017       4   10002   10020   10032   10050       4
    9999   10014   10032   10050       4    9996   10002   10020   10038       4
    9993   10005   10023   10044       4    9993   10008   10029   10047       4
    9990   10002   10020   10038       4    9987    9993   10005   10026       4
    9984    9990    9999   10017       4   10356   10341   10353   10359       1
   10356   10341   10353   10362       1   10356   10341   10353   10365       1
   10350   10341   10353   10359       1   10350   10341   10353   10362       1
   10350   10341   10353   10365       1   10347   10338   10341   10350       1
   10347   10338   10341   10353       2   10347   10338   10341   10356       1
   10344   10338   10341   10350       1   10344   10338   10341   10353       2
   10344   10338   10341   10356       1   10338   10341   10353   10359       2
   10338   10341   10353   10362       2   10338   10341   10353   10365       2
   10335   10323   10338   10341       2   10335   10323   10338   10344       1
   10335   10323   10338   10347       1   10332   10323   10338   10341       2
   10332   10323   10338   10344       1   10332   10323   10338   10347       1
   10329   10314   10323   10332       1   10329   10314   10323   10335       1
   10329   10314   10323   10338       2   10326   10314   10323   10332       1
   10326   10314   10323   10335       1   10326   10314   10323   10338       2
   10323   10338   10341   10350       2   10323   10338   10341   10356       2
   10320   10305   10314   10323       2   10320   10305   10314   10326       1
   10320   10305   10314   10329       1   10317   10305   10314   10323       2
   10317   10305   10314   10326       1   10317   10305   10314   10329       1
   10314   10323   10338   10344       2   10314   10323   10338   10347       2
   10311   10296   10305   10314       2   10311   10296   10305   10317       1
   10311   10296   10305   10320       1   10308   10296   10305   10314       2
   10308   10296   10305   10317       1   10308   10296   10305   10320       1
   10305   10314   10323   10332       2   10305   10314   10323   10335       2
   10302   10284   10296   10305       2   10302   10284   10296   10308       1
   10302   10284   10296   10311       1   10299   10284   10296   10305       2
   10299   10284   10296   10308       1   10299   10284   10296   10311       1
   10296   10305   10314   10326       2   10296   10305   10314   10329       2
   10290   10266   10284   10296       2   10290   10266   10284   10299       1
   10290   10266   10284   10302       1   10287   10266   10284   10296       2
   10287   10266   10284   10299       1   10287   10266   10284   10302       1
   10284   10296   10305   10317       2   10284   10296   10305   10320       2
   10281   10260   10275   10293       4   10278   10254   10275   10293       4
   10272   10251   10266   10284       2   10272   10251   10266   10287       1
   10272   10251   10266   10290       1   10269   10251   10266   10284       2
   10269   10251   10266   10287       1   10269   10251   10266   10290       1
   10266   10284   10296   10308       2   10266   10284   10296   10311       2
   10263   10248   10260   10275       4   10263   10248   10260   10281       4
   10260   10275   10254   10278       4   10257   10245   10254   10275       4
   10257   10245   10254   10278       4   10254   10275   10260   10281       4
   10251   10266   10284   10299       2   10251   10266   10284   10302       2
   10248   10227   10245   10257       4   10248   10260   10275   10293       4
   10245   10227   10248   10263       4   10245   10254   10275   10293       4
   10239   10221   10233   10251       4   10236   10215   10233   10251       4
   10233   10251   10266   10287       5   10233   10251   10266   10290       5
   10230   10212   10224   10242       4   10227   10206   10224   10242       4
   10227   10245   10254   10278       4   10227   10248   10260   10281       4
   10221   10233   10215   10236       4   10221   10233   10251   10269       8
   10221   10233   10251   10272       8   10218   10197   10215   10233       4
   10218   10197   10215   10236       4   10215   10233   10221   10239       4
   10215   10233   10251   10269       8   10215   10233   10251   10272       8
   10209   10191   10206   10224       4   10209   10191   10206   10227       4
   10206   10224   10212   10230       4   10206   10227   10245   10257       4
   10206   10227   10248   10263       4   10203   10200   10221   10239       4
   10200   10185   10197   10218       4   10194   10182   10191   10209       4
   10194   10212   10224   10242       4   10191   10206   10224   10242       4
   10188   10194   10212   10230       4   10185   10197   10215   10236       4
   10185   10200   10221   10239       4   10182   10194   10212   10230       4
   10179   10185   10197   10218       4   10176   10182   10191   10209       4
   10548   10533   10545   10551       1   10548   10533   10545   10554       1
   10548   10533   10545   10557       1   10542   10533   10545   10551       1
   10542   10533   10545   10554       1   10542   10533   10545   10557       1
   10539   10530   10533   10542       1   10539   10530   10533   10545       2
   10539   10530   10533   10548       1   10536   10530   10533   10542       1
   10536   10530   10533   10545       2   10536   10530   10533   10548       1
   10530   10533   10545   10551       2   10530   10533   10545   10554       2
   10530   10533   10545   10557       2   10527   10515   10530   10533       2
   10527   10515   10530   10536       1   10527   10515   10530   10539       1
   10524   10515   10530   10533       2   10524   10515   10530   10536       1
   10524   10515   10530   10539       1   10521   10506   10515   10524       1
   10521   10506   10515   10527       1   10521   10506   10515   10530       2
   10518   10506   10515   10524       1   10518   10506   10515   10527       1
   10518   10506   10515   10530       2   10515   10530   10533   10542       2
   10515   10530   10533   10548       2   10512   10497   10506   10515       2
   10512   10497   10506   10518       1   10512   10497   10506   10521       1
   10509   10497   10506   10515       2   10509   10497   10506   10518       1
   10509   10497   10506   10521       1   10506   10515   10530   10536       2
   10506   10515   10530   10539       2   10503   10488   10497   10506       2
   10503   10488   10497   10509       1   10503   10488   10497   10512       1
   10500   10488   10497   10506       2   10500   10488   10497   10509       1
   10500   10488   10497   10512       1   10497   10506   10515   10524       2
   10497   10506   10515   10527       2   10494   10476   10488   10497       2
   10494   10476   10488   10500       1   10494   10476   10488   10503       1
   10491   10476   10488   10497       2   10491   10476   10488   10500       1
   10491   10476   10488   10503       1   10488   10497   10506   10518       2
   10488   10497   10506   10521       2   10482   10458   10476   10488       2
   10482   10458   10476   10491       1   10482   10458   10476   10494       1
   10479   10458   10476   10488       2   10479   10458   10476   10491       1
   10479   10458   10476   10494       1   10476   10488   10497   10509       2
   10476   10488   10497   10512       2   10473   10452   10467   10485       4
   10470   10446   10467   10485       4   10464   10443   10458   10476       2
   10464   10443   10458   10479       1   10464   10443   10458   10482       1
   10461   10443   10458   10476       2   10461   10443   10458   10479       1
   10461   10443   10458   10482       1   10458   10476   10488   10500       2
   10458   10476   10488   10503       2   10455   10440   10452   10467       4
   10455   10440   10452   10473       4   10452   10467   10446   10470       4
   10449   10437   10446   10467       4   10449   10437   10446   10470       4
   10446   10467   10452   10473       4   10443   10458   10476   10491       2
   10443   10458   10476   10494       2   10440   10419   10437   10449       4
   10440   10452   10467   10485       4   10437   10419   10440   10455       4
   10437   10446   10467   10485       4   10431   10413   10425   10443       4
   10428   10407   10425   10443       4   10425   10443   10458   10479       5
   10425   10443   10458   10482       5   10422   10404   10416   10434       4
   10419   10398   10416   10434       4   10419   10437   10446   10470       4
   10419   10440   10452   10473       4   10413   10425   10407   10428       4
   10413   10425   10443   10461       8   10413   10425   10443   10464       8
   10410   10389   10407   10425       4   10410   10389   10407   10428       4
   10407   10425   10413   10431       4   10407   10425   10443   10461       8
   10407   10425   10443   10464       8   10401   10383   10398   10416       4
   10401   10383   10398   10419       4   10398   10416   10404   10422       4
   10398   10419   10437   10449       4   10398   10419   10440   10455       4
   10395   10392   10413   10431       4   10392   10377   10389   10410       4
   10386   10374   10383   10401       4   10386   10404   10416   10434       4
   10383   10398   10416   10434       4   10380   10386   10404   10422       4
   10377   10389   10407   10428       4   10377   10392   10413   10431       4
   10374   10386   10404   10422       4   10371   10377   10389   10410       4
   10368   10374   10383   10401       4   10740   10725   10737   10743       1
   10740   10725   10737   10746       1   10740   10725   10737   10749       1
   10734   10725   10737   10743       1   10734   10725   10737   10746       1
   10734   10725   10737   10749       1   10731   10722   10725   10734       1
   10731   10722   10725   10737       2   10731   10722   10725   10740       1
   10728   10722   10725   10734       1   10728   10722   10725   10737       2
   10728   10722   10725   10740       1   10722   10725   10737   10743       2
   10722   10725   10737   10746       2   10722   10725   10737   10749       2
   10719   10707   10722   10725       2   10719   10707   10722   10728       1
   10719   10707   10722   10731       1   10716   10707   10722   10725       2
   10716   10707   10722   10728       1   10716   10707   10722   10731       1
   10713   10698   10707   10716       1   10713   10698   10707   10719       1
   10713   10698   10707   10722       2   10710   10698   10707   10716       1
   10710   10698   10707   10719       1   10710   10698   10707   10722       2
   10707   10722   10725   10734       2   10707   10722   10725   10740       2
   10704   10689   10698   10707       2   10704   10689   10698   10710       1
   10704   10689   10698   10713       1   10701   10689   10698   10707       2
   10701   10689   10698   10710       1   10701   10689   10698   10713       1
   10698   10707   10722   10728       2   10698   10707   10722   10731       2
   10695   10680   10689   10698       2   10695   10680   10689   10701       1
   10695   10680   10689   10704       1   10692   10680   10689   10698       2
   10692   10680   10689   10701       1   10692   10680   10689   10704       1
   10689   10698   10707   10716       2   10689   10698   10707   10719       2
   10686   10668   10680   10689       2   10686   10668   10680   10692       1
   10686   10668   10680   10695       1   10683   10668   10680   10689       2
   10683   10668   10680   10692       1   10683   10668   10680   10695       1
   10680   10689   10698   10710       2   10680   10689   10698   10713       2
   10674   10650   10668   10680       2   10674   10650   10668   10683       1
   10674   10650   10668   10686       1   10671   10650   10668   10680       2
   10671   10650   10668   10683       1   10671   10650   10668   10686       1
   10668   10680   10689   10701       2   10668   10680   10689   10704       2
   10665   10644   10659   10677       4   10662   10638   10659   10677       4
   10656   10635   10650   10668       2   10656   10635   10650   10671       1
   10656   10635   10650   10674       1   10653   10635   10650   10668       2
   10653   10635   10650   10671       1   10653   10635   10650   10674       1
   10650   10668   10680   10692       2   10650   10668   10680   10695       2
   10647   10632   10644   10659       4   10647   10632   10644   10665       4
   10644   10659   10638   10662       4   10641   10629   10638   10659       4
   10641   10629   10638   10662       4   10638   10659   10644   10665       4
   10635   10650   10668   10683       2   10635   10650   10668   10686       2
   10632   10611   10629   10641       4   10632   10644   10659   10677       4
   10629   10611   10632   10647       4   10629   10638   10659   10677       4
   10623   10605   10617   10635       4   10620   10599   10617   10635       4
   10617   10635   10650   10671       5   10617   10635   10650   10674       5
   10614   10596   10608   10626       4   10611   10590   10608   10626       4
   10611   10629   10638   10662       4   10611   10632   10644   10665       4
   10605   10617   10599   10620       4   10605   10617   10635   10653       8
   10605   10617   10635   10656       8   10602   10581   10599   10617       4
   10602   10581   10599   10620       4   10599   10617   10605   10623       4
   10599   10617   10635   10653       8   10599   10617   10635   10656       8
   10593   10575   10590   10608       4   10593   10575   10590   10611       4
   10590   10608   10596   10614       4   10590   10611   10629   10641       4
   10590   10611   10632   10647       4   10587   10584   10605   10623       4
   10584   10569   10581   10602       4   10578   10566   10575   10593       4
   10578   10596   10608   10626       4   10575   10590   10608   10626       4
   10572   10578   10596   10614       4   10569   10581   10599   10620       4
   10569   10584   10605   10623       4   10566   10578   10596   10614       4
   10563   10569   10581   10602       4   10560   10566   10575   10593       4
   10932   10917   10929   10935       1   10932   10917   10929   10938       1
   10932   10917   10929   10941       1   10926   10917   10929   10935       1
   10926   10917   10929   10938       1   10926   10917   10929   10941       1
   10923   10914   10917   10926       1   10923   10914   10917   10929       2
   10923   10914   10917   10932       1   10920   10914   10917   10926       1
   10920   10914   10917   10929       2   10920   10914   10917   10932       1
   10914   10917   10929   10935       2   10914   10917   10929   10938       2
   10914   10917   10929   10941       2   10911   10899   10914   10917       2
   10911   10899   10914   10920       1   10911   10899   10914   10923       1
   10908   10899   10914   10917       2   10908   10899   10914   10920       1
   10908   10899   10914   10923       1   10905   10890   10899   10908       1
   10905   10890   10899   10911       1   10905   10890   10899   10914       2
   10902   10890   10899   10908       1   10902   10890   10899   10911       1
   10902   10890   10899   10914       2   10899   10914   10917   10926       2
   10899   10914   10917   10932       2   10896   10881   10890   10899       2
   10896   10881   10890   10902       1   10896   10881   10890   10905       1
   10893   10881   10890   10899       2   10893   10881   10890   10902       1
   10893   10881   10890   10905       1   10890   10899   10914   10920       2
   10890   10899   10914   10923       2   10887   10872   10881   10890       2
   10887   10872   10881   10893       1   10887   10872   10881   10896       1
   10884   10872   10881   10890       2   10884   10872   10881   10893       1
   10884   10872   10881   10896       1   10881   10890   10899   10908       2
   10881   10890   10899   10911       2   10878   10860   10872   10881       2
   10878   10860   10872   10884       1   10878   10860   10872   10887       1
   10875   10860   10872   10881       2   10875   10860   10872   10884       1
   10875   10860   10872   10887       1   10872   10881   10890   10902       2
   10872   10881   10890   10905       2   10866   10842   10860   10872       2
   10866   10842   10860   10875       1   10866   10842   10860   10878       1
   10863   10842   10860   10872       2   10863   10842   10860   10875       1
   10863   10842   10860   10878       1   10860   10872   10881   10893       2
   10860   10872   10881   10896       2   10857   10836   10851   10869       4
   10854   10830   10851   10869       4   10848   10827   10842   10860       2
   10848   10827   10842   10863       1   10848   10827   10842   10866       1
   10845   10827   10842   10860       2   10845   10827   10842   10863       1
   10845   10827   10842   10866       1   10842   10860   10872   10884       2
   10842   10860   10872   10887       2   10839   10824   10836   10851       4
   10839   10824   10836   10857       4   10836   10851   10830   10854       4
   10833   10821   10830   10851       4   10833   10821   10830   10854       4
   10830   10851   10836   10857       4   10827   10842   10860   10875       2
   10827   10842   10860   10878       2   10824   10803   10821   10833       4
   10824   10836   10851   10869       4   10821   10803   10824   10839       4
   10821   10830   10851   10869       4   10815   10797   10809   10827       4
   10812   10791   10809   10827       4   10809   10827   10842   10863       5
   10809   10827   10842   10866       5   10806   10788   10800   10818       4
   10803   10782   10800   10818       4   10803   10821   10830   10854       4
   10803   10824   10836   10857       4   10797   10809   10791   10812       4
   10797   10809   10827   10845       8   10797   10809   10827   10848       8
   10794   10773   10791   10809       4   10794   10773   10791   10812       4
   10791   10809   10797   10815       4   10791   10809   10827   10845       8
   10791   10809   10827   10848       8   10785   10767   10782   10800       4
   10785   10767   10782   10803       4   10782   10800   10788   10806       4
   10782   10803   10821   10833       4   10782   10803   10824   10839       4
   10779   10776   10797   10815       4   10776   10761   10773   10794       4
   10770   10758   10767   10785       4   10770   10788   10800   10818       4
   10767   10782   10800   10818       4   10764   10770   10788   10806       4
   10761   10773   10791   10812       4   10761   10776   10797   10815       4
   10758   10770   10788   10806       4   10755   10761   10773   10794       4
   10752   10758   10767   10785       4   11124   11109   11121   11127       1
   11124   11109   11121   11130       1   11124   11109   11121   11133       1
   11118   11109   11121   11127       1   11118   11109   11121   11130       1
   11118   11109   11121   11133       1   11115   11106   11109   11118       1
   11115   11106   11109   11121       2   11115   11106   11109   11124       1
   11112   11106   11109   11118       1   11112   11106   11109   11121       2
   11112   11106   11109   11124       1   11106   11109   11121   11127       2
   11106   11109   11121   11130       2   11106   11109   11121   11133       2
   11103   11091   11106   11109       2   11103   11091   11106   11112       1
   11103   11091   11106   11115       1   11100   11091   11106   11109       2
   11100   11091   11106   11112       1   11100   11091   11106   11115       1
   11097   11082   11091   11100       1   11097   11082   11091   11103       1
   11097   11082   11091   11106       2   11094   11082   11091   11100       1
   11094   11082   11091   11103       1   11094   11082   11091   11106       2
   11091   11106   11109   11118       2   11091   11106   11109   11124       2
   11088   11073   11082   11091       2   11088   11073   11082   11094       1
   11088   11073   11082   11097       1   11085   11073   11082   11091       2
   11085   11073   11082   11094       1   11085   11073   11082   11097       1
   11082   11091   11106   11112       2   11082   11091   11106   11115       2
   11079   11064   11073   11082       2   11079   11064   11073   11085       1
   11079   11064   11073   11088       1   11076   11064   11073   11082       2
   11076   11064   11073   11085       1   11076   11064   11073   11088       1
   11073   11082   11091   11100       2   11073   11082   11091   11103       2
   11070   11052   11064   11073       2   11070   11052   11064   11076       1
   11070   11052   11064   11079       1   11067   11052   11064   11073       2
   11067   11052   11064   11076       1   11067   11052   11064   11079       1
   11064   11073   11082   11094       2   11064   11073   11082   11097       2
   11058   11034   11052   11064       2   11058   11034   11052   11067       1
   11058   11034   11052   11070       1   11055   11034   11052   11064       2
   11055   11034   11052   11067       1   11055   11034   11052   11070       1
   11052   11064   11073   11085       2   11052   11064   11073   11088       2
   11049   11028   11043   11061       4   11046   11022   11043   11061       4
   11040   11019   11034   11052       2   11040   11019   11034   11055       1
   11040   11019   11034   11058       1   11037   11019   11034   11052       2
   11037   11019   11034   11055       1   11037   11019   11034   11058       1
   11034   11052   11064   11076       2   11034   11052   11064   11079       2
   11031   11016   11028   11043       4   11031   11016   11028   11049       4
   11028   11043   11022   11046       4   11025   11013   11022   11043       4
   11025   11013   11022   11046       4   11022   11043   11028   11049       4
   11019   11034   11052   11067       2   11019   11034   11052   11070       2
   11016   10995   11013   11025       4   11016   11028   11043   11061       4
   11013   10995   11016   11031       4   11013   11022   11043   11061       4
   11007   10989   11001   11019       4   11004   10983   11001   11019       4
   11001   11019   11034   11055       5   11001   11019   11034   11058       5
   10998   10980   10992   11010       4   10995   10974   10992   11010       4
   10995   11013   11022   11046       4   10995   11016   11028   11049       4
   10989   11001   10983   11004       4   10989   11001   11019   11037       8
   10989   11001   11019   11040       8   10986   10965   10983   11001       4
   10986   10965   10983   11004       4   10983   11001   10989   11007       4
   10983   11001   11019   11037       8   10983   11001   11019   11040       8
   10977   10959   10974   10992       4   10977   10959   10974   10995       4
   10974   10992   10980   10998       4   10974   10995   11013   11025       4
   10974   10995   11016   11031       4   10971   10968   10989   11007       4
   10968   10953   10965   10986       4   10962   10950   10959   10977       4
   10962   10980   10992   11010       4   10959   10974   10992   11010       4
   10956   10962   10980   10998       4   10953   10965   10983   11004       4
   10953   10968   10989   11007       4   10950   10962   10980   10998       4
   10947   10953   10965   10986       4   10944   10950   10959   10977       4
   11316   11301   11313   11319       1   11316   11301   11313   11322       1
   11316   11301   11313   11325       1   11310   11301   11313   11319       1
   11310   11301   11313   11322       1   11310   11301   11313   11325       1
   11307   11298   11301   11310       1   11307   11298   11301   11313       2
   11307   11298   11301   11316       1   11304   11298   11301   11310       1
   11304   11298   11301   11313       2   11304   11298   11301   11316       1
   11298   11301   11313   11319       2   11298   11301   11313   11322       2
   11298   11301   11313   11325       2   11295   11283   11298   11301       2
   11295   11283   11298   11304       1   11295   11283   11298   11307       1
   11292   11283   11298   11301       2   11292   11283   11298   11304       1
   11292   11283   11298   11307       1   11289   11274   11283   11292       1
   11289   11274   11283   11295       1   11289   11274   11283   11298       2
   11286   11274   11283   11292       1   11286   11274   11283   11295       1
   11286   11274   11283   11298       2   11283   11298   11301   11310       2
   11283   11298   11301   11316       2   11280   11265   11274   11283       2
   11280   11265   11274   11286       1   11280   11265   11274   11289       1
   11277   11265   11274   11283       2   11277   11265   11274   11286       1
   11277   11265   11274   11289       1   11274   11283   11298   11304       2
   11274   11283   11298   11307       2   11271   11256   11265   11274       2
   11271   11256   11265   11277       1   11271   11256   11265   11280       1
   11268   11256   11265   11274       2   11268   11256   11265   11277       1
   11268   11256   11265   11280       1   11265   11274   11283   11292       2
   11265   11274   11283   11295       2   11262   11244   11256   11265       2
   11262   11244   11256   11268       1   11262   11244   11256   11271       1
   11259   11244   11256   11265       2   11259   11244   11256   11268       1
   11259   11244   11256   11271       1   11256   11265   11274   11286       2
   11256   11265   11274   11289       2   11250   11226   11244   11256       2
   11250   11226   11244   11259       1   11250   11226   11244   11262       1
   11247   11226   11244   11256       2   11247   11226   11244   11259       1
   11247   11226   11244   11262       1   11244   11256   11265   11277       2
   11244   11256   11265   11280       2   11241   11220   11235   11253       4
   11238   11214   11235   11253       4   11232   11211   11226   11244       2
   11232   11211   11226   11247       1   11232   11211   11226   11250       1
   11229   11211   11226   11244       2   11229   11211   11226   11247       1
   11229   11211   11226   11250       1   11226   11244   11256   11268       2
   11226   11244   11256   11271       2   11223   11208   11220   11235       4
   11223   11208   11220   11241       4   11220   11235   11214   11238       4
   11217   11205   11214   11235       4   11217   11205   11214   11238       4
   11214   11235   11220   11241       4   11211   11226   11244   11259       2
   11211   11226   11244   11262       2   11208   11187   11205   11217       4
   11208   11220   11235   11253       4   11205   11187   11208   11223       4
   11205   11214   11235   11253       4   11199   11181   11193   11211       4
   11196   11175   11193   11211       4   11193   11211   11226   11247       5
   11193   11211   11226   11250       5   11190   11172   11184   11202       4
   11187   11166   11184   11202       4   11187   11205   11214   11238       4
   11187   11208   11220   11241       4   11181   11193   11175   11196       4
   11181   11193   11211   11229       8   11181   11193   11211   11232       8
   11178   11157   11175   11193       4   11178   11157   11175   11196       4
   11175   11193   11181   11199       4   11175   11193   11211   11229       8
   11175   11193   11211   11232       8   11169   11151   11166   11184       4
   11169   11151   11166   11187       4   11166   11184   11172   11190       4
   11166   11187   11205   11217       4   11166   11187   11208   11223       4
   11163   11160   11181   11199       4   11160   11145   11157   11178       4
   11154   11142   11151   11169       4   11154   11172   11184   11202       4
   11151   11166   11184   11202       4   11148   11154   11172   11190       4
   11145   11157   11175   11196       4   11145   11160   11181   11199       4
   11142   11154   11172   11190       4   11139   11145   11157   11178       4
   11136   11142   11151   11169       4   11508   11493   11505   11511       1
   11508   11493   11505   11514       1   11508   11493   11505   11517       1
   11502   11493   11505   11511       1   11502   11493   11505   11514       1
   11502   11493   11505   11517       1   11499   11490   11493   11502       1
   11499   11490   11493   11505       2   11499   11490   11493   11508       1
   11496   11490   11493   11502       1   11496   11490   11493   11505       2
   11496   11490   11493   11508       1   11490   11493   11505   11511       2
   11490   11493   11505   11514       2   11490   11493   11505   11517       2
   11487   11475   11490   11493       2   11487   11475   11490   11496       1
   11487   11475   11490   11499       1   11484   11475   11490   11493       2
   11484   11475   11490   11496       1   11484   11475   11490   11499       1
   11481   11466   11475   11484       1   11481   11466   11475   11487       1
   11481   11466   11475   11490       2   11478   11466   11475   11484       1
   11478   11466   11475   11487       1   11478   11466   11475   11490       2
   11475   11490   11493   11502       2   11475   11490   11493   11508       2
   11472   11457   11466   11475       2   11472   11457   11466   11478       1
   11472   11457   11466   11481       1   11469   11457   11466   11475       2
   11469   11457   11466   11478       1   11469   11457   11466   11481       1
   11466   11475   11490   11496       2   11466   11475   11490   11499       2
   11463   11448   11457   11466       2   11463   11448   11457   11469       1
   11463   11448   11457   11472       1   11460   11448   11457   11466       2
   11460   11448   11457   11469       1   11460   11448   11457   11472       1
   11457   11466   11475   11484       2   11457   11466   11475   11487       2
   11454   11436   11448   11457       2   11454   11436   11448   11460       1
   11454   11436   11448   11463       1   11451   11436   11448   11457       2
   11451   11436   11448   11460       1   11451   11436   11448   11463       1
   11448   11457   11466   11478       2   11448   11457   11466   11481       2
   11442   11418   11436   11448       2   11442   11418   11436   11451       1
   11442   11418   11436   11454       1   11439   11418   11436   11448       2
   11439   11418   11436   11451       1   11439   11418   11436   11454       1
   11436   11448   11457   11469       2   11436   11448   11457   11472       2
   11433   11412   11427   11445       4   11430   11406   11427   11445       4
   11424   11403   11418   11436       2   11424   11403   11418   11439       1
   11424   11403   11418   11442       1   11421   11403   11418   11436       2
   11421   11403   11418   11439       1   11421   11403   11418   11442       1
   11418   11436   11448   11460       2   11418   11436   11448   11463       2
   11415   11400   11412   11427       4   11415   11400   11412   11433       4
   11412   11427   11406   11430       4   11409   11397   11406   11427       4
   11409   11397   11406   11430       4   11406   11427   11412   11433       4
   11403   11418   11436   11451       2   11403   11418   11436   11454       2
   11400   11379   11397   11409       4   11400   11412   11427   11445       4
   11397   11379   11400   11415       4   11397   11406   11427   11445       4
   11391   11373   11385   11403       4   11388   11367   11385   11403       4
   11385   11403   11418   11439       5   11385   11403   11418   11442       5
   11382   11364   11376   11394       4   11379   11358   11376   11394       4
   11379   11397   11406   11430       4   11379   11400   11412   11433       4
   11373   11385   11367   11388       4   11373   11385   11403   11421       8
   11373   11385   11403   11424       8   11370   11349   11367   11385       4
   11370   11349   11367   11388       4   11367   11385   11373   11391       4
   11367   11385   11403   11421       8   11367   11385   11403   11424       8
   11361   11343   11358   11376       4   11361   11343   11358   11379       4
   11358   11376   11364   11382       4   11358   11379   11397   11409       4
   11358   11379   11400   11415       4   11355   11352   11373   11391       4
   11352   11337   11349   11370       4   11346   11334   11343   11361       4
   11346   11364   11376   11394       4   11343   11358   11376   11394       4
   11340   11346   11364   11382       4   11337   11349   11367   11388       4
   11337   11352   11373   11391       4   11334   11346   11364   11382       4
   11331   11337   11349   11370       4   11328   11334   11343   11361       4
   11700   11685   11697   11703       1   11700   11685   11697   11706       1
   11700   11685   11697   11709       1   11694   11685   11697   11703       1
   11694   11685   11697   11706       1   11694   11685   11697   11709       1
   11691   11682   11685   11694       1   11691   11682   11685   11697       2
   11691   11682   11685   11700       1   11688   11682   11685   11694       1
   11688   11682   11685   11697       2   11688   11682   11685   11700       1
   11682   11685   11697   11703       2   11682   11685   11697   11706       2
   11682   11685   11697   11709       2   11679   11667   11682   11685       2
   11679   11667   11682   11688       1   11679   11667   11682   11691       1
   11676   11667   11682   11685       2   11676   11667   11682   11688       1
   11676   11667   11682   11691       1   11673   11658   11667   11676       1
   11673   11658   11667   11679       1   11673   11658   11667   11682       2
   11670   11658   11667   11676       1   11670   11658   11667   11679       1
   11670   11658   11667   11682       2   11667   11682   11685   11694       2
   11667   11682   11685   11700       2   11664   11649   11658   11667       2
   11664   11649   11658   11670       1   11664   11649   11658   11673       1
   11661   11649   11658   11667       2   11661   11649   11658   11670       1
   11661   11649   11658   11673       1   11658   11667   11682   11688       2
   11658   11667   11682   11691       2   11655   11640   11649   11658       2
   11655   11640   11649   11661       1   11655   11640   11649   11664       1
   11652   11640   11649   11658       2   11652   11640   11649   11661       1
   11652   11640   11649   11664       1   11649   11658   11667   11676       2
   11649   11658   11667   11679       2   11646   11628   11640   11649       2
   11646   11628   11640   11652       1   11646   11628   11640   11655       1
   11643   11628   11640   11649       2   11643   11628   11640   11652       1
   11643   11628   11640   11655       1   11640   11649   11658   11670       2
   11640   11649   11658   11673       2   11634   11610   11628   11640       2
   11634   11610   11628   11643       1   11634   11610   11628   11646       1
   11631   11610   11628   11640       2   11631   11610   11628   11643       1
   11631   11610   11628   11646       1   11628   11640   11649   11661       2
   11628   11640   11649   11664       2   11625   11604   11619   11637       4
   11622   11598   11619   11637       4   11616   11595   11610   11628       2
   11616   11595   11610   11631       1   11616   11595   11610   11634       1
   11613   11595   11610   11628       2   11613   11595   11610   11631       1
   11613   11595   11610   11634       1   11610   11628   11640   11652       2
   11610   11628   11640   11655       2   11607   11592   11604   11619       4
   11607   11592   11604   11625       4   11604   11619   11598   11622       4
   11601   11589   11598   11619       4   11601   11589   11598   11622       4
   11598   11619   11604   11625       4   11595   11610   11628   11643       2
   11595   11610   11628   11646       2   11592   11571   11589   11601       4
   11592   11604   11619   11637       4   11589   11571   11592   11607       4
   11589   11598   11619   11637       4   11583   11565   11577   11595       4
   11580   11559   11577   11595       4   11577   11595   11610   11631       5
   11577   11595   11610   11634       5   11574   11556   11568   11586       4
   11571   11550   11568   11586       4   11571   11589   11598   11622       4
   11571   11592   11604   11625       4   11565   11577   11559   11580       4
   11565   11577   11595   11613       8   11565   11577   11595   11616       8
   11562   11541   11559   11577       4   11562   11541   11559   11580       4
   11559   11577   11565   11583       4   11559   11577   11595   11613       8
   11559   11577   11595   11616       8   11553   11535   11550   11568       4
   11553   11535   11550   11571       4   11550   11568   11556   11574       4
   11550   11571   11589   11601       4   11550   11571   11592   11607       4
   11547   11544   11565   11583       4   11544   11529   11541   11562       4
   11538   11526   11535   11553       4   11538   11556   11568   11586       4
   11535   11550   11568   11586       4   11532   11538   11556   11574       4
   11529   11541   11559   11580       4   11529   11544   11565   11583       4
   11526   11538   11556   11574       4   11523   11529   11541   11562       4
   11520   11526   11535   11553       4   11892   11877   11889   11895       1
   11892   11877   11889   11898       1   11892   11877   11889   11901       1
   11886   11877   11889   11895       1   11886   11877   11889   11898       1
   11886   11877   11889   11901       1   11883   11874   11877   11886       1
   11883   11874   11877   11889       2   11883   11874   11877   11892       1
   11880   11874   11877   11886       1   11880   11874   11877   11889       2
   11880   11874   11877   11892       1   11874   11877   11889   11895       2
   11874   11877   11889   11898       2   11874   11877   11889   11901       2
   11871   11859   11874   11877       2   11871   11859   11874   11880       1
   11871   11859   11874   11883       1   11868   11859   11874   11877       2
   11868   11859   11874   11880       1   11868   11859   11874   11883       1
   11865   11850   11859   11868       1   11865   11850   11859   11871       1
   11865   11850   11859   11874       2   11862   11850   11859   11868       1
   11862   11850   11859   11871       1   11862   11850   11859   11874       2
   11859   11874   11877   11886       2   11859   11874   11877   11892       2
   11856   11841   11850   11859       2   11856   11841   11850   11862       1
   11856   11841   11850   11865       1   11853   11841   11850   11859       2
   11853   11841   11850   11862       1   11853   11841   11850   11865       1
   11850   11859   11874   11880       2   11850   11859   11874   11883       2
   11847   11832   11841   11850       2   11847   11832   11841   11853       1
   11847   11832   11841   11856       1   11844   11832   11841   11850       2
   11844   11832   11841   11853       1   11844   11832   11841   11856       1
   11841   11850   11859   11868       2   11841   11850   11859   11871       2
   11838   11820   11832   11841       2   11838   11820   11832   11844       1
   11838   11820   11832   11847       1   11835   11820   11832   11841       2
   11835   11820   11832   11844       1   11835   11820   11832   11847       1
   11832   11841   11850   11862       2   11832   11841   11850   11865       2
   11826   11802   11820   11832       2   11826   11802   11820   11835       1
   11826   11802   11820   11838       1   11823   11802   11820   11832       2
   11823   11802   11820   11835       1   11823   11802   11820   11838       1
   11820   11832   11841   11853       2   11820   11832   11841   11856       2
   11817   11796   11811   11829       4   11814   11790   11811   11829       4
   11808   11787   11802   11820       2   11808   11787   11802   11823       1
   11808   11787   11802   11826       1   11805   11787   11802   11820       2
   11805   11787   11802   11823       1   11805   11787   11802   11826       1
   11802   11820   11832   11844       2   11802   11820   11832   11847       2
   11799   11784   11796   11811       4   11799   11784   11796   11817       4
   11796   11811   11790   11814       4   11793   11781   11790   11811       4
   11793   11781   11790   11814       4   11790   11811   11796   11817       4
   11787   11802   11820   11835       2   11787   11802   11820   11838       2
   11784   11763   11781   11793       4   11784   11796   11811   11829       4
   11781   11763   11784   11799       4   11781   11790   11811   11829       4
   11775   11757   11769   11787       4   11772   11751   11769   11787       4
   11769   11787   11802   11823       5   11769   11787   11802   11826       5
   11766   11748   11760   11778       4   11763   11742   11760   11778       4
   11763   11781   11790   11814       4   11763   11784   11796   11817       4
   11757   11769   11751   11772       4   11757   11769   11787   11805       8
   11757   11769   11787   11808       8   11754   11733   11751   11769       4
   11754   11733   11751   11772       4   11751   11769   11757   11775       4
   11751   11769   11787   11805       8   11751   11769   11787   11808       8
   11745   11727   11742   11760       4   11745   11727   11742   11763       4
   11742   11760   11748   11766       4   11742   11763   11781   11793       4
   11742   11763   11784   11799       4   11739   11736   11757   11775       4
   11736   11721   11733   11754       4   11730   11718   11727   11745       4
   11730   11748   11760   11778       4   11727   11742   11760   11778       4
   11724   11730   11748   11766       4   11721   11733   11751   11772       4
   11721   11736   11757   11775       4   11718   11730   11748   11766       4
   11715   11721   11733   11754       4   11712   11718   11727   11745       4
   12084   12069   12081   12087       1   12084   12069   12081   12090       1
   12084   12069   12081   12093       1   12078   12069   12081   12087       1
   12078   12069   12081   12090       1   12078   12069   12081   12093       1
   12075   12066   12069   12078       1   12075   12066   12069   12081       2
   12075   12066   12069   12084       1   12072   12066   12069   12078       1
   12072   12066   12069   12081       2   12072   12066   12069   12084       1
   12066   12069   12081   12087       2   12066   12069   12081   12090       2
   12066   12069   12081   12093       2   12063   12051   12066   12069       2
   12063   12051   12066   12072       1   12063   12051   12066   12075       1
   12060   12051   12066   12069       2   12060   12051   12066   12072       1
   12060   12051   12066   12075       1   12057   12042   12051   12060       1
   12057   12042   12051   12063       1   12057   12042   12051   12066       2
   12054   12042   12051   12060       1   12054   12042   12051   12063       1
   12054   12042   12051   12066       2   12051   12066   12069   12078       2
   12051   12066   12069   12084       2   12048   12033   12042   12051       2
   12048   12033   12042   12054       1   12048   12033   12042   12057       1
   12045   12033   12042   12051       2   12045   12033   12042   12054       1
   12045   12033   12042   12057       1   12042   12051   12066   12072       2
   12042   12051   12066   12075       2   12039   12024   12033   12042       2
   12039   12024   12033   12045       1   12039   12024   12033   12048       1
   12036   12024   12033   12042       2   12036   12024   12033   12045       1
   12036   12024   12033   12048       1   12033   12042   12051   12060       2
   12033   12042   12051   12063       2   12030   12012   12024   12033       2
   12030   12012   12024   12036       1   12030   12012   12024   12039       1
   12027   12012   12024   12033       2   12027   12012   12024   12036       1
   12027   12012   12024   12039       1   12024   12033   12042   12054       2
   12024   12033   12042   12057       2   12018   11994   12012   12024       2
   12018   11994   12012   12027       1   12018   11994   12012   12030       1
   12015   11994   12012   12024       2   12015   11994   12012   12027       1
   12015   11994   12012   12030       1   12012   12024   12033   12045       2
   12012   12024   12033   12048       2   12009   11988   12003   12021       4
   12006   11982   12003   12021       4   12000   11979   11994   12012       2
   12000   11979   11994   12015       1   12000   11979   11994   12018       1
   11997   11979   11994   12012       2   11997   11979   11994   12015       1
   11997   11979   11994   12018       1   11994   12012   12024   12036       2
   11994   12012   12024   12039       2   11991   11976   11988   12003       4
   11991   11976   11988   12009       4   11988   12003   11982   12006       4
   11985   11973   11982   12003       4   11985   11973   11982   12006       4
   11982   12003   11988   12009       4   11979   11994   12012   12027       2
   11979   11994   12012   12030       2   11976   11955   11973   11985       4
   11976   11988   12003   12021       4   11973   11955   11976   11991       4
   11973   11982   12003   12021       4   11967   11949   11961   11979       4
   11964   11943   11961   11979       4   11961   11979   11994   12015       5
   11961   11979   11994   12018       5   11958   11940   11952   11970       4
   11955   11934   11952   11970       4   11955   11973   11982   12006       4
   11955   11976   11988   12009       4   11949   11961   11943   11964       4
   11949   11961   11979   11997       8   11949   11961   11979   12000       8
   11946   11925   11943   11961       4   11946   11925   11943   11964       4
   11943   11961   11949   11967       4   11943   11961   11979   11997       8
   11943   11961   11979   12000       8   11937   11919   11934   11952       4
   11937   11919   11934   11955       4   11934   11952   11940   11958       4
   11934   11955   11973   11985       4   11934   11955   11976   11991       4
   11931   11928   11949   11967       4   11928   11913   11925   11946       4
   11922   11910   11919   11937       4   11922   11940   11952   11970       4
   11919   11934   11952   11970       4   11916   11922   11940   11958       4
   11913   11925   11943   11964       4   11913   11928   11949   11967       4
   11910   11922   11940   11958       4   11907   11913   11925   11946       4
   11904   11910   11919   11937       4   12276   12261   12273   12279       1
   12276   12261   12273   12282       1   12276   12261   12273   12285       1
   12270   12261   12273   12279       1   12270   12261   12273   12282       1
   12270   12261   12273   12285       1   12267   12258   12261   12270       1
   12267   12258   12261   12273       2   12267   12258   12261   12276       1
   12264   12258   12261   12270       1   12264   12258   12261   12273       2
   12264   12258   12261   12276       1   12258   12261   12273   12279       2
   12258   12261   12273   12282       2   12258   12261   12273   12285       2
   12255   12243   12258   12261       2   12255   12243   12258   12264       1
   12255   12243   12258   12267       1   12252   12243   12258   12261       2
   12252   12243   12258   12264       1   12252   12243   12258   12267       1
   12249   12234   12243   12252       1   12249   12234   12243   12255       1
   12249   12234   12243   12258       2   12246   12234   12243   12252       1
   12246   12234   12243   12255       1   12246   12234   12243   12258       2
   12243   12258   12261   12270       2   12243   12258   12261   12276       2
   12240   12225   12234   12243       2   12240   12225   12234   12246       1
   12240   12225   12234   12249       1   12237   12225   12234   12243       2
   12237   12225   12234   12246       1   12237   12225   12234   12249       1
   12234   12243   12258   12264       2   12234   12243   12258   12267       2
   12231   12216   12225   12234       2   12231   12216   12225   12237       1
   12231   12216   12225   12240       1   12228   12216   12225   12234       2
   12228   12216   12225   12237       1   12228   12216   12225   12240       1
   12225   12234   12243   12252       2   12225   12234   12243   12255       2
   12222   12204   12216   12225       2   12222   12204   12216   12228       1
   12222   12204   12216   12231       1   12219   12204   12216   12225       2
   12219   12204   12216   12228       1   12219   12204   12216   12231       1
   12216   12225   12234   12246       2   12216   12225   12234   12249       2
   12210   12186   12204   12216       2   12210   12186   12204   12219       1
   12210   12186   12204   12222       1   12207   12186   12204   12216       2
   12207   12186   12204   12219       1   12207   12186   12204   12222       1
   12204   12216   12225   12237       2   12204   12216   12225   12240       2
   12201   12180   12195   12213       4   12198   12174   12195   12213       4
   12192   12171   12186   12204       2   12192   12171   12186   12207       1
   12192   12171   12186   12210       1   12189   12171   12186   12204       2
   12189   12171   12186   12207       1   12189   12171   12186   12210       1
   12186   12204   12216   12228       2   12186   12204   12216   12231       2
   12183   12168   12180   12195       4   12183   12168   12180   12201       4
   12180   12195   12174   12198       4   12177   12165   12174   12195       4
   12177   12165   12174   12198       4   12174   12195   12180   12201       4
   12171   12186   12204   12219       2   12171   12186   12204   12222       2
   12168   12147   12165   12177       4   12168   12180   12195   12213       4
   12165   12147   12168   12183       4   12165   12174   12195   12213       4
   12159   12141   12153   12171       4   12156   12135   12153   12171       4
   12153   12171   12186   12207       5   12153   12171   12186   12210       5
   12150   12132   12144   12162       4   12147   12126   12144   12162       4
   12147   12165   12174   12198       4   12147   12168   12180   12201       4
   12141   12153   12135   12156       4   12141   12153   12171   12189       8
   12141   12153   12171   12192       8   12138   12117   12135   12153       4
   12138   12117   12135   12156       4   12135   12153   12141   12159       4
   12135   12153   12171   12189       8   12135   12153   12171   12192       8
   12129   12111   12126   12144       4   12129   12111   12126   12147       4
   12126   12144   12132   12150       4   12126   12147   12165   12177       4
   12126   12147   12168   12183       4   12123   12120   12141   12159       4
   12120   12105   12117   12138       4   12114   12102   12111   12129       4
   12114   12132   12144   12162       4   12111   12126   12144   12162       4
   12108   12114   12132   12150       4   12105   12117   12135   12156       4
   12105   12120   12141   12159       4   12102   12114   12132   12150       4
   12099   12105   12117   12138       4   12096   12102   12111   12129       4
   12468   12453   12465   12471       1   12468   12453   12465   12474       1
   12468   12453   12465   12477       1   12462   12453   12465   12471       1
   12462   12453   12465   12474       1   12462   12453   12465   12477       1
   12459   12450   12453   12462       1   12459   12450   12453   12465       2
   12459   12450   12453   12468       1   12456   12450   12453   12462       1
   12456   12450   12453   12465       2   12456   12450   12453   12468       1
   12450   12453   12465   12471       2   12450   12453   12465   12474       2
   12450   12453   12465   12477       2   12447   12435   12450   12453       2
   12447   12435   12450   12456       1   12447   12435   12450   12459       1
   12444   12435   12450   12453       2   12444   12435   12450   12456       1
   12444   12435   12450   12459       1   12441   12426   12435   12444       1
   12441   12426   12435   12447       1   12441   12426   12435   12450       2
   12438   12426   12435   12444       1   12438   12426   12435   12447       1
   12438   12426   12435   12450       2   12435   12450   12453   12462       2
   12435   12450   12453   12468       2   12432   12417   12426   12435       2
   12432   12417   12426   12438       1   12432   12417   12426   12441       1
   12429   12417   12426   12435       2   12429   12417   12426   12438       1
   12429   12417   12426   12441       1   12426   12435   12450   12456       2
   12426   12435   12450   12459       2   12423   12408   12417   12426       2
   12423   12408   12417   12429       1   12423   12408   12417   12432       1
   12420   12408   12417   12426       2   12420   12408   12417   12429       1
   12420   12408   12417   12432       1   12417   12426   12435   12444       2
   12417   12426   12435   12447       2   12414   12396   12408   12417       2
   12414   12396   12408   12420       1   12414   12396   12408   12423       1
   12411   12396   12408   12417       2   12411   12396   12408   12420       1
   12411   12396   12408   12423       1   12408   12417   12426   12438       2
   12408   12417   12426   12441       2   12402   12378   12396   12408       2
   12402   12378   12396   12411       1   12402   12378   12396   12414       1
   12399   12378   12396   12408       2   12399   12378   12396   12411       1
   12399   12378   12396   12414       1   12396   12408   12417   12429       2
   12396   12408   12417   12432       2   12393   12372   12387   12405       4
   12390   12366   12387   12405       4   12384   12363   12378   12396       2
   12384   12363   12378   12399       1   12384   12363   12378   12402       1
   12381   12363   12378   12396       2   12381   12363   12378   12399       1
   12381   12363   12378   12402       1   12378   12396   12408   12420       2
   12378   12396   12408   12423       2   12375   12360   12372   12387       4
   12375   12360   12372   12393       4   12372   12387   12366   12390       4
   12369   12357   12366   12387       4   12369   12357   12366   12390       4
   12366   12387   12372   12393       4   12363   12378   12396   12411       2
   12363   12378   12396   12414       2   12360   12339   12357   12369       4
   12360   12372   12387   12405       4   12357   12339   12360   12375       4
   12357   12366   12387   12405       4   12351   12333   12345   12363       4
   12348   12327   12345   12363       4   12345   12363   12378   12399       5
   12345   12363   12378   12402       5   12342   12324   12336   12354       4
   12339   12318   12336   12354       4   12339   12357   12366   12390       4
   12339   12360   12372   12393       4   12333   12345   12327   12348       4
   12333   12345   12363   12381       8   12333   12345   12363   12384       8
   12330   12309   12327   12345       4   12330   12309   12327   12348       4
   12327   12345   12333   12351       4   12327   12345   12363   12381       8
   12327   12345   12363   12384       8   12321   12303   12318   12336       4
   12321   12303   12318   12339       4   12318   12336   12324   12342       4
   12318   12339   12357   12369       4   12318   12339   12360   12375       4
   12315   12312   12333   12351       4   12312   12297   12309   12330       4
   12306   12294   12303   12321       4   12306   12324   12336   12354       4
   12303   12318   12336   12354       4   12300   12306   12324   12342       4
   12297   12309   12327   12348       4   12297   12312   12333   12351       4
   12294   12306   12324   12342       4   12291   12297   12309   12330       4
   12288   12294   12303   12321       4   12660   12645   12657   12663       1
   12660   12645   12657   12666       1   12660   12645   12657   12669       1
   12654   12645   12657   12663       1   12654   12645   12657   12666       1
   12654   12645   12657   12669       1   12651   12642   12645   12654       1
   12651   12642   12645   12657       2   12651   12642   12645   12660       1
   12648   12642   12645   12654       1   12648   12642   12645   12657       2
   12648   12642   12645   12660       1   12642   12645   12657   12663       2
   12642   12645   12657   12666       2   12642   12645   12657   12669       2
   12639   12627   12642   12645       2   12639   12627   12642   12648       1
   12639   12627   12642   12651       1   12636   12627   12642   12645       2
   12636   12627   12642   12648       1   12636   12627   12642   12651       1
   12633   12618   12627   12636       1   12633   12618   12627   12639       1
   12633   12618   12627   12642       2   12630   12618   12627   12636       1
   12630   12618   12627   12639       1   12630   12618   12627   12642       2
   12627   12642   12645   12654       2   12627   12642   12645   12660       2
   12624   12609   12618   12627       2   12624   12609   12618   12630       1
   12624   12609   12618   12633       1   12621   12609   12618   12627       2
   12621   12609   12618   12630       1   12621   12609   12618   12633       1
   12618   12627   12642   12648       2   12618   12627   12642   12651       2
   12615   12600   12609   12618       2   12615   12600   12609   12621       1
   12615   12600   12609   12624       1   12612   12600   12609   12618       2
   12612   12600   12609   12621       1   12612   12600   12609   12624       1
   12609   12618   12627   12636       2   12609   12618   12627   12639       2
   12606   12588   12600   12609       2   12606   12588   12600   12612       1
   12606   12588   12600   12615       1   12603   12588   12600   12609       2
   12603   12588   12600   12612       1   12603   12588   12600   12615       1
   12600   12609   12618   12630       2   12600   12609   12618   12633       2
   12594   12570   12588   12600       2   12594   12570   12588   12603       1
   12594   12570   12588   12606       1   12591   12570   12588   12600       2
   12591   12570   12588   12603       1   12591   12570   12588   12606       1
   12588   12600   12609   12621       2   12588   12600   12609   12624       2
   12585   12564   12579   12597       4   12582   12558   12579   12597       4
   12576   12555   12570   12588       2   12576   12555   12570   12591       1
   12576   12555   12570   12594       1   12573   12555   12570   12588       2
   12573   12555   12570   12591       1   12573   12555   12570   12594       1
   12570   12588   12600   12612       2   12570   12588   12600   12615       2
   12567   12552   12564   12579       4   12567   12552   12564   12585       4
   12564   12579   12558   12582       4   12561   12549   12558   12579       4
   12561   12549   12558   12582       4   12558   12579   12564   12585       4
   12555   12570   12588   12603       2   12555   12570   12588   12606       2
   12552   12531   12549   12561       4   12552   12564   12579   12597       4
   12549   12531   12552   12567       4   12549   12558   12579   12597       4
   12543   12525   12537   12555       4   12540   12519   12537   12555       4
   12537   12555   12570   12591       5   12537   12555   12570   12594       5
   12534   12516   12528   12546       4   12531   12510   12528   12546       4
   12531   12549   12558   12582       4   12531   12552   12564   12585       4
   12525   12537   12519   12540       4   12525   12537   12555   12573       8
   12525   12537   12555   12576       8   12522   12501   12519   12537       4
   12522   12501   12519   12540       4   12519   12537   12525   12543       4
   12519   12537   12555   12573       8   12519   12537   12555   12576       8
   12513   12495   12510   12528       4   12513   12495   12510   12531       4
   12510   12528   12516   12534       4   12510   12531   12549   12561       4
   12510   12531   12552   12567       4   12507   12504   12525   12543       4
   12504   12489   12501   12522       4   12498   12486   12495   12513       4
   12498   12516   12528   12546       4   12495   12510   12528   12546       4
   12492   12498   12516   12534       4   12489   12501   12519   12540       4
   12489   12504   12525   12543       4   12486   12498   12516   12534       4
   12483   12489   12501   12522       4   12480   12486   12495   12513       4
   12852   12837   12849   12855       1   12852   12837   12849   12858       1
   12852   12837   12849   12861       1   12846   12837   12849   12855       1
   12846   12837   12849   12858       1   12846   12837   12849   12861       1
   12843   12834   12837   12846       1   12843   12834   12837   12849       2
   12843   12834   12837   12852       1   12840   12834   12837   12846       1
   12840   12834   12837   12849       2   12840   12834   12837   12852       1
   12834   12837   12849   12855       2   12834   12837   12849   12858       2
   12834   12837   12849   12861       2   12831   12819   12834   12837       2
   12831   12819   12834   12840       1   12831   12819   12834   12843       1
   12828   12819   12834   12837       2   12828   12819   12834   12840       1
   12828   12819   12834   12843       1   12825   12810   12819   12828       1
   12825   12810   12819   12831       1   12825   12810   12819   12834       2
   12822   12810   12819   12828       1   12822   12810   12819   12831       1
   12822   12810   12819   12834       2   12819   12834   12837   12846       2
   12819   12834   12837   12852       2   12816   12801   12810   12819       2
   12816   12801   12810   12822       1   12816   12801   12810   12825       1
   12813   12801   12810   12819       2   12813   12801   12810   12822       1
   12813   12801   12810   12825       1   12810   12819   12834   12840       2
   12810   12819   12834   12843       2   12807   12792   12801   12810       2
   12807   12792   12801   12813       1   12807   12792   12801   12816       1
   12804   12792   12801   12810       2   12804   12792   12801   12813       1
   12804   12792   12801   12816       1   12801   12810   12819   12828       2
   12801   12810   12819   12831       2   12798   12780   12792   12801       2
   12798   12780   12792   12804       1   12798   12780   12792   12807       1
   12795   12780   12792   12801       2   12795   12780   12792   12804       1
   12795   12780   12792   12807       1   12792   12801   12810   12822       2
   12792   12801   12810   12825       2   12786   12762   12780   12792       2
   12786   12762   12780   12795       1   12786   12762   12780   12798       1
   12783   12762   12780   12792       2   12783   12762   12780   12795       1
   12783   12762   12780   12798       1   12780   12792   12801   12813       2
   12780   12792   12801   12816       2   12777   12756   12771   12789       4
   12774   12750   12771   12789       4   12768   12747   12762   12780       2
   12768   12747   12762   12783       1   12768   12747   12762   12786       1
   12765   12747   12762   12780       2   12765   12747   12762   12783       1
   12765   12747   12762   12786       1   12762   12780   12792   12804       2
   12762   12780   12792   12807       2   12759   12744   12756   12771       4
   12759   12744   12756   12777       4   12756   12771   12750   12774       4
   12753   12741   12750   12771       4   12753   12741   12750   12774       4
   12750   12771   12756   12777       4   12747   12762   12780   12795       2
   12747   12762   12780   12798       2   12744   12723   12741   12753       4
   12744   12756   12771   12789       4   12741   12723   12744   12759       4
   12741   12750   12771   12789       4   12735   12717   12729   12747       4
   12732   12711   12729   12747       4   12729   12747   12762   12783       5
   12729   12747   12762   12786       5   12726   12708   12720   12738       4
   12723   12702   12720   12738       4   12723   12741   12750   12774       4
   12723   12744   12756   12777       4   12717   12729   12711   12732       4
   12717   12729   12747   12765       8   12717   12729   12747   12768       8
   12714   12693   12711   12729       4   12714   12693   12711   12732       4
   12711   12729   12717   12735       4   12711   12729   12747   12765       8
   12711   12729   12747   12768       8   12705   12687   12702   12720       4
   12705   12687   12702   12723       4   12702   12720   12708   12726       4
   12702   12723   12741   12753       4   12702   12723   12744   12759       4
   12699   12696   12717   12735       4   12696   12681   12693   12714       4
   12690   12678   12687   12705       4   12690   12708   12720   12738       4
   12687   12702   12720   12738       4   12684   12690   12708   12726       4
   12681   12693   12711   12732       4   12681   12696   12717   12735       4
   12678   12690   12708   12726       4   12675   12681   12693   12714       4
   12672   12678   12687   12705       4   13044   13029   13041   13047       1
   13044   13029   13041   13050       1   13044   13029   13041   13053       1
   13038   13029   13041   13047       1   13038   13029   13041   13050       1
   13038   13029   13041   13053       1   13035   13026   13029   13038       1
   13035   13026   13029   13041       2   13035   13026   13029   13044       1
   13032   13026   13029   13038       1   13032   13026   13029   13041       2
   13032   13026   13029   13044       1   13026   13029   13041   13047       2
   13026   13029   13041   13050       2   13026   13029   13041   13053       2
   13023   13011   13026   13029       2   13023   13011   13026   13032       1
   13023   13011   13026   13035       1   13020   13011   13026   13029       2
   13020   13011   13026   13032       1   13020   13011   13026   13035       1
   13017   13002   13011   13020       1   13017   13002   13011   13023       1
   13017   13002   13011   13026       2   13014   13002   13011   13020       1
   13014   13002   13011   13023       1   13014   13002   13011   13026       2
   13011   13026   13029   13038       2   13011   13026   13029   13044       2
   13008   12993   13002   13011       2   13008   12993   13002   13014       1
   13008   12993   13002   13017       1   13005   12993   13002   13011       2
   13005   12993   13002   13014       1   13005   12993   13002   13017       1
   13002   13011   13026   13032       2   13002   13011   13026   13035       2
   12999   12984   12993   13002       2   12999   12984   12993   13005       1
   12999   12984   12993   13008       1   12996   12984   12993   13002       2
   12996   12984   12993   13005       1   12996   12984   12993   13008       1
   12993   13002   13011   13020       2   12993   13002   13011   13023       2
   12990   12972   12984   12993       2   12990   12972   12984   12996       1
   12990   12972   12984   12999       1   12987   12972   12984   12993       2
   12987   12972   12984   12996       1   12987   12972   12984   12999       1
   12984   12993   13002   13014       2   12984   12993   13002   13017       2
   12978   12954   12972   12984       2   12978   12954   12972   12987       1
   12978   12954   12972   12990       1   12975   12954   12972   12984       2
   12975   12954   12972   12987       1   12975   12954   12972   12990       1
   12972   12984   12993   13005       2   12972   12984   12993   13008       2
   12969   12948   12963   12981       4   12966   12942   12963   12981       4
   12960   12939   12954   12972       2   12960   12939   12954   12975       1
   12960   12939   12954   12978       1   12957   12939   12954   12972       2
   12957   12939   12954   12975       1   12957   12939   12954   12978       1
   12954   12972   12984   12996       2   12954   12972   12984   12999       2
   12951   12936   12948   12963       4   12951   12936   12948   12969       4
   12948   12963   12942   12966       4   12945   12933   12942   12963       4
   12945   12933   12942   12966       4   12942   12963   12948   12969       4
   12939   12954   12972   12987       2   12939   12954   12972   12990       2
   12936   12915   12933   12945       4   12936   12948   12963   12981       4
   12933   12915   12936   12951       4   12933   12942   12963   12981       4
   12927   12909   12921   12939       4   12924   12903   12921   12939       4
   12921   12939   12954   12975       5   12921   12939   12954   12978       5
   12918   12900   12912   12930       4   12915   12894   12912   12930       4
   12915   12933   12942   12966       4   12915   12936   12948   12969       4
   12909   12921   12903   12924       4   12909   12921   12939   12957       8
   12909   12921   12939   12960       8   12906   12885   12903   12921       4
   12906   12885   12903   12924       4   12903   12921   12909   12927       4
   12903   12921   12939   12957       8   12903   12921   12939   12960       8
   12897   12879   12894   12912       4   12897   12879   12894   12915       4
   12894   12912   12900   12918       4   12894   12915   12933   12945       4
   12894   12915   12936   12951       4   12891   12888   12909   12927       4
   12888   12873   12885   12906       4   12882   12870   12879   12897       4
   12882   12900   12912   12930       4   12879   12894   12912   12930       4
   12876   12882   12900   12918       4   12873   12885   12903   12924       4
   12873   12888   12909   12927       4   12870   12882   12900   12918       4
   12867   12873   12885   12906       4   12864   12870   12879   12897       4
   13236   13221   13233   13239       1   13236   13221   13233   13242       1
   13236   13221   13233   13245       1   13230   13221   13233   13239       1
   13230   13221   13233   13242       1   13230   13221   13233   13245       1
   13227   13218   13221   13230       1   13227   13218   13221   13233       2
   13227   13218   13221   13236       1   13224   13218   13221   13230       1
   13224   13218   13221   13233       2   13224   13218   13221   13236       1
   13218   13221   13233   13239       2   13218   13221   13233   13242       2
   13218   13221   13233   13245       2   13215   13203   13218   13221       2
   13215   13203   13218   13224       1   13215   13203   13218   13227       1
   13212   13203   13218   13221       2   13212   13203   13218   13224       1
   13212   13203   13218   13227       1   13209   13194   13203   13212       1
   13209   13194   13203   13215       1   13209   13194   13203   13218       2
   13206   13194   13203   13212       1   13206   13194   13203   13215       1
   13206   13194   13203   13218       2   13203   13218   13221   13230       2
   13203   13218   13221   13236       2   13200   13185   13194   13203       2
   13200   13185   13194   13206       1   13200   13185   13194   13209       1
   13197   13185   13194   13203       2   13197   13185   13194   13206       1
   13197   13185   13194   13209       1   13194   13203   13218   13224       2
   13194   13203   13218   13227       2   13191   13176   13185   13194       2
   13191   13176   13185   13197       1   13191   13176   13185   13200       1
   13188   13176   13185   13194       2   13188   13176   13185   13197       1
   13188   13176   13185   13200       1   13185   13194   13203   13212       2
   13185   13194   13203   13215       2   13182   13164   13176   13185       2
   13182   13164   13176   13188       1   13182   13164   13176   13191       1
   13179   13164   13176   13185       2   13179   13164   13176   13188       1
   13179   13164   13176   13191       1   13176   13185   13194   13206       2
   13176   13185   13194   13209       2   13170   13146   13164   13176       2
   13170   13146   13164   13179       1   13170   13146   13164   13182       1
   13167   13146   13164   13176       2   13167   13146   13164   13179       1
   13167   13146   13164   13182       1   13164   13176   13185   13197       2
   13164   13176   13185   13200       2   13161   13140   13155   13173       4
   13158   13134   13155   13173       4   13152   13131   13146   13164       2
   13152   13131   13146   13167       1   13152   13131   13146   13170       1
   13149   13131   13146   13164       2   13149   13131   13146   13167       1
   13149   13131   13146   13170       1   13146   13164   13176   13188       2
   13146   13164   13176   13191       2   13143   13128   13140   13155       4
   13143   13128   13140   13161       4   13140   13155   13134   13158       4
   13137   13125   13134   13155       4   13137   13125   13134   13158       4
   13134   13155   13140   13161       4   13131   13146   13164   13179       2
   13131   13146   13164   13182       2   13128   13107   13125   13137       4
   13128   13140   13155   13173       4   13125   13107   13128   13143       4
   13125   13134   13155   13173       4   13119   13101   13113   13131       4
   13116   13095   13113   13131       4   13113   13131   13146   13167       5
   13113   13131   13146   13170       5   13110   13092   13104   13122       4
   13107   13086   13104   13122       4   13107   13125   13134   13158       4
   13107   13128   13140   13161       4   13101   13113   13095   13116       4
   13101   13113   13131   13149       8   13101   13113   13131   13152       8
   13098   13077   13095   13113       4   13098   13077   13095   13116       4
   13095   13113   13101   13119       4   13095   13113   13131   13149       8
   13095   13113   13131   13152       8   13089   13071   13086   13104       4
   13089   13071   13086   13107       4   13086   13104   13092   13110       4
   13086   13107   13125   13137       4   13086   13107   13128   13143       4
   13083   13080   13101   13119       4   13080   13065   13077   13098       4
   13074   13062   13071   13089       4   13074   13092   13104   13122       4
   13071   13086   13104   13122       4   13068   13074   13092   13110       4
   13065   13077   13095   13116       4   13065   13080   13101   13119       4
   13062   13074   13092   13110       4   13059   13065   13077   13098       4
   13056   13062   13071   13089       4   13428   13413   13425   13431       1
   13428   13413   13425   13434       1   13428   13413   13425   13437       1
   13422   13413   13425   13431       1   13422   13413   13425   13434       1
   13422   13413   13425   13437       1   13419   13410   13413   13422       1
   13419   13410   13413   13425       2   13419   13410   13413   13428       1
   13416   13410   13413   13422       1   13416   13410   13413   13425       2
   13416   13410   13413   13428       1   13410   13413   13425   13431       2
   13410   13413   13425   13434       2   13410   13413   13425   13437       2
   13407   13395   13410   13413       2   13407   13395   13410   13416       1
   13407   13395   13410   13419       1   13404   13395   13410   13413       2
   13404   13395   13410   13416       1   13404   13395   13410   13419       1
   13401   13386   13395   13404       1   13401   13386   13395   13407       1
   13401   13386   13395   13410       2   13398   13386   13395   13404       1
   13398   13386   13395   13407       1   13398   13386   13395   13410       2
   13395   13410   13413   13422       2   13395   13410   13413   13428       2
   13392   13377   13386   13395       2   13392   13377   13386   13398       1
   13392   13377   13386   13401       1   13389   13377   13386   13395       2
   13389   13377   13386   13398       1   13389   13377   13386   13401       1
   13386   13395   13410   13416       2   13386   13395   13410   13419       2
   13383   13368   13377   13386       2   13383   13368   13377   13389       1
   13383   13368   13377   13392       1   13380   13368   13377   13386       2
   13380   13368   13377   13389       1   13380   13368   13377   13392       1
   13377   13386   13395   13404       2   13377   13386   13395   13407       2
   13374   13356   13368   13377       2   13374   13356   13368   13380       1
   13374   13356   13368   13383       1   13371   13356   13368   13377       2
   13371   13356   13368   13380       1   13371   13356   13368   13383       1
   13368   13377   13386   13398       2   13368   13377   13386   13401       2
   13362   13338   13356   13368       2   13362   13338   13356   13371       1
   13362   13338   13356   13374       1   13359   13338   13356   13368       2
   13359   13338   13356   13371       1   13359   13338   13356   13374       1
   13356   13368   13377   13389       2   13356   13368   13377   13392       2
   13353   13332   13347   13365       4   13350   13326   13347   13365       4
   13344   13323   13338   13356       2   13344   13323   13338   13359       1
   13344   13323   13338   13362       1   13341   13323   13338   13356       2
   13341   13323   13338   13359       1   13341   13323   13338   13362       1
   13338   13356   13368   13380       2   13338   13356   13368   13383       2
   13335   13320   13332   13347       4   13335   13320   13332   13353       4
   13332   13347   13326   13350       4   13329   13317   13326   13347       4
   13329   13317   13326   13350       4   13326   13347   13332   13353       4
   13323   13338   13356   13371       2   13323   13338   13356   13374       2
   13320   13299   13317   13329       4   13320   13332   13347   13365       4
   13317   13299   13320   13335       4   13317   13326   13347   13365       4
   13311   13293   13305   13323       4   13308   13287   13305   13323       4
   13305   13323   13338   13359       5   13305   13323   13338   13362       5
   13302   13284   13296   13314       4   13299   13278   13296   13314       4
   13299   13317   13326   13350       4   13299   13320   13332   13353       4
   13293   13305   13287   13308       4   13293   13305   13323   13341       8
   13293   13305   13323   13344       8   13290   13269   13287   13305       4
   13290   13269   13287   13308       4   13287   13305   13293   13311       4
   13287   13305   13323   13341       8   13287   13305   13323   13344       8
   13281   13263   13278   13296       4   13281   13263   13278   13299       4
   13278   13296   13284   13302       4   13278   13299   13317   13329       4
   13278   13299   13320   13335       4   13275   13272   13293   13311       4
   13272   13257   13269   13290       4   13266   13254   13263   13281       4
   13266   13284   13296   13314       4   13263   13278   13296   13314       4
   13260   13266   13284   13302       4   13257   13269   13287   13308       4
   13257   13272   13293   13311       4   13254   13266   13284   13302       4
   13251   13257   13269   13290       4   13248   13254   13263   13281       4
   13620   13605   13617   13623       1   13620   13605   13617   13626       1
   13620   13605   13617   13629       1   13614   13605   13617   13623       1
   13614   13605   13617   13626       1   13614   13605   13617   13629       1
   13611   13602   13605   13614       1   13611   13602   13605   13617       2
   13611   13602   13605   13620       1   13608   13602   13605   13614       1
   13608   13602   13605   13617       2   13608   13602   13605   13620       1
   13602   13605   13617   13623       2   13602   13605   13617   13626       2
   13602   13605   13617   13629       2   13599   13587   13602   13605       2
   13599   13587   13602   13608       1   13599   13587   13602   13611       1
   13596   13587   13602   13605       2   13596   13587   13602   13608       1
   13596   13587   13602   13611       1   13593   13578   13587   13596       1
   13593   13578   13587   13599       1   13593   13578   13587   13602       2
   13590   13578   13587   13596       1   13590   13578   13587   13599       1
   13590   13578   13587   13602       2   13587   13602   13605   13614       2
   13587   13602   13605   13620       2   13584   13569   13578   13587       2
   13584   13569   13578   13590       1   13584   13569   13578   13593       1
   13581   13569   13578   13587       2   13581   13569   13578   13590       1
   13581   13569   13578   13593       1   13578   13587   13602   13608       2
   13578   13587   13602   13611       2   13575   13560   13569   13578       2
   13575   13560   13569   13581       1   13575   13560   13569   13584       1
   13572   13560   13569   13578       2   13572   13560   13569   13581       1
   13572   13560   13569   13584       1   13569   13578   13587   13596       2
   13569   13578   13587   13599       2   13566   13548   13560   13569       2
   13566   13548   13560   13572       1   13566   13548   13560   13575       1
   13563   13548   13560   13569       2   13563   13548   13560   13572       1
   13563   13548   13560   13575       1   13560   13569   13578   13590       2
   13560   13569   13578   13593       2   13554   13530   13548   13560       2
   13554   13530   13548   13563       1   13554   13530   13548   13566       1
   13551   13530   13548   13560       2   13551   13530   13548   13563       1
   13551   13530   13548   13566       1   13548   13560   13569   13581       2
   13548   13560   13569   13584       2   13545   13524   13539   13557       4
   13542   13518   13539   13557       4   13536   13515   13530   13548       2
   13536   13515   13530   13551       1   13536   13515   13530   13554       1
   13533   13515   13530   13548       2   13533   13515   13530   13551       1
   13533   13515   13530   13554       1   13530   13548   13560   13572       2
   13530   13548   13560   13575       2   13527   13512   13524   13539       4
   13527   13512   13524   13545       4   13524   13539   13518   13542       4
   13521   13509   13518   13539       4   13521   13509   13518   13542       4
   13518   13539   13524   13545       4   13515   13530   13548   13563       2
   13515   13530   13548   13566       2   13512   13491   13509   13521       4
   13512   13524   13539   13557       4   13509   13491   13512   13527       4
   13509   13518   13539   13557       4   13503   13485   13497   13515       4
   13500   13479   13497   13515       4   13497   13515   13530   13551       5
   13497   13515   13530   13554       5   13494   13476   13488   13506       4
   13491   13470   13488   13506       4   13491   13509   13518   13542       4
   13491   13512   13524   13545       4   13485   13497   13479   13500       4
   13485   13497   13515   13533       8   13485   13497   13515   13536       8
   13482   13461   13479   13497       4   13482   13461   13479   13500       4
   13479   13497   13485   13503       4   13479   13497   13515   13533       8
   13479   13497   13515   13536       8   13473   13455   13470   13488       4
   13473   13455   13470   13491       4   13470   13488   13476   13494       4
   13470   13491   13509   13521       4   13470   13491   13512   13527       4
   13467   13464   13485   13503       4   13464   13449   13461   13482       4
   13458   13446   13455   13473       4   13458   13476   13488   13506       4
   13455   13470   13488   13506       4   13452   13458   13476   13494       4
   13449   13461   13479   13500       4   13449   13464   13485   13503       4
   13446   13458   13476   13494       4   13443   13449   13461   13482       4
   13440   13446   13455   13473       4   13812   13797   13809   13815       1
   13812   13797   13809   13818       1   13812   13797   13809   13821       1
   13806   13797   13809   13815       1   13806   13797   13809   13818       1
   13806   13797   13809   13821       1   13803   13794   13797   13806       1
   13803   13794   13797   13809       2   13803   13794   13797   13812       1
   13800   13794   13797   13806       1   13800   13794   13797   13809       2
   13800   13794   13797   13812       1   13794   13797   13809   13815       2
   13794   13797   13809   13818       2   13794   13797   13809   13821       2
   13791   13779   13794   13797       2   13791   13779   13794   13800       1
   13791   13779   13794   13803       1   13788   13779   13794   13797       2
   13788   13779   13794   13800       1   13788   13779   13794   13803       1
   13785   13770   13779   13788       1   13785   13770   13779   13791       1
   13785   13770   13779   13794       2   13782   13770   13779   13788       1
   13782   13770   13779   13791       1   13782   13770   13779   13794       2
   13779   13794   13797   13806       2   13779   13794   13797   13812       2
   13776   13761   13770   13779       2   13776   13761   13770   13782       1
   13776   13761   13770   13785       1   13773   13761   13770   13779       2
   13773   13761   13770   13782       1   13773   13761   13770   13785       1
   13770   13779   13794   13800       2   13770   13779   13794   13803       2
   13767   13752   13761   13770       2   13767   13752   13761   13773       1
   13767   13752   13761   13776       1   13764   13752   13761   13770       2
   13764   13752   13761   13773       1   13764   13752   13761   13776       1
   13761   13770   13779   13788       2   13761   13770   13779   13791       2
   13758   13740   13752   13761       2   13758   13740   13752   13764       1
   13758   13740   13752   13767       1   13755   13740   13752   13761       2
   13755   13740   13752   13764       1   13755   13740   13752   13767       1
   13752   13761   13770   13782       2   13752   13761   13770   13785       2
   13746   13722   13740   13752       2   13746   13722   13740   13755       1
   13746   13722   13740   13758       1   13743   13722   13740   13752       2
   13743   13722   13740   13755       1   13743   13722   13740   13758       1
   13740   13752   13761   13773       2   13740   13752   13761   13776       2
   13737   13716   13731   13749       4   13734   13710   13731   13749       4
   13728   13707   13722   13740       2   13728   13707   13722   13743       1
   13728   13707   13722   13746       1   13725   13707   13722   13740       2
   13725   13707   13722   13743       1   13725   13707   13722   13746       1
   13722   13740   13752   13764       2   13722   13740   13752   13767       2
   13719   13704   13716   13731       4   13719   13704   13716   13737       4
   13716   13731   13710   13734       4   13713   13701   13710   13731       4
   13713   13701   13710   13734       4   13710   13731   13716   13737       4
   13707   13722   13740   13755       2   13707   13722   13740   13758       2
   13704   13683   13701   13713       4   13704   13716   13731   13749       4
   13701   13683   13704   13719       4   13701   13710   13731   13749       4
   13695   13677   13689   13707       4   13692   13671   13689   13707       4
   13689   13707   13722   13743       5   13689   13707   13722   13746       5
   13686   13668   13680   13698       4   13683   13662   13680   13698       4
   13683   13701   13710   13734       4   13683   13704   13716   13737       4
   13677   13689   13671   13692       4   13677   13689   13707   13725       8
   13677   13689   13707   13728       8   13674   13653   13671   13689       4
   13674   13653   13671   13692       4   13671   13689   13677   13695       4
   13671   13689   13707   13725       8   13671   13689   13707   13728       8
   13665   13647   13662   13680       4   13665   13647   13662   13683       4
   13662   13680   13668   13686       4   13662   13683   13701   13713       4
   13662   13683   13704   13719       4   13659   13656   13677   13695       4
   13656   13641   13653   13674       4   13650   13638   13647   13665       4
   13650   13668   13680   13698       4   13647   13662   13680   13698       4
   13644   13650   13668   13686       4   13641   13653   13671   13692       4
   13641   13656   13677   13695       4   13638   13650   13668   13686       4
   13635   13641   13653   13674       4   13632   13638   13647   13665       4
   14004   13989   14001   14007       1   14004   13989   14001   14010       1
   14004   13989   14001   14013       1   13998   13989   14001   14007       1
   13998   13989   14001   14010       1   13998   13989   14001   14013       1
   13995   13986   13989   13998       1   13995   13986   13989   14001       2
   13995   13986   13989   14004       1   13992   13986   13989   13998       1
   13992   13986   13989   14001       2   13992   13986   13989   14004       1
   13986   13989   14001   14007       2   13986   13989   14001   14010       2
   13986   13989   14001   14013       2   13983   13971   13986   13989       2
   13983   13971   13986   13992       1   13983   13971   13986   13995       1
   13980   13971   13986   13989       2   13980   13971   13986   13992       1
   13980   13971   13986   13995       1   13977   13962   13971   13980       1
   13977   13962   13971   13983       1   13977   13962   13971   13986       2
   13974   13962   13971   13980       1   13974   13962   13971   13983       1
   13974   13962   13971   13986       2   13971   13986   13989   13998       2
   13971   13986   13989   14004       2   13968   13953   13962   13971       2
   13968   13953   13962   13974       1   13968   13953   13962   13977       1
   13965   13953   13962   13971       2   13965   13953   13962   13974       1
   13965   13953   13962   13977       1   13962   13971   13986   13992       2
   13962   13971   13986   13995       2   13959   13944   13953   13962       2
   13959   13944   13953   13965       1   13959   13944   13953   13968       1
   13956   13944   13953   13962       2   13956   13944   13953   13965       1
   13956   13944   13953   13968       1   13953   13962   13971   13980       2
   13953   13962   13971   13983       2   13950   13932   13944   13953       2
   13950   13932   13944   13956       1   13950   13932   13944   13959       1
   13947   13932   13944   13953       2   13947   13932   13944   13956       1
   13947   13932   13944   13959       1   13944   13953   13962   13974       2
   13944   13953   13962   13977       2   13938   13914   13932   13944       2
   13938   13914   13932   13947       1   13938   13914   13932   13950       1
   13935   13914   13932   13944       2   13935   13914   13932   13947       1
   13935   13914   13932   13950       1   13932   13944   13953   13965       2
   13932   13944   13953   13968       2   13929   13908   13923   13941       4
   13926   13902   13923   13941       4   13920   13899   13914   13932       2
   13920   13899   13914   13935       1   13920   13899   13914   13938       1
   13917   13899   13914   13932       2   13917   13899   13914   13935       1
   13917   13899   13914   13938       1   13914   13932   13944   13956       2
   13914   13932   13944   13959       2   13911   13896   13908   13923       4
   13911   13896   13908   13929       4   13908   13923   13902   13926       4
   13905   13893   13902   13923       4   13905   13893   13902   13926       4
   13902   13923   13908   13929       4   13899   13914   13932   13947       2
   13899   13914   13932   13950       2   13896   13875   13893   13905       4
   13896   13908   13923   13941       4   13893   13875   13896   13911       4
   13893   13902   13923   13941       4   13887   13869   13881   13899       4
   13884   13863   13881   13899       4   13881   13899   13914   13935       5
   13881   13899   13914   13938       5   13878   13860   13872   13890       4
   13875   13854   13872   13890       4   13875   13893   13902   13926       4
   13875   13896   13908   13929       4   13869   13881   13863   13884       4
   13869   13881   13899   13917       8   13869   13881   13899   13920       8
   13866   13845   13863   13881       4   13866   13845   13863   13884       4
   13863   13881   13869   13887       4   13863   13881   13899   13917       8
   13863   13881   13899   13920       8   13857   13839   13854   13872       4
   13857   13839   13854   13875       4   13854   13872   13860   13878       4
   13854   13875   13893   13905       4   13854   13875   13896   13911       4
   13851   13848   13869   13887       4   13848   13833   13845   13866       4
   13842   13830   13839   13857       4   13842   13860   13872   13890       4
   13839   13854   13872   13890       4   13836   13842   13860   13878       4
   13833   13845   13863   13884       4   13833   13848   13869   13887       4
   13830   13842   13860   13878       4   13827   13833   13845   13866       4
   13824   13830   13839   13857       4   14196   14181   14193   14199       1
   14196   14181   14193   14202       1   14196   14181   14193   14205       1
   14190   14181   14193   14199       1   14190   14181   14193   14202       1
   14190   14181   14193   14205       1   14187   14178   14181   14190       1
   14187   14178   14181   14193       2   14187   14178   14181   14196       1
   14184   14178   14181   14190       1   14184   14178   14181   14193       2
   14184   14178   14181   14196       1   14178   14181   14193   14199       2
   14178   14181   14193   14202       2   14178   14181   14193   14205       2
   14175   14163   14178   14181       2   14175   14163   14178   14184       1
   14175   14163   14178   14187       1   14172   14163   14178   14181       2
   14172   14163   14178   14184       1   14172   14163   14178   14187       1
   14169   14154   14163   14172       1   14169   14154   14163   14175       1
   14169   14154   14163   14178       2   14166   14154   14163   14172       1
   14166   14154   14163   14175       1   14166   14154   14163   14178       2
   14163   14178   14181   14190       2   14163   14178   14181   14196       2
   14160   14145   14154   14163       2   14160   14145   14154   14166       1
   14160   14145   14154   14169       1   14157   14145   14154   14163       2
   14157   14145   14154   14166       1   14157   14145   14154   14169       1
   14154   14163   14178   14184       2   14154   14163   14178   14187       2
   14151   14136   14145   14154       2   14151   14136   14145   14157       1
   14151   14136   14145   14160       1   14148   14136   14145   14154       2
   14148   14136   14145   14157       1   14148   14136   14145   14160       1
   14145   14154   14163   14172       2   14145   14154   14163   14175       2
   14142   14124   14136   14145       2   14142   14124   14136   14148       1
   14142   14124   14136   14151       1   14139   14124   14136   14145       2
   14139   14124   14136   14148       1   14139   14124   14136   14151       1
   14136   14145   14154   14166       2   14136   14145   14154   14169       2
   14130   14106   14124   14136       2   14130   14106   14124   14139       1
   14130   14106   14124   14142       1   14127   14106   14124   14136       2
   14127   14106   14124   14139       1   14127   14106   14124   14142       1
   14124   14136   14145   14157       2   14124   14136   14145   14160       2
   14121   14100   14115   14133       4   14118   14094   14115   14133       4
   14112   14091   14106   14124       2   14112   14091   14106   14127       1
   14112   14091   14106   14130       1   14109   14091   14106   14124       2
   14109   14091   14106   14127       1   14109   14091   14106   14130       1
   14106   14124   14136   14148       2   14106   14124   14136   14151       2
   14103   14088   14100   14115       4   14103   14088   14100   14121       4
   14100   14115   14094   14118       4   14097   14085   14094   14115       4
   14097   14085   14094   14118       4   14094   14115   14100   14121       4
   14091   14106   14124   14139       2   14091   14106   14124   14142       2
   14088   14067   14085   14097       4   14088   14100   14115   14133       4
   14085   14067   14088   14103       4   14085   14094   14115   14133       4
   14079   14061   14073   14091       4   14076   14055   14073   14091       4
   14073   14091   14106   14127       5   14073   14091   14106   14130       5
   14070   14052   14064   14082       4   14067   14046   14064   14082       4
   14067   14085   14094   14118       4   14067   14088   14100   14121       4
   14061   14073   14055   14076       4   14061   14073   14091   14109       8
   14061   14073   14091   14112       8   14058   14037   14055   14073       4
   14058   14037   14055   14076       4   14055   14073   14061   14079       4
   14055   14073   14091   14109       8   14055   14073   14091   14112       8
   14049   14031   14046   14064       4   14049   14031   14046   14067       4
   14046   14064   14052   14070       4   14046   14067   14085   14097       4
   14046   14067   14088   14103       4   14043   14040   14061   14079       4
   14040   14025   14037   14058       4   14034   14022   14031   14049       4
   14034   14052   14064   14082       4   14031   14046   14064   14082       4
   14028   14034   14052   14070       4   14025   14037   14055   14076       4
   14025   14040   14061   14079       4   14022   14034   14052   14070       4
   14019   14025   14037   14058       4   14016   14022   14031   14049       4
   14388   14373   14385   14391       1   14388   14373   14385   14394       1
   14388   14373   14385   14397       1   14382   14373   14385   14391       1
   14382   14373   14385   14394       1   14382   14373   14385   14397       1
   14379   14370   14373   14382       1   14379   14370   14373   14385       2
   14379   14370   14373   14388       1   14376   14370   14373   14382       1
   14376   14370   14373   14385       2   14376   14370   14373   14388       1
   14370   14373   14385   14391       2   14370   14373   14385   14394       2
   14370   14373   14385   14397       2   14367   14355   14370   14373       2
   14367   14355   14370   14376       1   14367   14355   14370   14379       1
   14364   14355   14370   14373       2   14364   14355   14370   14376       1
   14364   14355   14370   14379       1   14361   14346   14355   14364       1
   14361   14346   14355   14367       1   14361   14346   14355   14370       2
   14358   14346   14355   14364       1   14358   14346   14355   14367       1
   14358   14346   14355   14370       2   14355   14370   14373   14382       2
   14355   14370   14373   14388       2   14352   14337   14346   14355       2
   14352   14337   14346   14358       1   14352   14337   14346   14361       1
   14349   14337   14346   14355       2   14349   14337   14346   14358       1
   14349   14337   14346   14361       1   14346   14355   14370   14376       2
   14346   14355   14370   14379       2   14343   14328   14337   14346       2
   14343   14328   14337   14349       1   14343   14328   14337   14352       1
   14340   14328   14337   14346       2   14340   14328   14337   14349       1
   14340   14328   14337   14352       1   14337   14346   14355   14364       2
   14337   14346   14355   14367       2   14334   14316   14328   14337       2
   14334   14316   14328   14340       1   14334   14316   14328   14343       1
   14331   14316   14328   14337       2   14331   14316   14328   14340       1
   14331   14316   14328   14343       1   14328   14337   14346   14358       2
   14328   14337   14346   14361       2   14322   14298   14316   14328       2
   14322   14298   14316   14331       1   14322   14298   14316   14334       1
   14319   14298   14316   14328       2   14319   14298   14316   14331       1
   14319   14298   14316   14334       1   14316   14328   14337   14349       2
   14316   14328   14337   14352       2   14313   14292   14307   14325       4
   14310   14286   14307   14325       4   14304   14283   14298   14316       2
   14304   14283   14298   14319       1   14304   14283   14298   14322       1
   14301   14283   14298   14316       2   14301   14283   14298   14319       1
   14301   14283   14298   14322       1   14298   14316   14328   14340       2
   14298   14316   14328   14343       2   14295   14280   14292   14307       4
   14295   14280   14292   14313       4   14292   14307   14286   14310       4
   14289   14277   14286   14307       4   14289   14277   14286   14310       4
   14286   14307   14292   14313       4   14283   14298   14316   14331       2
   14283   14298   14316   14334       2   14280   14259   14277   14289       4
   14280   14292   14307   14325       4   14277   14259   14280   14295       4
   14277   14286   14307   14325       4   14271   14253   14265   14283       4
   14268   14247   14265   14283       4   14265   14283   14298   14319       5
   14265   14283   14298   14322       5   14262   14244   14256   14274       4
   14259   14238   14256   14274       4   14259   14277   14286   14310       4
   14259   14280   14292   14313       4   14253   14265   14247   14268       4
   14253   14265   14283   14301       8   14253   14265   14283   14304       8
   14250   14229   14247   14265       4   14250   14229   14247   14268       4
   14247   14265   14253   14271       4   14247   14265   14283   14301       8
   14247   14265   14283   14304       8   14241   14223   14238   14256       4
   14241   14223   14238   14259       4   14238   14256   14244   14262       4
   14238   14259   14277   14289       4   14238   14259   14280   14295       4
   14235   14232   14253   14271       4   14232   14217   14229   14250       4
   14226   14214   14223   14241       4   14226   14244   14256   14274       4
   14223   14238   14256   14274       4   14220   14226   14244   14262       4
   14217   14229   14247   14268       4   14217   14232   14253   14271       4
   14214   14226   14244   14262       4   14211   14217   14229   14250       4
   14208   14214   14223   14241       4   14580   14565   14577   14583       1
   14580   14565   14577   14586       1   14580   14565   14577   14589       1
   14574   14565   14577   14583       1   14574   14565   14577   14586       1
   14574   14565   14577   14589       1   14571   14562   14565   14574       1
   14571   14562   14565   14577       2   14571   14562   14565   14580       1
   14568   14562   14565   14574       1   14568   14562   14565   14577       2
   14568   14562   14565   14580       1   14562   14565   14577   14583       2
   14562   14565   14577   14586       2   14562   14565   14577   14589       2
   14559   14547   14562   14565       2   14559   14547   14562   14568       1
   14559   14547   14562   14571       1   14556   14547   14562   14565       2
   14556   14547   14562   14568       1   14556   14547   14562   14571       1
   14553   14538   14547   14556       1   14553   14538   14547   14559       1
   14553   14538   14547   14562       2   14550   14538   14547   14556       1
   14550   14538   14547   14559       1   14550   14538   14547   14562       2
   14547   14562   14565   14574       2   14547   14562   14565   14580       2
   14544   14529   14538   14547       2   14544   14529   14538   14550       1
   14544   14529   14538   14553       1   14541   14529   14538   14547       2
   14541   14529   14538   14550       1   14541   14529   14538   14553       1
   14538   14547   14562   14568       2   14538   14547   14562   14571       2
   14535   14520   14529   14538       2   14535   14520   14529   14541       1
   14535   14520   14529   14544       1   14532   14520   14529   14538       2
   14532   14520   14529   14541       1   14532   14520   14529   14544       1
   14529   14538   14547   14556       2   14529   14538   14547   14559       2
   14526   14508   14520   14529       2   14526   14508   14520   14532       1
   14526   14508   14520   14535       1   14523   14508   14520   14529       2
   14523   14508   14520   14532       1   14523   14508   14520   14535       1
   14520   14529   14538   14550       2   14520   14529   14538   14553       2
   14514   14490   14508   14520       2   14514   14490   14508   14523       1
   14514   14490   14508   14526       1   14511   14490   14508   14520       2
   14511   14490   14508   14523       1   14511   14490   14508   14526       1
   14508   14520   14529   14541       2   14508   14520   14529   14544       2
   14505   14484   14499   14517       4   14502   14478   14499   14517       4
   14496   14475   14490   14508       2   14496   14475   14490   14511       1
   14496   14475   14490   14514       1   14493   14475   14490   14508       2
   14493   14475   14490   14511       1   14493   14475   14490   14514       1
   14490   14508   14520   14532       2   14490   14508   14520   14535       2
   14487   14472   14484   14499       4   14487   14472   14484   14505       4
   14484   14499   14478   14502       4   14481   14469   14478   14499       4
   14481   14469   14478   14502       4   14478   14499   14484   14505       4
   14475   14490   14508   14523       2   14475   14490   14508   14526       2
   14472   14451   14469   14481       4   14472   14484   14499   14517       4
   14469   14451   14472   14487       4   14469   14478   14499   14517       4
   14463   14445   14457   14475       4   14460   14439   14457   14475       4
   14457   14475   14490   14511       5   14457   14475   14490   14514       5
   14454   14436   14448   14466       4   14451   14430   14448   14466       4
   14451   14469   14478   14502       4   14451   14472   14484   14505       4
   14445   14457   14439   14460       4   14445   14457   14475   14493       8
   14445   14457   14475   14496       8   14442   14421   14439   14457       4
   14442   14421   14439   14460       4   14439   14457   14445   14463       4
   14439   14457   14475   14493       8   14439   14457   14475   14496       8
   14433   14415   14430   14448       4   14433   14415   14430   14451       4
   14430   14448   14436   14454       4   14430   14451   14469   14481       4
   14430   14451   14472   14487       4   14427   14424   14445   14463       4
   14424   14409   14421   14442       4   14418   14406   14415   14433       4
   14418   14436   14448   14466       4   14415   14430   14448   14466       4
   14412   14418   14436   14454       4   14409   14421   14439   14460       4
   14409   14424   14445   14463       4   14406   14418   14436   14454       4
   14403   14409   14421   14442       4   14400   14406   14415   14433       4
   14772   14757   14769   14775       1   14772   14757   14769   14778       1
   14772   14757   14769   14781       1   14766   14757   14769   14775       1
   14766   14757   14769   14778       1   14766   14757   14769   14781       1
   14763   14754   14757   14766       1   14763   14754   14757   14769       2
   14763   14754   14757   14772       1   14760   14754   14757   14766       1
   14760   14754   14757   14769       2   14760   14754   14757   14772       1
   14754   14757   14769   14775       2   14754   14757   14769   14778       2
   14754   14757   14769   14781       2   14751   14739   14754   14757       2
   14751   14739   14754   14760       1   14751   14739   14754   14763       1
   14748   14739   14754   14757       2   14748   14739   14754   14760       1
   14748   14739   14754   14763       1   14745   14730   14739   14748       1
   14745   14730   14739   14751       1   14745   14730   14739   14754       2
   14742   14730   14739   14748       1   14742   14730   14739   14751       1
   14742   14730   14739   14754       2   14739   14754   14757   14766       2
   14739   14754   14757   14772       2   14736   14721   14730   14739       2
   14736   14721   14730   14742       1   14736   14721   14730   14745       1
   14733   14721   14730   14739       2   14733   14721   14730   14742       1
   14733   14721   14730   14745       1   14730   14739   14754   14760       2
   14730   14739   14754   14763       2   14727   14712   14721   14730       2
   14727   14712   14721   14733       1   14727   14712   14721   14736       1
   14724   14712   14721   14730       2   14724   14712   14721   14733       1
   14724   14712   14721   14736       1   14721   14730   14739   14748       2
   14721   14730   14739   14751       2   14718   14700   14712   14721       2
   14718   14700   14712   14724       1   14718   14700   14712   14727       1
   14715   14700   14712   14721       2   14715   14700   14712   14724       1
   14715   14700   14712   14727       1   14712   14721   14730   14742       2
   14712   14721   14730   14745       2   14706   14682   14700   14712       2
   14706   14682   14700   14715       1   14706   14682   14700   14718       1
   14703   14682   14700   14712       2   14703   14682   14700   14715       1
   14703   14682   14700   14718       1   14700   14712   14721   14733       2
   14700   14712   14721   14736       2   14697   14676   14691   14709       4
   14694   14670   14691   14709       4   14688   14667   14682   14700       2
   14688   14667   14682   14703       1   14688   14667   14682   14706       1
   14685   14667   14682   14700       2   14685   14667   14682   14703       1
   14685   14667   14682   14706       1   14682   14700   14712   14724       2
   14682   14700   14712   14727       2   14679   14664   14676   14691       4
   14679   14664   14676   14697       4   14676   14691   14670   14694       4
   14673   14661   14670   14691       4   14673   14661   14670   14694       4
   14670   14691   14676   14697       4   14667   14682   14700   14715       2
   14667   14682   14700   14718       2   14664   14643   14661   14673       4
   14664   14676   14691   14709       4   14661   14643   14664   14679       4
   14661   14670   14691   14709       4   14655   14637   14649   14667       4
   14652   14631   14649   14667       4   14649   14667   14682   14703       5
   14649   14667   14682   14706       5   14646   14628   14640   14658       4
   14643   14622   14640   14658       4   14643   14661   14670   14694       4
   14643   14664   14676   14697       4   14637   14649   14631   14652       4
   14637   14649   14667   14685       8   14637   14649   14667   14688       8
   14634   14613   14631   14649       4   14634   14613   14631   14652       4
   14631   14649   14637   14655       4   14631   14649   14667   14685       8
   14631   14649   14667   14688       8   14625   14607   14622   14640       4
   14625   14607   14622   14643       4   14622   14640   14628   14646       4
   14622   14643   14661   14673       4   14622   14643   14664   14679       4
   14619   14616   14637   14655       4   14616   14601   14613   14634       4
   14610   14598   14607   14625       4   14610   14628   14640   14658       4
   14607   14622   14640   14658       4   14604   14610   14628   14646       4
   14601   14613   14631   14652       4   14601   14616   14637   14655       4
   14598   14610   14628   14646       4   14595   14601   14613   14634       4
   14592   14598   14607   14625       4   14964   14949   14961   14967       1
   14964   14949   14961   14970       1   14964   14949   14961   14973       1
   14958   14949   14961   14967       1   14958   14949   14961   14970       1
   14958   14949   14961   14973       1   14955   14946   14949   14958       1
   14955   14946   14949   14961       2   14955   14946   14949   14964       1
   14952   14946   14949   14958       1   14952   14946   14949   14961       2
   14952   14946   14949   14964       1   14946   14949   14961   14967       2
   14946   14949   14961   14970       2   14946   14949   14961   14973       2
   14943   14931   14946   14949       2   14943   14931   14946   14952       1
   14943   14931   14946   14955       1   14940   14931   14946   14949       2
   14940   14931   14946   14952       1   14940   14931   14946   14955       1
   14937   14922   14931   14940       1   14937   14922   14931   14943       1
   14937   14922   14931   14946       2   14934   14922   14931   14940       1
   14934   14922   14931   14943       1   14934   14922   14931   14946       2
   14931   14946   14949   14958       2   14931   14946   14949   14964       2
   14928   14913   14922   14931       2   14928   14913   14922   14934       1
   14928   14913   14922   14937       1   14925   14913   14922   14931       2
   14925   14913   14922   14934       1   14925   14913   14922   14937       1
   14922   14931   14946   14952       2   14922   14931   14946   14955       2
   14919   14904   14913   14922       2   14919   14904   14913   14925       1
   14919   14904   14913   14928       1   14916   14904   14913   14922       2
   14916   14904   14913   14925       1   14916   14904   14913   14928       1
   14913   14922   14931   14940       2   14913   14922   14931   14943       2
   14910   14892   14904   14913       2   14910   14892   14904   14916       1
   14910   14892   14904   14919       1   14907   14892   14904   14913       2
   14907   14892   14904   14916       1   14907   14892   14904   14919       1
   14904   14913   14922   14934       2   14904   14913   14922   14937       2
   14898   14874   14892   14904       2   14898   14874   14892   14907       1
   14898   14874   14892   14910       1   14895   14874   14892   14904       2
   14895   14874   14892   14907       1   14895   14874   14892   14910       1
   14892   14904   14913   14925       2   14892   14904   14913   14928       2
   14889   14868   14883   14901       4   14886   14862   14883   14901       4
   14880   14859   14874   14892       2   14880   14859   14874   14895       1
   14880   14859   14874   14898       1   14877   14859   14874   14892       2
   14877   14859   14874   14895       1   14877   14859   14874   14898       1
   14874   14892   14904   14916       2   14874   14892   14904   14919       2
   14871   14856   14868   14883       4   14871   14856   14868   14889       4
   14868   14883   14862   14886       4   14865   14853   14862   14883       4
   14865   14853   14862   14886       4   14862   14883   14868   14889       4
   14859   14874   14892   14907       2   14859   14874   14892   14910       2
   14856   14835   14853   14865       4   14856   14868   14883   14901       4
   14853   14835   14856   14871       4   14853   14862   14883   14901       4
   14847   14829   14841   14859       4   14844   14823   14841   14859       4
   14841   14859   14874   14895       5   14841   14859   14874   14898       5
   14838   14820   14832   14850       4   14835   14814   14832   14850       4
   14835   14853   14862   14886       4   14835   14856   14868   14889       4
   14829   14841   14823   14844       4   14829   14841   14859   14877       8
   14829   14841   14859   14880       8   14826   14805   14823   14841       4
   14826   14805   14823   14844       4   14823   14841   14829   14847       4
   14823   14841   14859   14877       8   14823   14841   14859   14880       8
   14817   14799   14814   14832       4   14817   14799   14814   14835       4
   14814   14832   14820   14838       4   14814   14835   14853   14865       4
   14814   14835   14856   14871       4   14811   14808   14829   14847       4
   14808   14793   14805   14826       4   14802   14790   14799   14817       4
   14802   14820   14832   14850       4   14799   14814   14832   14850       4
   14796   14802   14820   14838       4   14793   14805   14823   14844       4
   14793   14808   14829   14847       4   14790   14802   14820   14838       4
   14787   14793   14805   14826       4   14784   14790   14799   14817       4
   15156   15141   15153   15159       1   15156   15141   15153   15162       1
   15156   15141   15153   15165       1   15150   15141   15153   15159       1
   15150   15141   15153   15162       1   15150   15141   15153   15165       1
   15147   15138   15141   15150       1   15147   15138   15141   15153       2
   15147   15138   15141   15156       1   15144   15138   15141   15150       1
   15144   15138   15141   15153       2   15144   15138   15141   15156       1
   15138   15141   15153   15159       2   15138   15141   15153   15162       2
   15138   15141   15153   15165       2   15135   15123   15138   15141       2
   15135   15123   15138   15144       1   15135   15123   15138   15147       1
   15132   15123   15138   15141       2   15132   15123   15138   15144       1
   15132   15123   15138   15147       1   15129   15114   15123   15132       1
   15129   15114   15123   15135       1   15129   15114   15123   15138       2
   15126   15114   15123   15132       1   15126   15114   15123   15135       1
   15126   15114   15123   15138       2   15123   15138   15141   15150       2
   15123   15138   15141   15156       2   15120   15105   15114   15123       2
   15120   15105   15114   15126       1   15120   15105   15114   15129       1
   15117   15105   15114   15123       2   15117   15105   15114   15126       1
   15117   15105   15114   15129       1   15114   15123   15138   15144       2
   15114   15123   15138   15147       2   15111   15096   15105   15114       2
   15111   15096   15105   15117       1   15111   15096   15105   15120       1
   15108   15096   15105   15114       2   15108   15096   15105   15117       1
   15108   15096   15105   15120       1   15105   15114   15123   15132       2
   15105   15114   15123   15135       2   15102   15084   15096   15105       2
   15102   15084   15096   15108       1   15102   15084   15096   15111       1
   15099   15084   15096   15105       2   15099   15084   15096   15108       1
   15099   15084   15096   15111       1   15096   15105   15114   15126       2
   15096   15105   15114   15129       2   15090   15066   15084   15096       2
   15090   15066   15084   15099       1   15090   15066   15084   15102       1
   15087   15066   15084   15096       2   15087   15066   15084   15099       1
   15087   15066   15084   15102       1   15084   15096   15105   15117       2
   15084   15096   15105   15120       2   15081   15060   15075   15093       4
   15078   15054   15075   15093       4   15072   15051   15066   15084       2
   15072   15051   15066   15087       1   15072   15051   15066   15090       1
   15069   15051   15066   15084       2   15069   15051   15066   15087       1
   15069   15051   15066   15090       1   15066   15084   15096   15108       2
   15066   15084   15096   15111       2   15063   15048   15060   15075       4
   15063   15048   15060   15081       4   15060   15075   15054   15078       4
   15057   15045   15054   15075       4   15057   15045   15054   15078       4
   15054   15075   15060   15081       4   15051   15066   15084   15099       2
   15051   15066   15084   15102       2   15048   15027   15045   15057       4
   15048   15060   15075   15093       4   15045   15027   15048   15063       4
   15045   15054   15075   15093       4   15039   15021   15033   15051       4
   15036   15015   15033   15051       4   15033   15051   15066   15087       5
   15033   15051   15066   15090       5   15030   15012   15024   15042       4
   15027   15006   15024   15042       4   15027   15045   15054   15078       4
   15027   15048   15060   15081       4   15021   15033   15015   15036       4
   15021   15033   15051   15069       8   15021   15033   15051   15072       8
   15018   14997   15015   15033       4   15018   14997   15015   15036       4
   15015   15033   15021   15039       4   15015   15033   15051   15069       8
   15015   15033   15051   15072       8   15009   14991   15006   15024       4
   15009   14991   15006   15027       4   15006   15024   15012   15030       4
   15006   15027   15045   15057       4   15006   15027   15048   15063       4
   15003   15000   15021   15039       4   15000   14985   14997   15018       4
   14994   14982   14991   15009       4   14994   15012   15024   15042       4
   14991   15006   15024   15042       4   14988   14994   15012   15030       4
   14985   14997   15015   15036       4   14985   15000   15021   15039       4
   14982   14994   15012   15030       4   14979   14985   14997   15018       4
   14976   14982   14991   15009       4   15348   15333   15345   15351       1
   15348   15333   15345   15354       1   15348   15333   15345   15357       1
   15342   15333   15345   15351       1   15342   15333   15345   15354       1
   15342   15333   15345   15357       1   15339   15330   15333   15342       1
   15339   15330   15333   15345       2   15339   15330   15333   15348       1
   15336   15330   15333   15342       1   15336   15330   15333   15345       2
   15336   15330   15333   15348       1   15330   15333   15345   15351       2
   15330   15333   15345   15354       2   15330   15333   15345   15357       2
   15327   15315   15330   15333       2   15327   15315   15330   15336       1
   15327   15315   15330   15339       1   15324   15315   15330   15333       2
   15324   15315   15330   15336       1   15324   15315   15330   15339       1
   15321   15306   15315   15324       1   15321   15306   15315   15327       1
   15321   15306   15315   15330       2   15318   15306   15315   15324       1
   15318   15306   15315   15327       1   15318   15306   15315   15330       2
   15315   15330   15333   15342       2   15315   15330   15333   15348       2
   15312   15297   15306   15315       2   15312   15297   15306   15318       1
   15312   15297   15306   15321       1   15309   15297   15306   15315       2
   15309   15297   15306   15318       1   15309   15297   15306   15321       1
   15306   15315   15330   15336       2   15306   15315   15330   15339       2
   15303   15288   15297   15306       2   15303   15288   15297   15309       1
   15303   15288   15297   15312       1   15300   15288   15297   15306       2
   15300   15288   15297   15309       1   15300   15288   15297   15312       1
   15297   15306   15315   15324       2   15297   15306   15315   15327       2
   15294   15276   15288   15297       2   15294   15276   15288   15300       1
   15294   15276   15288   15303       1   15291   15276   15288   15297       2
   15291   15276   15288   15300       1   15291   15276   15288   15303       1
   15288   15297   15306   15318       2   15288   15297   15306   15321       2
   15282   15258   15276   15288       2   15282   15258   15276   15291       1
   15282   15258   15276   15294       1   15279   15258   15276   15288       2
   15279   15258   15276   15291       1   15279   15258   15276   15294       1
   15276   15288   15297   15309       2   15276   15288   15297   15312       2
   15273   15252   15267   15285       4   15270   15246   15267   15285       4
   15264   15243   15258   15276       2   15264   15243   15258   15279       1
   15264   15243   15258   15282       1   15261   15243   15258   15276       2
   15261   15243   15258   15279       1   15261   15243   15258   15282       1
   15258   15276   15288   15300       2   15258   15276   15288   15303       2
   15255   15240   15252   15267       4   15255   15240   15252   15273       4
   15252   15267   15246   15270       4   15249   15237   15246   15267       4
   15249   15237   15246   15270       4   15246   15267   15252   15273       4
   15243   15258   15276   15291       2   15243   15258   15276   15294       2
   15240   15219   15237   15249       4   15240   15252   15267   15285       4
   15237   15219   15240   15255       4   15237   15246   15267   15285       4
   15231   15213   15225   15243       4   15228   15207   15225   15243       4
   15225   15243   15258   15279       5   15225   15243   15258   15282       5
   15222   15204   15216   15234       4   15219   15198   15216   15234       4
   15219   15237   15246   15270       4   15219   15240   15252   15273       4
   15213   15225   15207   15228       4   15213   15225   15243   15261       8
   15213   15225   15243   15264       8   15210   15189   15207   15225       4
   15210   15189   15207   15228       4   15207   15225   15213   15231       4
   15207   15225   15243   15261       8   15207   15225   15243   15264       8
   15201   15183   15198   15216       4   15201   15183   15198   15219       4
   15198   15216   15204   15222       4   15198   15219   15237   15249       4
   15198   15219   15240   15255       4   15195   15192   15213   15231       4
   15192   15177   15189   15210       4   15186   15174   15183   15201       4
   15186   15204   15216   15234       4   15183   15198   15216   15234       4
   15180   15186   15204   15222       4   15177   15189   15207   15228       4
   15177   15192   15213   15231       4   15174   15186   15204   15222       4
   15171   15177   15189   15210       4   15168   15174   15183   15201       4
   15540   15525   15537   15543       1   15540   15525   15537   15546       1
   15540   15525   15537   15549       1   15534   15525   15537   15543       1
   15534   15525   15537   15546       1   15534   15525   15537   15549       1
   15531   15522   15525   15534       1   15531   15522   15525   15537       2
   15531   15522   15525   15540       1   15528   15522   15525   15534       1
   15528   15522   15525   15537       2   15528   15522   15525   15540       1
   15522   15525   15537   15543       2   15522   15525   15537   15546       2
   15522   15525   15537   15549       2   15519   15507   15522   15525       2
   15519   15507   15522   15528       1   15519   15507   15522   15531       1
   15516   15507   15522   15525       2   15516   15507   15522   15528       1
   15516   15507   15522   15531       1   15513   15498   15507   15516       1
   15513   15498   15507   15519       1   15513   15498   15507   15522       2
   15510   15498   15507   15516       1   15510   15498   15507   15519       1
   15510   15498   15507   15522       2   15507   15522   15525   15534       2
   15507   15522   15525   15540       2   15504   15489   15498   15507       2
   15504   15489   15498   15510       1   15504   15489   15498   15513       1
   15501   15489   15498   15507       2   15501   15489   15498   15510       1
   15501   15489   15498   15513       1   15498   15507   15522   15528       2
   15498   15507   15522   15531       2   15495   15480   15489   15498       2
   15495   15480   15489   15501       1   15495   15480   15489   15504       1
   15492   15480   15489   15498       2   15492   15480   15489   15501       1
   15492   15480   15489   15504       1   15489   15498   15507   15516       2
   15489   15498   15507   15519       2   15486   15468   15480   15489       2
   15486   15468   15480   15492       1   15486   15468   15480   15495       1
   15483   15468   15480   15489       2   15483   15468   15480   15492       1
   15483   15468   15480   15495       1   15480   15489   15498   15510       2
   15480   15489   15498   15513       2   15474   15450   15468   15480       2
   15474   15450   15468   15483       1   15474   15450   15468   15486       1
   15471   15450   15468   15480       2   15471   15450   15468   15483       1
   15471   15450   15468   15486       1   15468   15480   15489   15501       2
   15468   15480   15489   15504       2   15465   15444   15459   15477       4
   15462   15438   15459   15477       4   15456   15435   15450   15468       2
   15456   15435   15450   15471       1   15456   15435   15450   15474       1
   15453   15435   15450   15468       2   15453   15435   15450   15471       1
   15453   15435   15450   15474       1   15450   15468   15480   15492       2
   15450   15468   15480   15495       2   15447   15432   15444   15459       4
   15447   15432   15444   15465       4   15444   15459   15438   15462       4
   15441   15429   15438   15459       4   15441   15429   15438   15462       4
   15438   15459   15444   15465       4   15435   15450   15468   15483       2
   15435   15450   15468   15486       2   15432   15411   15429   15441       4
   15432   15444   15459   15477       4   15429   15411   15432   15447       4
   15429   15438   15459   15477       4   15423   15405   15417   15435       4
   15420   15399   15417   15435       4   15417   15435   15450   15471       5
   15417   15435   15450   15474       5   15414   15396   15408   15426       4
   15411   15390   15408   15426       4   15411   15429   15438   15462       4
   15411   15432   15444   15465       4   15405   15417   15399   15420       4
   15405   15417   15435   15453       8   15405   15417   15435   15456       8
   15402   15381   15399   15417       4   15402   15381   15399   15420       4
   15399   15417   15405   15423       4   15399   15417   15435   15453       8
   15399   15417   15435   15456       8   15393   15375   15390   15408       4
   15393   15375   15390   15411       4   15390   15408   15396   15414       4
   15390   15411   15429   15441       4   15390   15411   15432   15447       4
   15387   15384   15405   15423       4   15384   15369   15381   15402       4
   15378   15366   15375   15393       4   15378   15396   15408   15426       4
   15375   15390   15408   15426       4   15372   15378   15396   15414       4
   15369   15381   15399   15420       4   15369   15384   15405   15423       4
   15366   15378   15396   15414       4   15363   15369   15381   15402       4
   15360   15366   15375   15393       4   15732   15717   15729   15735       1
   15732   15717   15729   15738       1   15732   15717   15729   15741       1
   15726   15717   15729   15735       1   15726   15717   15729   15738       1
   15726   15717   15729   15741       1   15723   15714   15717   15726       1
   15723   15714   15717   15729       2   15723   15714   15717   15732       1
   15720   15714   15717   15726       1   15720   15714   15717   15729       2
   15720   15714   15717   15732       1   15714   15717   15729   15735       2
   15714   15717   15729   15738       2   15714   15717   15729   15741       2
   15711   15699   15714   15717       2   15711   15699   15714   15720       1
   15711   15699   15714   15723       1   15708   15699   15714   15717       2
   15708   15699   15714   15720       1   15708   15699   15714   15723       1
   15705   15690   15699   15708       1   15705   15690   15699   15711       1
   15705   15690   15699   15714       2   15702   15690   15699   15708       1
   15702   15690   15699   15711       1   15702   15690   15699   15714       2
   15699   15714   15717   15726       2   15699   15714   15717   15732       2
   15696   15681   15690   15699       2   15696   15681   15690   15702       1
   15696   15681   15690   15705       1   15693   15681   15690   15699       2
   15693   15681   15690   15702       1   15693   15681   15690   15705       1
   15690   15699   15714   15720       2   15690   15699   15714   15723       2
   15687   15672   15681   15690       2   15687   15672   15681   15693       1
   15687   15672   15681   15696       1   15684   15672   15681   15690       2
   15684   15672   15681   15693       1   15684   15672   15681   15696       1
   15681   15690   15699   15708       2   15681   15690   15699   15711       2
   15678   15660   15672   15681       2   15678   15660   15672   15684       1
   15678   15660   15672   15687       1   15675   15660   15672   15681       2
   15675   15660   15672   15684       1   15675   15660   15672   15687       1
   15672   15681   15690   15702       2   15672   15681   15690   15705       2
   15666   15642   15660   15672       2   15666   15642   15660   15675       1
   15666   15642   15660   15678       1   15663   15642   15660   15672       2
   15663   15642   15660   15675       1   15663   15642   15660   15678       1
   15660   15672   15681   15693       2   15660   15672   15681   15696       2
   15657   15636   15651   15669       4   15654   15630   15651   15669       4
   15648   15627   15642   15660       2   15648   15627   15642   15663       1
   15648   15627   15642   15666       1   15645   15627   15642   15660       2
   15645   15627   15642   15663       1   15645   15627   15642   15666       1
   15642   15660   15672   15684       2   15642   15660   15672   15687       2
   15639   15624   15636   15651       4   15639   15624   15636   15657       4
   15636   15651   15630   15654       4   15633   15621   15630   15651       4
   15633   15621   15630   15654       4   15630   15651   15636   15657       4
   15627   15642   15660   15675       2   15627   15642   15660   15678       2
   15624   15603   15621   15633       4   15624   15636   15651   15669       4
   15621   15603   15624   15639       4   15621   15630   15651   15669       4
   15615   15597   15609   15627       4   15612   15591   15609   15627       4
   15609   15627   15642   15663       5   15609   15627   15642   15666       5
   15606   15588   15600   15618       4   15603   15582   15600   15618       4
   15603   15621   15630   15654       4   15603   15624   15636   15657       4
   15597   15609   15591   15612       4   15597   15609   15627   15645       8
   15597   15609   15627   15648       8   15594   15573   15591   15609       4
   15594   15573   15591   15612       4   15591   15609   15597   15615       4
   15591   15609   15627   15645       8   15591   15609   15627   15648       8
   15585   15567   15582   15600       4   15585   15567   15582   15603       4
   15582   15600   15588   15606       4   15582   15603   15621   15633       4
   15582   15603   15624   15639       4   15579   15576   15597   15615       4
   15576   15561   15573   15594       4   15570   15558   15567   15585       4
   15570   15588   15600   15618       4   15567   15582   15600   15618       4
   15564   15570   15588   15606       4   15561   15573   15591   15612       4
   15561   15576   15597   15615       4   15558   15570   15588   15606       4
   15555   15561   15573   15594       4   15552   15558   15567   15585       4
   15924   15909   15921   15927       1   15924   15909   15921   15930       1
   15924   15909   15921   15933       1   15918   15909   15921   15927       1
   15918   15909   15921   15930       1   15918   15909   15921   15933       1
   15915   15906   15909   15918       1   15915   15906   15909   15921       2
   15915   15906   15909   15924       1   15912   15906   15909   15918       1
   15912   15906   15909   15921       2   15912   15906   15909   15924       1
   15906   15909   15921   15927       2   15906   15909   15921   15930       2
   15906   15909   15921   15933       2   15903   15891   15906   15909       2
   15903   15891   15906   15912       1   15903   15891   15906   15915       1
   15900   15891   15906   15909       2   15900   15891   15906   15912       1
   15900   15891   15906   15915       1   15897   15882   15891   15900       1
   15897   15882   15891   15903       1   15897   15882   15891   15906       2
   15894   15882   15891   15900       1   15894   15882   15891   15903       1
   15894   15882   15891   15906       2   15891   15906   15909   15918       2
   15891   15906   15909   15924       2   15888   15873   15882   15891       2
   15888   15873   15882   15894       1   15888   15873   15882   15897       1
   15885   15873   15882   15891       2   15885   15873   15882   15894       1
   15885   15873   15882   15897       1   15882   15891   15906   15912       2
   15882   15891   15906   15915       2   15879   15864   15873   15882       2
   15879   15864   15873   15885       1   15879   15864   15873   15888       1
   15876   15864   15873   15882       2   15876   15864   15873   15885       1
   15876   15864   15873   15888       1   15873   15882   15891   15900       2
   15873   15882   15891   15903       2   15870   15852   15864   15873       2
   15870   15852   15864   15876       1   15870   15852   15864   15879       1
   15867   15852   15864   15873       2   15867   15852   15864   15876       1
   15867   15852   15864   15879       1   15864   15873   15882   15894       2
   15864   15873   15882   15897       2   15858   15834   15852   15864       2
   15858   15834   15852   15867       1   15858   15834   15852   15870       1
   15855   15834   15852   15864       2   15855   15834   15852   15867       1
   15855   15834   15852   15870       1   15852   15864   15873   15885       2
   15852   15864   15873   15888       2   15849   15828   15843   15861       4
   15846   15822   15843   15861       4   15840   15819   15834   15852       2
   15840   15819   15834   15855       1   15840   15819   15834   15858       1
   15837   15819   15834   15852       2   15837   15819   15834   15855       1
   15837   15819   15834   15858       1   15834   15852   15864   15876       2
   15834   15852   15864   15879       2   15831   15816   15828   15843       4
   15831   15816   15828   15849       4   15828   15843   15822   15846       4
   15825   15813   15822   15843       4   15825   15813   15822   15846       4
   15822   15843   15828   15849       4   15819   15834   15852   15867       2
   15819   15834   15852   15870       2   15816   15795   15813   15825       4
   15816   15828   15843   15861       4   15813   15795   15816   15831       4
   15813   15822   15843   15861       4   15807   15789   15801   15819       4
   15804   15783   15801   15819       4   15801   15819   15834   15855       5
   15801   15819   15834   15858       5   15798   15780   15792   15810       4
   15795   15774   15792   15810       4   15795   15813   15822   15846       4
   15795   15816   15828   15849       4   15789   15801   15783   15804       4
   15789   15801   15819   15837       8   15789   15801   15819   15840       8
   15786   15765   15783   15801       4   15786   15765   15783   15804       4
   15783   15801   15789   15807       4   15783   15801   15819   15837       8
   15783   15801   15819   15840       8   15777   15759   15774   15792       4
   15777   15759   15774   15795       4   15774   15792   15780   15798       4
   15774   15795   15813   15825       4   15774   15795   15816   15831       4
   15771   15768   15789   15807       4   15768   15753   15765   15786       4
   15762   15750   15759   15777       4   15762   15780   15792   15810       4
   15759   15774   15792   15810       4   15756   15762   15780   15798       4
   15753   15765   15783   15804       4   15753   15768   15789   15807       4
   15750   15762   15780   15798       4   15747   15753   15765   15786       4
   15744   15750   15759   15777       4   16116   16101   16113   16119       1
   16116   16101   16113   16122       1   16116   16101   16113   16125       1
   16110   16101   16113   16119       1   16110   16101   16113   16122       1
   16110   16101   16113   16125       1   16107   16098   16101   16110       1
   16107   16098   16101   16113       2   16107   16098   16101   16116       1
   16104   16098   16101   16110       1   16104   16098   16101   16113       2
   16104   16098   16101   16116       1   16098   16101   16113   16119       2
   16098   16101   16113   16122       2   16098   16101   16113   16125       2
   16095   16083   16098   16101       2   16095   16083   16098   16104       1
   16095   16083   16098   16107       1   16092   16083   16098   16101       2
   16092   16083   16098   16104       1   16092   16083   16098   16107       1
   16089   16074   16083   16092       1   16089   16074   16083   16095       1
   16089   16074   16083   16098       2   16086   16074   16083   16092       1
   16086   16074   16083   16095       1   16086   16074   16083   16098       2
   16083   16098   16101   16110       2   16083   16098   16101   16116       2
   16080   16065   16074   16083       2   16080   16065   16074   16086       1
   16080   16065   16074   16089       1   16077   16065   16074   16083       2
   16077   16065   16074   16086       1   16077   16065   16074   16089       1
   16074   16083   16098   16104       2   16074   16083   16098   16107       2
   16071   16056   16065   16074       2   16071   16056   16065   16077       1
   16071   16056   16065   16080       1   16068   16056   16065   16074       2
   16068   16056   16065   16077       1   16068   16056   16065   16080       1
   16065   16074   16083   16092       2   16065   16074   16083   16095       2
   16062   16044   16056   16065       2   16062   16044   16056   16068       1
   16062   16044   16056   16071       1   16059   16044   16056   16065       2
   16059   16044   16056   16068       1   16059   16044   16056   16071       1
   16056   16065   16074   16086       2   16056   16065   16074   16089       2
   16050   16026   16044   16056       2   16050   16026   16044   16059       1
   16050   16026   16044   16062       1   16047   16026   16044   16056       2
   16047   16026   16044   16059       1   16047   16026   16044   16062       1
   16044   16056   16065   16077       2   16044   16056   16065   16080       2
   16041   16020   16035   16053       4   16038   16014   16035   16053       4
   16032   16011   16026   16044       2   16032   16011   16026   16047       1
   16032   16011   16026   16050       1   16029   16011   16026   16044       2
   16029   16011   16026   16047       1   16029   16011   16026   16050       1
   16026   16044   16056   16068       2   16026   16044   16056   16071       2
   16023   16008   16020   16035       4   16023   16008   16020   16041       4
   16020   16035   16014   16038       4   16017   16005   16014   16035       4
   16017   16005   16014   16038       4   16014   16035   16020   16041       4
   16011   16026   16044   16059       2   16011   16026   16044   16062       2
   16008   15987   16005   16017       4   16008   16020   16035   16053       4
   16005   15987   16008   16023       4   16005   16014   16035   16053       4
   15999   15981   15993   16011       4   15996   15975   15993   16011       4
   15993   16011   16026   16047       5   15993   16011   16026   16050       5
   15990   15972   15984   16002       4   15987   15966   15984   16002       4
   15987   16005   16014   16038       4   15987   16008   16020   16041       4
   15981   15993   15975   15996       4   15981   15993   16011   16029       8
   15981   15993   16011   16032       8   15978   15957   15975   15993       4
   15978   15957   15975   15996       4   15975   15993   15981   15999       4
   15975   15993   16011   16029       8   15975   15993   16011   16032       8
   15969   15951   15966   15984       4   15969   15951   15966   15987       4
   15966   15984   15972   15990       4   15966   15987   16005   16017       4
   15966   15987   16008   16023       4   15963   15960   15981   15999       4
   15960   15945   15957   15978       4   15954   15942   15951   15969       4
   15954   15972   15984   16002       4   15951   15966   15984   16002       4
   15948   15954   15972   15990       4   15945   15957   15975   15996       4
   15945   15960   15981   15999       4   15942   15954   15972   15990       4
   15939   15945   15957   15978       4   15936   15942   15951   15969       4
   16308   16293   16305   16311       1   16308   16293   16305   16314       1
   16308   16293   16305   16317       1   16302   16293   16305   16311       1
   16302   16293   16305   16314       1   16302   16293   16305   16317       1
   16299   16290   16293   16302       1   16299   16290   16293   16305       2
   16299   16290   16293   16308       1   16296   16290   16293   16302       1
   16296   16290   16293   16305       2   16296   16290   16293   16308       1
   16290   16293   16305   16311       2   16290   16293   16305   16314       2
   16290   16293   16305   16317       2   16287   16275   16290   16293       2
   16287   16275   16290   16296       1   16287   16275   16290   16299       1
   16284   16275   16290   16293       2   16284   16275   16290   16296       1
   16284   16275   16290   16299       1   16281   16266   16275   16284       1
   16281   16266   16275   16287       1   16281   16266   16275   16290       2
   16278   16266   16275   16284       1   16278   16266   16275   16287       1
   16278   16266   16275   16290       2   16275   16290   16293   16302       2
   16275   16290   16293   16308       2   16272   16257   16266   16275       2
   16272   16257   16266   16278       1   16272   16257   16266   16281       1
   16269   16257   16266   16275       2   16269   16257   16266   16278       1
   16269   16257   16266   16281       1   16266   16275   16290   16296       2
   16266   16275   16290   16299       2   16263   16248   16257   16266       2
   16263   16248   16257   16269       1   16263   16248   16257   16272       1
   16260   16248   16257   16266       2   16260   16248   16257   16269       1
   16260   16248   16257   16272       1   16257   16266   16275   16284       2
   16257   16266   16275   16287       2   16254   16236   16248   16257       2
   16254   16236   16248   16260       1   16254   16236   16248   16263       1
   16251   16236   16248   16257       2   16251   16236   16248   16260       1
   16251   16236   16248   16263       1   16248   16257   16266   16278       2
   16248   16257   16266   16281       2   16242   16218   16236   16248       2
   16242   16218   16236   16251       1   16242   16218   16236   16254       1
   16239   16218   16236   16248       2   16239   16218   16236   16251       1
   16239   16218   16236   16254       1   16236   16248   16257   16269       2
   16236   16248   16257   16272       2   16233   16212   16227   16245       4
   16230   16206   16227   16245       4   16224   16203   16218   16236       2
   16224   16203   16218   16239       1   16224   16203   16218   16242       1
   16221   16203   16218   16236       2   16221   16203   16218   16239       1
   16221   16203   16218   16242       1   16218   16236   16248   16260       2
   16218   16236   16248   16263       2   16215   16200   16212   16227       4
   16215   16200   16212   16233       4   16212   16227   16206   16230       4
   16209   16197   16206   16227       4   16209   16197   16206   16230       4
   16206   16227   16212   16233       4   16203   16218   16236   16251       2
   16203   16218   16236   16254       2   16200   16179   16197   16209       4
   16200   16212   16227   16245       4   16197   16179   16200   16215       4
   16197   16206   16227   16245       4   16191   16173   16185   16203       4
   16188   16167   16185   16203       4   16185   16203   16218   16239       5
   16185   16203   16218   16242       5   16182   16164   16176   16194       4
   16179   16158   16176   16194       4   16179   16197   16206   16230       4
   16179   16200   16212   16233       4   16173   16185   16167   16188       4
   16173   16185   16203   16221       8   16173   16185   16203   16224       8
   16170   16149   16167   16185       4   16170   16149   16167   16188       4
   16167   16185   16173   16191       4   16167   16185   16203   16221       8
   16167   16185   16203   16224       8   16161   16143   16158   16176       4
   16161   16143   16158   16179       4   16158   16176   16164   16182       4
   16158   16179   16197   16209       4   16158   16179   16200   16215       4
   16155   16152   16173   16191       4   16152   16137   16149   16170       4
   16146   16134   16143   16161       4   16146   16164   16176   16194       4
   16143   16158   16176   16194       4   16140   16146   16164   16182       4
   16137   16149   16167   16188       4   16137   16152   16173   16191       4
   16134   16146   16164   16182       4   16131   16137   16149   16170       4
   16128   16134   16143   16161       4   16500   16485   16497   16503       1
   16500   16485   16497   16506       1   16500   16485   16497   16509       1
   16494   16485   16497   16503       1   16494   16485   16497   16506       1
   16494   16485   16497   16509       1   16491   16482   16485   16494       1
   16491   16482   16485   16497       2   16491   16482   16485   16500       1
   16488   16482   16485   16494       1   16488   16482   16485   16497       2
   16488   16482   16485   16500       1   16482   16485   16497   16503       2
   16482   16485   16497   16506       2   16482   16485   16497   16509       2
   16479   16467   16482   16485       2   16479   16467   16482   16488       1
   16479   16467   16482   16491       1   16476   16467   16482   16485       2
   16476   16467   16482   16488       1   16476   16467   16482   16491       1
   16473   16458   16467   16476       1   16473   16458   16467   16479       1
   16473   16458   16467   16482       2   16470   16458   16467   16476       1
   16470   16458   16467   16479       1   16470   16458   16467   16482       2
   16467   16482   16485   16494       2   16467   16482   16485   16500       2
   16464   16449   16458   16467       2   16464   16449   16458   16470       1
   16464   16449   16458   16473       1   16461   16449   16458   16467       2
   16461   16449   16458   16470       1   16461   16449   16458   16473       1
   16458   16467   16482   16488       2   16458   16467   16482   16491       2
   16455   16440   16449   16458       2   16455   16440   16449   16461       1
   16455   16440   16449   16464       1   16452   16440   16449   16458       2
   16452   16440   16449   16461       1   16452   16440   16449   16464       1
   16449   16458   16467   16476       2   16449   16458   16467   16479       2
   16446   16428   16440   16449       2   16446   16428   16440   16452       1
   16446   16428   16440   16455       1   16443   16428   16440   16449       2
   16443   16428   16440   16452       1   16443   16428   16440   16455       1
   16440   16449   16458   16470       2   16440   16449   16458   16473       2
   16434   16410   16428   16440       2   16434   16410   16428   16443       1
   16434   16410   16428   16446       1   16431   16410   16428   16440       2
   16431   16410   16428   16443       1   16431   16410   16428   16446       1
   16428   16440   16449   16461       2   16428   16440   16449   16464       2
   16425   16404   16419   16437       4   16422   16398   16419   16437       4
   16416   16395   16410   16428       2   16416   16395   16410   16431       1
   16416   16395   16410   16434       1   16413   16395   16410   16428       2
   16413   16395   16410   16431       1   16413   16395   16410   16434       1
   16410   16428   16440   16452       2   16410   16428   16440   16455       2
   16407   16392   16404   16419       4   16407   16392   16404   16425       4
   16404   16419   16398   16422       4   16401   16389   16398   16419       4
   16401   16389   16398   16422       4   16398   16419   16404   16425       4
   16395   16410   16428   16443       2   16395   16410   16428   16446       2
   16392   16371   16389   16401       4   16392   16404   16419   16437       4
   16389   16371   16392   16407       4   16389   16398   16419   16437       4
   16383   16365   16377   16395       4   16380   16359   16377   16395       4
   16377   16395   16410   16431       5   16377   16395   16410   16434       5
   16374   16356   16368   16386       4   16371   16350   16368   16386       4
   16371   16389   16398   16422       4   16371   16392   16404   16425       4
   16365   16377   16359   16380       4   16365   16377   16395   16413       8
   16365   16377   16395   16416       8   16362   16341   16359   16377       4
   16362   16341   16359   16380       4   16359   16377   16365   16383       4
   16359   16377   16395   16413       8   16359   16377   16395   16416       8
   16353   16335   16350   16368       4   16353   16335   16350   16371       4
   16350   16368   16356   16374       4   16350   16371   16389   16401       4
   16350   16371   16392   16407       4   16347   16344   16365   16383       4
   16344   16329   16341   16362       4   16338   16326   16335   16353       4
   16338   16356   16368   16386       4   16335   16350   16368   16386       4
   16332   16338   16356   16374       4   16329   16341   16359   16380       4
   16329   16344   16365   16383       4   16326   16338   16356   16374       4
   16323   16329   16341   16362       4   16320   16326   16335   16353       4
   16692   16677   16689   16695       1   16692   16677   16689   16698       1
   16692   16677   16689   16701       1   16686   16677   16689   16695       1
   16686   16677   16689   16698       1   16686   16677   16689   16701       1
   16683   16674   16677   16686       1   16683   16674   16677   16689       2
   16683   16674   16677   16692       1   16680   16674   16677   16686       1
   16680   16674   16677   16689       2   16680   16674   16677   16692       1
   16674   16677   16689   16695       2   16674   16677   16689   16698       2
   16674   16677   16689   16701       2   16671   16659   16674   16677       2
   16671   16659   16674   16680       1   16671   16659   16674   16683       1
   16668   16659   16674   16677       2   16668   16659   16674   16680       1
   16668   16659   16674   16683       1   16665   16650   16659   16668       1
   16665   16650   16659   16671       1   16665   16650   16659   16674       2
   16662   16650   16659   16668       1   16662   16650   16659   16671       1
   16662   16650   16659   16674       2   16659   16674   16677   16686       2
   16659   16674   16677   16692       2   16656   16641   16650   16659       2
   16656   16641   16650   16662       1   16656   16641   16650   16665       1
   16653   16641   16650   16659       2   16653   16641   16650   16662       1
   16653   16641   16650   16665       1   16650   16659   16674   16680       2
   16650   16659   16674   16683       2   16647   16632   16641   16650       2
   16647   16632   16641   16653       1   16647   16632   16641   16656       1
   16644   16632   16641   16650       2   16644   16632   16641   16653       1
   16644   16632   16641   16656       1   16641   16650   16659   16668       2
   16641   16650   16659   16671       2   16638   16620   16632   16641       2
   16638   16620   16632   16644       1   16638   16620   16632   16647       1
   16635   16620   16632   16641       2   16635   16620   16632   16644       1
   16635   16620   16632   16647       1   16632   16641   16650   16662       2
   16632   16641   16650   16665       2   16626   16602   16620   16632       2
   16626   16602   16620   16635       1   16626   16602   16620   16638       1
   16623   16602   16620   16632       2   16623   16602   16620   16635       1
   16623   16602   16620   16638       1   16620   16632   16641   16653       2
   16620   16632   16641   16656       2   16617   16596   16611   16629       4
   16614   16590   16611   16629       4   16608   16587   16602   16620       2
   16608   16587   16602   16623       1   16608   16587   16602   16626       1
   16605   16587   16602   16620       2   16605   16587   16602   16623       1
   16605   16587   16602   16626       1   16602   16620   16632   16644       2
   16602   16620   16632   16647       2   16599   16584   16596   16611       4
   16599   16584   16596   16617       4   16596   16611   16590   16614       4
   16593   16581   16590   16611       4   16593   16581   16590   16614       4
   16590   16611   16596   16617       4   16587   16602   16620   16635       2
   16587   16602   16620   16638       2   16584   16563   16581   16593       4
   16584   16596   16611   16629       4   16581   16563   16584   16599       4
   16581   16590   16611   16629       4   16575   16557   16569   16587       4
   16572   16551   16569   16587       4   16569   16587   16602   16623       5
   16569   16587   16602   16626       5   16566   16548   16560   16578       4
   16563   16542   16560   16578       4   16563   16581   16590   16614       4
   16563   16584   16596   16617       4   16557   16569   16551   16572       4
   16557   16569   16587   16605       8   16557   16569   16587   16608       8
   16554   16533   16551   16569       4   16554   16533   16551   16572       4
   16551   16569   16557   16575       4   16551   16569   16587   16605       8
   16551   16569   16587   16608       8   16545   16527   16542   16560       4
   16545   16527   16542   16563       4   16542   16560   16548   16566       4
   16542   16563   16581   16593       4   16542   16563   16584   16599       4
   16539   16536   16557   16575       4   16536   16521   16533   16554       4
   16530   16518   16527   16545       4   16530   16548   16560   16578       4
   16527   16542   16560   16578       4   16524   16530   16548   16566       4
   16521   16533   16551   16572       4   16521   16536   16557   16575       4
   16518   16530   16548   16566       4   16515   16521   16533   16554       4
   16512   16518   16527   16545       4   16884   16869   16881   16887       1
   16884   16869   16881   16890       1   16884   16869   16881   16893       1
   16878   16869   16881   16887       1   16878   16869   16881   16890       1
   16878   16869   16881   16893       1   16875   16866   16869   16878       1
   16875   16866   16869   16881       2   16875   16866   16869   16884       1
   16872   16866   16869   16878       1   16872   16866   16869   16881       2
   16872   16866   16869   16884       1   16866   16869   16881   16887       2
   16866   16869   16881   16890       2   16866   16869   16881   16893       2
   16863   16851   16866   16869       2   16863   16851   16866   16872       1
   16863   16851   16866   16875       1   16860   16851   16866   16869       2
   16860   16851   16866   16872       1   16860   16851   16866   16875       1
   16857   16842   16851   16860       1   16857   16842   16851   16863       1
   16857   16842   16851   16866       2   16854   16842   16851   16860       1
   16854   16842   16851   16863       1   16854   16842   16851   16866       2
   16851   16866   16869   16878       2   16851   16866   16869   16884       2
   16848   16833   16842   16851       2   16848   16833   16842   16854       1
   16848   16833   16842   16857       1   16845   16833   16842   16851       2
   16845   16833   16842   16854       1   16845   16833   16842   16857       1
   16842   16851   16866   16872       2   16842   16851   16866   16875       2
   16839   16824   16833   16842       2   16839   16824   16833   16845       1
   16839   16824   16833   16848       1   16836   16824   16833   16842       2
   16836   16824   16833   16845       1   16836   16824   16833   16848       1
   16833   16842   16851   16860       2   16833   16842   16851   16863       2
   16830   16812   16824   16833       2   16830   16812   16824   16836       1
   16830   16812   16824   16839       1   16827   16812   16824   16833       2
   16827   16812   16824   16836       1   16827   16812   16824   16839       1
   16824   16833   16842   16854       2   16824   16833   16842   16857       2
   16818   16794   16812   16824       2   16818   16794   16812   16827       1
   16818   16794   16812   16830       1   16815   16794   16812   16824       2
   16815   16794   16812   16827       1   16815   16794   16812   16830       1
   16812   16824   16833   16845       2   16812   16824   16833   16848       2
   16809   16788   16803   16821       4   16806   16782   16803   16821       4
   16800   16779   16794   16812       2   16800   16779   16794   16815       1
   16800   16779   16794   16818       1   16797   16779   16794   16812       2
   16797   16779   16794   16815       1   16797   16779   16794   16818       1
   16794   16812   16824   16836       2   16794   16812   16824   16839       2
   16791   16776   16788   16803       4   16791   16776   16788   16809       4
   16788   16803   16782   16806       4   16785   16773   16782   16803       4
   16785   16773   16782   16806       4   16782   16803   16788   16809       4
   16779   16794   16812   16827       2   16779   16794   16812   16830       2
   16776   16755   16773   16785       4   16776   16788   16803   16821       4
   16773   16755   16776   16791       4   16773   16782   16803   16821       4
   16767   16749   16761   16779       4   16764   16743   16761   16779       4
   16761   16779   16794   16815       5   16761   16779   16794   16818       5
   16758   16740   16752   16770       4   16755   16734   16752   16770       4
   16755   16773   16782   16806       4   16755   16776   16788   16809       4
   16749   16761   16743   16764       4   16749   16761   16779   16797       8
   16749   16761   16779   16800       8   16746   16725   16743   16761       4
   16746   16725   16743   16764       4   16743   16761   16749   16767       4
   16743   16761   16779   16797       8   16743   16761   16779   16800       8
   16737   16719   16734   16752       4   16737   16719   16734   16755       4
   16734   16752   16740   16758       4   16734   16755   16773   16785       4
   16734   16755   16776   16791       4   16731   16728   16749   16767       4
   16728   16713   16725   16746       4   16722   16710   16719   16737       4
   16722   16740   16752   16770       4   16719   16734   16752   16770       4
   16716   16722   16740   16758       4   16713   16725   16743   16764       4
   16713   16728   16749   16767       4   16710   16722   16740   16758       4
   16707   16713   16725   16746       4   16704   16710   16719   16737       4
   17076   17061   17073   17079       1   17076   17061   17073   17082       1
   17076   17061   17073   17085       1   17070   17061   17073   17079       1
   17070   17061   17073   17082       1   17070   17061   17073   17085       1
   17067   17058   17061   17070       1   17067   17058   17061   17073       2
   17067   17058   17061   17076       1   17064   17058   17061   17070       1
   17064   17058   17061   17073       2   17064   17058   17061   17076       1
   17058   17061   17073   17079       2   17058   17061   17073   17082       2
   17058   17061   17073   17085       2   17055   17043   17058   17061       2
   17055   17043   17058   17064       1   17055   17043   17058   17067       1
   17052   17043   17058   17061       2   17052   17043   17058   17064       1
   17052   17043   17058   17067       1   17049   17034   17043   17052       1
   17049   17034   17043   17055       1   17049   17034   17043   17058       2
   17046   17034   17043   17052       1   17046   17034   17043   17055       1
   17046   17034   17043   17058       2   17043   17058   17061   17070       2
   17043   17058   17061   17076       2   17040   17025   17034   17043       2
   17040   17025   17034   17046       1   17040   17025   17034   17049       1
   17037   17025   17034   17043       2   17037   17025   17034   17046       1
   17037   17025   17034   17049       1   17034   17043   17058   17064       2
   17034   17043   17058   17067       2   17031   17016   17025   17034       2
   17031   17016   17025   17037       1   17031   17016   17025   17040       1
   17028   17016   17025   17034       2   17028   17016   17025   17037       1
   17028   17016   17025   17040       1   17025   17034   17043   17052       2
   17025   17034   17043   17055       2   17022   17004   17016   17025       2
   17022   17004   17016   17028       1   17022   17004   17016   17031       1
   17019   17004   17016   17025       2   17019   17004   17016   17028       1
   17019   17004   17016   17031       1   17016   17025   17034   17046       2
   17016   17025   17034   17049       2   17010   16986   17004   17016       2
   17010   16986   17004   17019       1   17010   16986   17004   17022       1
   17007   16986   17004   17016       2   17007   16986   17004   17019       1
   17007   16986   17004   17022       1   17004   17016   17025   17037       2
   17004   17016   17025   17040       2   17001   16980   16995   17013       4
   16998   16974   16995   17013       4   16992   16971   16986   17004       2
   16992   16971   16986   17007       1   16992   16971   16986   17010       1
   16989   16971   16986   17004       2   16989   16971   16986   17007       1
   16989   16971   16986   17010       1   16986   17004   17016   17028       2
   16986   17004   17016   17031       2   16983   16968   16980   16995       4
   16983   16968   16980   17001       4   16980   16995   16974   16998       4
   16977   16965   16974   16995       4   16977   16965   16974   16998       4
   16974   16995   16980   17001       4   16971   16986   17004   17019       2
   16971   16986   17004   17022       2   16968   16947   16965   16977       4
   16968   16980   16995   17013       4   16965   16947   16968   16983       4
   16965   16974   16995   17013       4   16959   16941   16953   16971       4
   16956   16935   16953   16971       4   16953   16971   16986   17007       5
   16953   16971   16986   17010       5   16950   16932   16944   16962       4
   16947   16926   16944   16962       4   16947   16965   16974   16998       4
   16947   16968   16980   17001       4   16941   16953   16935   16956       4
   16941   16953   16971   16989       8   16941   16953   16971   16992       8
   16938   16917   16935   16953       4   16938   16917   16935   16956       4
   16935   16953   16941   16959       4   16935   16953   16971   16989       8
   16935   16953   16971   16992       8   16929   16911   16926   16944       4
   16929   16911   16926   16947       4   16926   16944   16932   16950       4
   16926   16947   16965   16977       4   16926   16947   16968   16983       4
   16923   16920   16941   16959       4   16920   16905   16917   16938       4
   16914   16902   16911   16929       4   16914   16932   16944   16962       4
   16911   16926   16944   16962       4   16908   16914   16932   16950       4
   16905   16917   16935   16956       4   16905   16920   16941   16959       4
   16902   16914   16932   16950       4   16899   16905   16917   16938       4
   16896   16902   16911   16929       4   17268   17253   17265   17271       1
   17268   17253   17265   17274       1   17268   17253   17265   17277       1
   17262   17253   17265   17271       1   17262   17253   17265   17274       1
   17262   17253   17265   17277       1   17259   17250   17253   17262       1
   17259   17250   17253   17265       2   17259   17250   17253   17268       1
   17256   17250   17253   17262       1   17256   17250   17253   17265       2
   17256   17250   17253   17268       1   17250   17253   17265   17271       2
   17250   17253   17265   17274       2   17250   17253   17265   17277       2
   17247   17235   17250   17253       2   17247   17235   17250   17256       1
   17247   17235   17250   17259       1   17244   17235   17250   17253       2
   17244   17235   17250   17256       1   17244   17235   17250   17259       1
   17241   17226   17235   17244       1   17241   17226   17235   17247       1
   17241   17226   17235   17250       2   17238   17226   17235   17244       1
   17238   17226   17235   17247       1   17238   17226   17235   17250       2
   17235   17250   17253   17262       2   17235   17250   17253   17268       2
   17232   17217   17226   17235       2   17232   17217   17226   17238       1
   17232   17217   17226   17241       1   17229   17217   17226   17235       2
   17229   17217   17226   17238       1   17229   17217   17226   17241       1
   17226   17235   17250   17256       2   17226   17235   17250   17259       2
   17223   17208   17217   17226       2   17223   17208   17217   17229       1
   17223   17208   17217   17232       1   17220   17208   17217   17226       2
   17220   17208   17217   17229       1   17220   17208   17217   17232       1
   17217   17226   17235   17244       2   17217   17226   17235   17247       2
   17214   17196   17208   17217       2   17214   17196   17208   17220       1
   17214   17196   17208   17223       1   17211   17196   17208   17217       2
   17211   17196   17208   17220       1   17211   17196   17208   17223       1
   17208   17217   17226   17238       2   17208   17217   17226   17241       2
   17202   17178   17196   17208       2   17202   17178   17196   17211       1
   17202   17178   17196   17214       1   17199   17178   17196   17208       2
   17199   17178   17196   17211       1   17199   17178   17196   17214       1
   17196   17208   17217   17229       2   17196   17208   17217   17232       2
   17193   17172   17187   17205       4   17190   17166   17187   17205       4
   17184   17163   17178   17196       2   17184   17163   17178   17199       1
   17184   17163   17178   17202       1   17181   17163   17178   17196       2
   17181   17163   17178   17199       1   17181   17163   17178   17202       1
   17178   17196   17208   17220       2   17178   17196   17208   17223       2
   17175   17160   17172   17187       4   17175   17160   17172   17193       4
   17172   17187   17166   17190       4   17169   17157   17166   17187       4
   17169   17157   17166   17190       4   17166   17187   17172   17193       4
   17163   17178   17196   17211       2   17163   17178   17196   17214       2
   17160   17139   17157   17169       4   17160   17172   17187   17205       4
   17157   17139   17160   17175       4   17157   17166   17187   17205       4
   17151   17133   17145   17163       4   17148   17127   17145   17163       4
   17145   17163   17178   17199       5   17145   17163   17178   17202       5
   17142   17124   17136   17154       4   17139   17118   17136   17154       4
   17139   17157   17166   17190       4   17139   17160   17172   17193       4
   17133   17145   17127   17148       4   17133   17145   17163   17181       8
   17133   17145   17163   17184       8   17130   17109   17127   17145       4
   17130   17109   17127   17148       4   17127   17145   17133   17151       4
   17127   17145   17163   17181       8   17127   17145   17163   17184       8
   17121   17103   17118   17136       4   17121   17103   17118   17139       4
   17118   17136   17124   17142       4   17118   17139   17157   17169       4
   17118   17139   17160   17175       4   17115   17112   17133   17151       4
   17112   17097   17109   17130       4   17106   17094   17103   17121       4
   17106   17124   17136   17154       4   17103   17118   17136   17154       4
   17100   17106   17124   17142       4   17097   17109   17127   17148       4
   17097   17112   17133   17151       4   17094   17106   17124   17142       4
   17091   17097   17109   17130       4   17088   17094   17103   17121       4
   17460   17445   17457   17463       1   17460   17445   17457   17466       1
   17460   17445   17457   17469       1   17454   17445   17457   17463       1
   17454   17445   17457   17466       1   17454   17445   17457   17469       1
   17451   17442   17445   17454       1   17451   17442   17445   17457       2
   17451   17442   17445   17460       1   17448   17442   17445   17454       1
   17448   17442   17445   17457       2   17448   17442   17445   17460       1
   17442   17445   17457   17463       2   17442   17445   17457   17466       2
   17442   17445   17457   17469       2   17439   17427   17442   17445       2
   17439   17427   17442   17448       1   17439   17427   17442   17451       1
   17436   17427   17442   17445       2   17436   17427   17442   17448       1
   17436   17427   17442   17451       1   17433   17418   17427   17436       1
   17433   17418   17427   17439       1   17433   17418   17427   17442       2
   17430   17418   17427   17436       1   17430   17418   17427   17439       1
   17430   17418   17427   17442       2   17427   17442   17445   17454       2
   17427   17442   17445   17460       2   17424   17409   17418   17427       2
   17424   17409   17418   17430       1   17424   17409   17418   17433       1
   17421   17409   17418   17427       2   17421   17409   17418   17430       1
   17421   17409   17418   17433       1   17418   17427   17442   17448       2
   17418   17427   17442   17451       2   17415   17400   17409   17418       2
   17415   17400   17409   17421       1   17415   17400   17409   17424       1
   17412   17400   17409   17418       2   17412   17400   17409   17421       1
   17412   17400   17409   17424       1   17409   17418   17427   17436       2
   17409   17418   17427   17439       2   17406   17388   17400   17409       2
   17406   17388   17400   17412       1   17406   17388   17400   17415       1
   17403   17388   17400   17409       2   17403   17388   17400   17412       1
   17403   17388   17400   17415       1   17400   17409   17418   17430       2
   17400   17409   17418   17433       2   17394   17370   17388   17400       2
   17394   17370   17388   17403       1   17394   17370   17388   17406       1
   17391   17370   17388   17400       2   17391   17370   17388   17403       1
   17391   17370   17388   17406       1   17388   17400   17409   17421       2
   17388   17400   17409   17424       2   17385   17364   17379   17397       4
   17382   17358   17379   17397       4   17376   17355   17370   17388       2
   17376   17355   17370   17391       1   17376   17355   17370   17394       1
   17373   17355   17370   17388       2   17373   17355   17370   17391       1
   17373   17355   17370   17394       1   17370   17388   17400   17412       2
   17370   17388   17400   17415       2   17367   17352   17364   17379       4
   17367   17352   17364   17385       4   17364   17379   17358   17382       4
   17361   17349   17358   17379       4   17361   17349   17358   17382       4
   17358   17379   17364   17385       4   17355   17370   17388   17403       2
   17355   17370   17388   17406       2   17352   17331   17349   17361       4
   17352   17364   17379   17397       4   17349   17331   17352   17367       4
   17349   17358   17379   17397       4   17343   17325   17337   17355       4
   17340   17319   17337   17355       4   17337   17355   17370   17391       5
   17337   17355   17370   17394       5   17334   17316   17328   17346       4
   17331   17310   17328   17346       4   17331   17349   17358   17382       4
   17331   17352   17364   17385       4   17325   17337   17319   17340       4
   17325   17337   17355   17373       8   17325   17337   17355   17376       8
   17322   17301   17319   17337       4   17322   17301   17319   17340       4
   17319   17337   17325   17343       4   17319   17337   17355   17373       8
   17319   17337   17355   17376       8   17313   17295   17310   17328       4
   17313   17295   17310   17331       4   17310   17328   17316   17334       4
   17310   17331   17349   17361       4   17310   17331   17352   17367       4
   17307   17304   17325   17343       4   17304   17289   17301   17322       4
   17298   17286   17295   17313       4   17298   17316   17328   17346       4
   17295   17310   17328   17346       4   17292   17298   17316   17334       4
   17289   17301   17319   17340       4   17289   17304   17325   17343       4
   17286   17298   17316   17334       4   17283   17289   17301   17322       4
   17280   17286   17295   17313       4   17652   17637   17649   17655       1
   17652   17637   17649   17658       1   17652   17637   17649   17661       1
   17646   17637   17649   17655       1   17646   17637   17649   17658       1
   17646   17637   17649   17661       1   17643   17634   17637   17646       1
   17643   17634   17637   17649       2   17643   17634   17637   17652       1
   17640   17634   17637   17646       1   17640   17634   17637   17649       2
   17640   17634   17637   17652       1   17634   17637   17649   17655       2
   17634   17637   17649   17658       2   17634   17637   17649   17661       2
   17631   17619   17634   17637       2   17631   17619   17634   17640       1
   17631   17619   17634   17643       1   17628   17619   17634   17637       2
   17628   17619   17634   17640       1   17628   17619   17634   17643       1
   17625   17610   17619   17628       1   17625   17610   17619   17631       1
   17625   17610   17619   17634       2   17622   17610   17619   17628       1
   17622   17610   17619   17631       1   17622   17610   17619   17634       2
   17619   17634   17637   17646       2   17619   17634   17637   17652       2
   17616   17601   17610   17619       2   17616   17601   17610   17622       1
   17616   17601   17610   17625       1   17613   17601   17610   17619       2
   17613   17601   17610   17622       1   17613   17601   17610   17625       1
   17610   17619   17634   17640       2   17610   17619   17634   17643       2
   17607   17592   17601   17610       2   17607   17592   17601   17613       1
   17607   17592   17601   17616       1   17604   17592   17601   17610       2
   17604   17592   17601   17613       1   17604   17592   17601   17616       1
   17601   17610   17619   17628       2   17601   17610   17619   17631       2
   17598   17580   17592   17601       2   17598   17580   17592   17604       1
   17598   17580   17592   17607       1   17595   17580   17592   17601       2
   17595   17580   17592   17604       1   17595   17580   17592   17607       1
   17592   17601   17610   17622       2   17592   17601   17610   17625       2
   17586   17562   17580   17592       2   17586   17562   17580   17595       1
   17586   17562   17580   17598       1   17583   17562   17580   17592       2
   17583   17562   17580   17595       1   17583   17562   17580   17598       1
   17580   17592   17601   17613       2   17580   17592   17601   17616       2
   17577   17556   17571   17589       4   17574   17550   17571   17589       4
   17568   17547   17562   17580       2   17568   17547   17562   17583       1
   17568   17547   17562   17586       1   17565   17547   17562   17580       2
   17565   17547   17562   17583       1   17565   17547   17562   17586       1
   17562   17580   17592   17604       2   17562   17580   17592   17607       2
   17559   17544   17556   17571       4   17559   17544   17556   17577       4
   17556   17571   17550   17574       4   17553   17541   17550   17571       4
   17553   17541   17550   17574       4   17550   17571   17556   17577       4
   17547   17562   17580   17595       2   17547   17562   17580   17598       2
   17544   17523   17541   17553       4   17544   17556   17571   17589       4
   17541   17523   17544   17559       4   17541   17550   17571   17589       4
   17535   17517   17529   17547       4   17532   17511   17529   17547       4
   17529   17547   17562   17583       5   17529   17547   17562   17586       5
   17526   17508   17520   17538       4   17523   17502   17520   17538       4
   17523   17541   17550   17574       4   17523   17544   17556   17577       4
   17517   17529   17511   17532       4   17517   17529   17547   17565       8
   17517   17529   17547   17568       8   17514   17493   17511   17529       4
   17514   17493   17511   17532       4   17511   17529   17517   17535       4
   17511   17529   17547   17565       8   17511   17529   17547   17568       8
   17505   17487   17502   17520       4   17505   17487   17502   17523       4
   17502   17520   17508   17526       4   17502   17523   17541   17553       4
   17502   17523   17544   17559       4   17499   17496   17517   17535       4
   17496   17481   17493   17514       4   17490   17478   17487   17505       4
   17490   17508   17520   17538       4   17487   17502   17520   17538       4
   17484   17490   17508   17526       4   17481   17493   17511   17532       4
   17481   17496   17517   17535       4   17478   17490   17508   17526       4
   17475   17481   17493   17514       4   17472   17478   17487   17505       4
   17844   17829   17841   17847       1   17844   17829   17841   17850       1
   17844   17829   17841   17853       1   17838   17829   17841   17847       1
   17838   17829   17841   17850       1   17838   17829   17841   17853       1
   17835   17826   17829   17838       1   17835   17826   17829   17841       2
   17835   17826   17829   17844       1   17832   17826   17829   17838       1
   17832   17826   17829   17841       2   17832   17826   17829   17844       1
   17826   17829   17841   17847       2   17826   17829   17841   17850       2
   17826   17829   17841   17853       2   17823   17811   17826   17829       2
   17823   17811   17826   17832       1   17823   17811   17826   17835       1
   17820   17811   17826   17829       2   17820   17811   17826   17832       1
   17820   17811   17826   17835       1   17817   17802   17811   17820       1
   17817   17802   17811   17823       1   17817   17802   17811   17826       2
   17814   17802   17811   17820       1   17814   17802   17811   17823       1
   17814   17802   17811   17826       2   17811   17826   17829   17838       2
   17811   17826   17829   17844       2   17808   17793   17802   17811       2
   17808   17793   17802   17814       1   17808   17793   17802   17817       1
   17805   17793   17802   17811       2   17805   17793   17802   17814       1
   17805   17793   17802   17817       1   17802   17811   17826   17832       2
   17802   17811   17826   17835       2   17799   17784   17793   17802       2
   17799   17784   17793   17805       1   17799   17784   17793   17808       1
   17796   17784   17793   17802       2   17796   17784   17793   17805       1
   17796   17784   17793   17808       1   17793   17802   17811   17820       2
   17793   17802   17811   17823       2   17790   17772   17784   17793       2
   17790   17772   17784   17796       1   17790   17772   17784   17799       1
   17787   17772   17784   17793       2   17787   17772   17784   17796       1
   17787   17772   17784   17799       1   17784   17793   17802   17814       2
   17784   17793   17802   17817       2   17778   17754   17772   17784       2
   17778   17754   17772   17787       1   17778   17754   17772   17790       1
   17775   17754   17772   17784       2   17775   17754   17772   17787       1
   17775   17754   17772   17790       1   17772   17784   17793   17805       2
   17772   17784   17793   17808       2   17769   17748   17763   17781       4
   17766   17742   17763   17781       4   17760   17739   17754   17772       2
   17760   17739   17754   17775       1   17760   17739   17754   17778       1
   17757   17739   17754   17772       2   17757   17739   17754   17775       1
   17757   17739   17754   17778       1   17754   17772   17784   17796       2
   17754   17772   17784   17799       2   17751   17736   17748   17763       4
   17751   17736   17748   17769       4   17748   17763   17742   17766       4
   17745   17733   17742   17763       4   17745   17733   17742   17766       4
   17742   17763   17748   17769       4   17739   17754   17772   17787       2
   17739   17754   17772   17790       2   17736   17715   17733   17745       4
   17736   17748   17763   17781       4   17733   17715   17736   17751       4
   17733   17742   17763   17781       4   17727   17709   17721   17739       4
   17724   17703   17721   17739       4   17721   17739   17754   17775       5
   17721   17739   17754   17778       5   17718   17700   17712   17730       4
   17715   17694   17712   17730       4   17715   17733   17742   17766       4
   17715   17736   17748   17769       4   17709   17721   17703   17724       4
   17709   17721   17739   17757       8   17709   17721   17739   17760       8
   17706   17685   17703   17721       4   17706   17685   17703   17724       4
   17703   17721   17709   17727       4   17703   17721   17739   17757       8
   17703   17721   17739   17760       8   17697   17679   17694   17712       4
   17697   17679   17694   17715       4   17694   17712   17700   17718       4
   17694   17715   17733   17745       4   17694   17715   17736   17751       4
   17691   17688   17709   17727       4   17688   17673   17685   17706       4
   17682   17670   17679   17697       4   17682   17700   17712   17730       4
   17679   17694   17712   17730       4   17676   17682   17700   17718       4
   17673   17685   17703   17724       4   17673   17688   17709   17727       4
   17670   17682   17700   17718       4   17667   17673   17685   17706       4
   17664   17670   17679   17697       4   18036   18021   18033   18039       1
   18036   18021   18033   18042       1   18036   18021   18033   18045       1
   18030   18021   18033   18039       1   18030   18021   18033   18042       1
   18030   18021   18033   18045       1   18027   18018   18021   18030       1
   18027   18018   18021   18033       2   18027   18018   18021   18036       1
   18024   18018   18021   18030       1   18024   18018   18021   18033       2
   18024   18018   18021   18036       1   18018   18021   18033   18039       2
   18018   18021   18033   18042       2   18018   18021   18033   18045       2
   18015   18003   18018   18021       2   18015   18003   18018   18024       1
   18015   18003   18018   18027       1   18012   18003   18018   18021       2
   18012   18003   18018   18024       1   18012   18003   18018   18027       1
   18009   17994   18003   18012       1   18009   17994   18003   18015       1
   18009   17994   18003   18018       2   18006   17994   18003   18012       1
   18006   17994   18003   18015       1   18006   17994   18003   18018       2
   18003   18018   18021   18030       2   18003   18018   18021   18036       2
   18000   17985   17994   18003       2   18000   17985   17994   18006       1
   18000   17985   17994   18009       1   17997   17985   17994   18003       2
   17997   17985   17994   18006       1   17997   17985   17994   18009       1
   17994   18003   18018   18024       2   17994   18003   18018   18027       2
   17991   17976   17985   17994       2   17991   17976   17985   17997       1
   17991   17976   17985   18000       1   17988   17976   17985   17994       2
   17988   17976   17985   17997       1   17988   17976   17985   18000       1
   17985   17994   18003   18012       2   17985   17994   18003   18015       2
   17982   17964   17976   17985       2   17982   17964   17976   17988       1
   17982   17964   17976   17991       1   17979   17964   17976   17985       2
   17979   17964   17976   17988       1   17979   17964   17976   17991       1
   17976   17985   17994   18006       2   17976   17985   17994   18009       2
   17970   17946   17964   17976       2   17970   17946   17964   17979       1
   17970   17946   17964   17982       1   17967   17946   17964   17976       2
   17967   17946   17964   17979       1   17967   17946   17964   17982       1
   17964   17976   17985   17997       2   17964   17976   17985   18000       2
   17961   17940   17955   17973       4   17958   17934   17955   17973       4
   17952   17931   17946   17964       2   17952   17931   17946   17967       1
   17952   17931   17946   17970       1   17949   17931   17946   17964       2
   17949   17931   17946   17967       1   17949   17931   17946   17970       1
   17946   17964   17976   17988       2   17946   17964   17976   17991       2
   17943   17928   17940   17955       4   17943   17928   17940   17961       4
   17940   17955   17934   17958       4   17937   17925   17934   17955       4
   17937   17925   17934   17958       4   17934   17955   17940   17961       4
   17931   17946   17964   17979       2   17931   17946   17964   17982       2
   17928   17907   17925   17937       4   17928   17940   17955   17973       4
   17925   17907   17928   17943       4   17925   17934   17955   17973       4
   17919   17901   17913   17931       4   17916   17895   17913   17931       4
   17913   17931   17946   17967       5   17913   17931   17946   17970       5
   17910   17892   17904   17922       4   17907   17886   17904   17922       4
   17907   17925   17934   17958       4   17907   17928   17940   17961       4
   17901   17913   17895   17916       4   17901   17913   17931   17949       8
   17901   17913   17931   17952       8   17898   17877   17895   17913       4
   17898   17877   17895   17916       4   17895   17913   17901   17919       4
   17895   17913   17931   17949       8   17895   17913   17931   17952       8
   17889   17871   17886   17904       4   17889   17871   17886   17907       4
   17886   17904   17892   17910       4   17886   17907   17925   17937       4
   17886   17907   17928   17943       4   17883   17880   17901   17919       4
   17880   17865   17877   17898       4   17874   17862   17871   17889       4
   17874   17892   17904   17922       4   17871   17886   17904   17922       4
   17868   17874   17892   17910       4   17865   17877   17895   17916       4
   17865   17880   17901   17919       4   17862   17874   17892   17910       4
   17859   17865   17877   17898       4   17856   17862   17871   17889       4
   18228   18213   18225   18231       1   18228   18213   18225   18234       1
   18228   18213   18225   18237       1   18222   18213   18225   18231       1
   18222   18213   18225   18234       1   18222   18213   18225   18237       1
   18219   18210   18213   18222       1   18219   18210   18213   18225       2
   18219   18210   18213   18228       1   18216   18210   18213   18222       1
   18216   18210   18213   18225       2   18216   18210   18213   18228       1
   18210   18213   18225   18231       2   18210   18213   18225   18234       2
   18210   18213   18225   18237       2   18207   18195   18210   18213       2
   18207   18195   18210   18216       1   18207   18195   18210   18219       1
   18204   18195   18210   18213       2   18204   18195   18210   18216       1
   18204   18195   18210   18219       1   18201   18186   18195   18204       1
   18201   18186   18195   18207       1   18201   18186   18195   18210       2
   18198   18186   18195   18204       1   18198   18186   18195   18207       1
   18198   18186   18195   18210       2   18195   18210   18213   18222       2
   18195   18210   18213   18228       2   18192   18177   18186   18195       2
   18192   18177   18186   18198       1   18192   18177   18186   18201       1
   18189   18177   18186   18195       2   18189   18177   18186   18198       1
   18189   18177   18186   18201       1   18186   18195   18210   18216       2
   18186   18195   18210   18219       2   18183   18168   18177   18186       2
   18183   18168   18177   18189       1   18183   18168   18177   18192       1
   18180   18168   18177   18186       2   18180   18168   18177   18189       1
   18180   18168   18177   18192       1   18177   18186   18195   18204       2
   18177   18186   18195   18207       2   18174   18156   18168   18177       2
   18174   18156   18168   18180       1   18174   18156   18168   18183       1
   18171   18156   18168   18177       2   18171   18156   18168   18180       1
   18171   18156   18168   18183       1   18168   18177   18186   18198       2
   18168   18177   18186   18201       2   18162   18138   18156   18168       2
   18162   18138   18156   18171       1   18162   18138   18156   18174       1
   18159   18138   18156   18168       2   18159   18138   18156   18171       1
   18159   18138   18156   18174       1   18156   18168   18177   18189       2
   18156   18168   18177   18192       2   18153   18132   18147   18165       4
   18150   18126   18147   18165       4   18144   18123   18138   18156       2
   18144   18123   18138   18159       1   18144   18123   18138   18162       1
   18141   18123   18138   18156       2   18141   18123   18138   18159       1
   18141   18123   18138   18162       1   18138   18156   18168   18180       2
   18138   18156   18168   18183       2   18135   18120   18132   18147       4
   18135   18120   18132   18153       4   18132   18147   18126   18150       4
   18129   18117   18126   18147       4   18129   18117   18126   18150       4
   18126   18147   18132   18153       4   18123   18138   18156   18171       2
   18123   18138   18156   18174       2   18120   18099   18117   18129       4
   18120   18132   18147   18165       4   18117   18099   18120   18135       4
   18117   18126   18147   18165       4   18111   18093   18105   18123       4
   18108   18087   18105   18123       4   18105   18123   18138   18159       5
   18105   18123   18138   18162       5   18102   18084   18096   18114       4
   18099   18078   18096   18114       4   18099   18117   18126   18150       4
   18099   18120   18132   18153       4   18093   18105   18087   18108       4
   18093   18105   18123   18141       8   18093   18105   18123   18144       8
   18090   18069   18087   18105       4   18090   18069   18087   18108       4
   18087   18105   18093   18111       4   18087   18105   18123   18141       8
   18087   18105   18123   18144       8   18081   18063   18078   18096       4
   18081   18063   18078   18099       4   18078   18096   18084   18102       4
   18078   18099   18117   18129       4   18078   18099   18120   18135       4
   18075   18072   18093   18111       4   18072   18057   18069   18090       4
   18066   18054   18063   18081       4   18066   18084   18096   18114       4
   18063   18078   18096   18114       4   18060   18066   18084   18102       4
   18057   18069   18087   18108       4   18057   18072   18093   18111       4
   18054   18066   18084   18102       4   18051   18057   18069   18090       4
   18048   18054   18063   18081       4   18420   18405   18417   18423       1
   18420   18405   18417   18426       1   18420   18405   18417   18429       1
   18414   18405   18417   18423       1   18414   18405   18417   18426       1
   18414   18405   18417   18429       1   18411   18402   18405   18414       1
   18411   18402   18405   18417       2   18411   18402   18405   18420       1
   18408   18402   18405   18414       1   18408   18402   18405   18417       2
   18408   18402   18405   18420       1   18402   18405   18417   18423       2
   18402   18405   18417   18426       2   18402   18405   18417   18429       2
   18399   18387   18402   18405       2   18399   18387   18402   18408       1
   18399   18387   18402   18411       1   18396   18387   18402   18405       2
   18396   18387   18402   18408       1   18396   18387   18402   18411       1
   18393   18378   18387   18396       1   18393   18378   18387   18399       1
   18393   18378   18387   18402       2   18390   18378   18387   18396       1
   18390   18378   18387   18399       1   18390   18378   18387   18402       2
   18387   18402   18405   18414       2   18387   18402   18405   18420       2
   18384   18369   18378   18387       2   18384   18369   18378   18390       1
   18384   18369   18378   18393       1   18381   18369   18378   18387       2
   18381   18369   18378   18390       1   18381   18369   18378   18393       1
   18378   18387   18402   18408       2   18378   18387   18402   18411       2
   18375   18360   18369   18378       2   18375   18360   18369   18381       1
   18375   18360   18369   18384       1   18372   18360   18369   18378       2
   18372   18360   18369   18381       1   18372   18360   18369   18384       1
   18369   18378   18387   18396       2   18369   18378   18387   18399       2
   18366   18348   18360   18369       2   18366   18348   18360   18372       1
   18366   18348   18360   18375       1   18363   18348   18360   18369       2
   18363   18348   18360   18372       1   18363   18348   18360   18375       1
   18360   18369   18378   18390       2   18360   18369   18378   18393       2
   18354   18330   18348   18360       2   18354   18330   18348   18363       1
   18354   18330   18348   18366       1   18351   18330   18348   18360       2
   18351   18330   18348   18363       1   18351   18330   18348   18366       1
   18348   18360   18369   18381       2   18348   18360   18369   18384       2
   18345   18324   18339   18357       4   18342   18318   18339   18357       4
   18336   18315   18330   18348       2   18336   18315   18330   18351       1
   18336   18315   18330   18354       1   18333   18315   18330   18348       2
   18333   18315   18330   18351       1   18333   18315   18330   18354       1
   18330   18348   18360   18372       2   18330   18348   18360   18375       2
   18327   18312   18324   18339       4   18327   18312   18324   18345       4
   18324   18339   18318   18342       4   18321   18309   18318   18339       4
   18321   18309   18318   18342       4   18318   18339   18324   18345       4
   18315   18330   18348   18363       2   18315   18330   18348   18366       2
   18312   18291   18309   18321       4   18312   18324   18339   18357       4
   18309   18291   18312   18327       4   18309   18318   18339   18357       4
   18303   18285   18297   18315       4   18300   18279   18297   18315       4
   18297   18315   18330   18351       5   18297   18315   18330   18354       5
   18294   18276   18288   18306       4   18291   18270   18288   18306       4
   18291   18309   18318   18342       4   18291   18312   18324   18345       4
   18285   18297   18279   18300       4   18285   18297   18315   18333       8
   18285   18297   18315   18336       8   18282   18261   18279   18297       4
   18282   18261   18279   18300       4   18279   18297   18285   18303       4
   18279   18297   18315   18333       8   18279   18297   18315   18336       8
   18273   18255   18270   18288       4   18273   18255   18270   18291       4
   18270   18288   18276   18294       4   18270   18291   18309   18321       4
   18270   18291   18312   18327       4   18267   18264   18285   18303       4
   18264   18249   18261   18282       4   18258   18246   18255   18273       4
   18258   18276   18288   18306       4   18255   18270   18288   18306       4
   18252   18258   18276   18294       4   18249   18261   18279   18300       4
   18249   18264   18285   18303       4   18246   18258   18276   18294       4
   18243   18249   18261   18282       4   18240   18246   18255   18273       4
   18612   18597   18609   18615       1   18612   18597   18609   18618       1
   18612   18597   18609   18621       1   18606   18597   18609   18615       1
   18606   18597   18609   18618       1   18606   18597   18609   18621       1
   18603   18594   18597   18606       1   18603   18594   18597   18609       2
   18603   18594   18597   18612       1   18600   18594   18597   18606       1
   18600   18594   18597   18609       2   18600   18594   18597   18612       1
   18594   18597   18609   18615       2   18594   18597   18609   18618       2
   18594   18597   18609   18621       2   18591   18579   18594   18597       2
   18591   18579   18594   18600       1   18591   18579   18594   18603       1
   18588   18579   18594   18597       2   18588   18579   18594   18600       1
   18588   18579   18594   18603       1   18585   18570   18579   18588       1
   18585   18570   18579   18591       1   18585   18570   18579   18594       2
   18582   18570   18579   18588       1   18582   18570   18579   18591       1
   18582   18570   18579   18594       2   18579   18594   18597   18606       2
   18579   18594   18597   18612       2   18576   18561   18570   18579       2
   18576   18561   18570   18582       1   18576   18561   18570   18585       1
   18573   18561   18570   18579       2   18573   18561   18570   18582       1
   18573   18561   18570   18585       1   18570   18579   18594   18600       2
   18570   18579   18594   18603       2   18567   18552   18561   18570       2
   18567   18552   18561   18573       1   18567   18552   18561   18576       1
   18564   18552   18561   18570       2   18564   18552   18561   18573       1
   18564   18552   18561   18576       1   18561   18570   18579   18588       2
   18561   18570   18579   18591       2   18558   18540   18552   18561       2
   18558   18540   18552   18564       1   18558   18540   18552   18567       1
   18555   18540   18552   18561       2   18555   18540   18552   18564       1
   18555   18540   18552   18567       1   18552   18561   18570   18582       2
   18552   18561   18570   18585       2   18546   18522   18540   18552       2
   18546   18522   18540   18555       1   18546   18522   18540   18558       1
   18543   18522   18540   18552       2   18543   18522   18540   18555       1
   18543   18522   18540   18558       1   18540   18552   18561   18573       2
   18540   18552   18561   18576       2   18537   18516   18531   18549       4
   18534   18510   18531   18549       4   18528   18507   18522   18540       2
   18528   18507   18522   18543       1   18528   18507   18522   18546       1
   18525   18507   18522   18540       2   18525   18507   18522   18543       1
   18525   18507   18522   18546       1   18522   18540   18552   18564       2
   18522   18540   18552   18567       2   18519   18504   18516   18531       4
   18519   18504   18516   18537       4   18516   18531   18510   18534       4
   18513   18501   18510   18531       4   18513   18501   18510   18534       4
   18510   18531   18516   18537       4   18507   18522   18540   18555       2
   18507   18522   18540   18558       2   18504   18483   18501   18513       4
   18504   18516   18531   18549       4   18501   18483   18504   18519       4
   18501   18510   18531   18549       4   18495   18477   18489   18507       4
   18492   18471   18489   18507       4   18489   18507   18522   18543       5
   18489   18507   18522   18546       5   18486   18468   18480   18498       4
   18483   18462   18480   18498       4   18483   18501   18510   18534       4
   18483   18504   18516   18537       4   18477   18489   18471   18492       4
   18477   18489   18507   18525       8   18477   18489   18507   18528       8
   18474   18453   18471   18489       4   18474   18453   18471   18492       4
   18471   18489   18477   18495       4   18471   18489   18507   18525       8
   18471   18489   18507   18528       8   18465   18447   18462   18480       4
   18465   18447   18462   18483       4   18462   18480   18468   18486       4
   18462   18483   18501   18513       4   18462   18483   18504   18519       4
   18459   18456   18477   18495       4   18456   18441   18453   18474       4
   18450   18438   18447   18465       4   18450   18468   18480   18498       4
   18447   18462   18480   18498       4   18444   18450   18468   18486       4
   18441   18453   18471   18492       4   18441   18456   18477   18495       4
   18438   18450   18468   18486       4   18435   18441   18453   18474       4
   18432   18438   18447   18465       4   18804   18789   18801   18807       1
   18804   18789   18801   18810       1   18804   18789   18801   18813       1
   18798   18789   18801   18807       1   18798   18789   18801   18810       1
   18798   18789   18801   18813       1   18795   18786   18789   18798       1
   18795   18786   18789   18801       2   18795   18786   18789   18804       1
   18792   18786   18789   18798       1   18792   18786   18789   18801       2
   18792   18786   18789   18804       1   18786   18789   18801   18807       2
   18786   18789   18801   18810       2   18786   18789   18801   18813       2
   18783   18771   18786   18789       2   18783   18771   18786   18792       1
   18783   18771   18786   18795       1   18780   18771   18786   18789       2
   18780   18771   18786   18792       1   18780   18771   18786   18795       1
   18777   18762   18771   18780       1   18777   18762   18771   18783       1
   18777   18762   18771   18786       2   18774   18762   18771   18780       1
   18774   18762   18771   18783       1   18774   18762   18771   18786       2
   18771   18786   18789   18798       2   18771   18786   18789   18804       2
   18768   18753   18762   18771       2   18768   18753   18762   18774       1
   18768   18753   18762   18777       1   18765   18753   18762   18771       2
   18765   18753   18762   18774       1   18765   18753   18762   18777       1
   18762   18771   18786   18792       2   18762   18771   18786   18795       2
   18759   18744   18753   18762       2   18759   18744   18753   18765       1
   18759   18744   18753   18768       1   18756   18744   18753   18762       2
   18756   18744   18753   18765       1   18756   18744   18753   18768       1
   18753   18762   18771   18780       2   18753   18762   18771   18783       2
   18750   18732   18744   18753       2   18750   18732   18744   18756       1
   18750   18732   18744   18759       1   18747   18732   18744   18753       2
   18747   18732   18744   18756       1   18747   18732   18744   18759       1
   18744   18753   18762   18774       2   18744   18753   18762   18777       2
   18738   18714   18732   18744       2   18738   18714   18732   18747       1
   18738   18714   18732   18750       1   18735   18714   18732   18744       2
   18735   18714   18732   18747       1   18735   18714   18732   18750       1
   18732   18744   18753   18765       2   18732   18744   18753   18768       2
   18729   18708   18723   18741       4   18726   18702   18723   18741       4
   18720   18699   18714   18732       2   18720   18699   18714   18735       1
   18720   18699   18714   18738       1   18717   18699   18714   18732       2
   18717   18699   18714   18735       1   18717   18699   18714   18738       1
   18714   18732   18744   18756       2   18714   18732   18744   18759       2
   18711   18696   18708   18723       4   18711   18696   18708   18729       4
   18708   18723   18702   18726       4   18705   18693   18702   18723       4
   18705   18693   18702   18726       4   18702   18723   18708   18729       4
   18699   18714   18732   18747       2   18699   18714   18732   18750       2
   18696   18675   18693   18705       4   18696   18708   18723   18741       4
   18693   18675   18696   18711       4   18693   18702   18723   18741       4
   18687   18669   18681   18699       4   18684   18663   18681   18699       4
   18681   18699   18714   18735       5   18681   18699   18714   18738       5
   18678   18660   18672   18690       4   18675   18654   18672   18690       4
   18675   18693   18702   18726       4   18675   18696   18708   18729       4
   18669   18681   18663   18684       4   18669   18681   18699   18717       8
   18669   18681   18699   18720       8   18666   18645   18663   18681       4
   18666   18645   18663   18684       4   18663   18681   18669   18687       4
   18663   18681   18699   18717       8   18663   18681   18699   18720       8
   18657   18639   18654   18672       4   18657   18639   18654   18675       4
   18654   18672   18660   18678       4   18654   18675   18693   18705       4
   18654   18675   18696   18711       4   18651   18648   18669   18687       4
   18648   18633   18645   18666       4   18642   18630   18639   18657       4
   18642   18660   18672   18690       4   18639   18654   18672   18690       4
   18636   18642   18660   18678       4   18633   18645   18663   18684       4
   18633   18648   18669   18687       4   18630   18642   18660   18678       4
   18627   18633   18645   18666       4   18624   18630   18639   18657       4
   18996   18981   18993   18999       1   18996   18981   18993   19002       1
   18996   18981   18993   19005       1   18990   18981   18993   18999       1
   18990   18981   18993   19002       1   18990   18981   18993   19005       1
   18987   18978   18981   18990       1   18987   18978   18981   18993       2
   18987   18978   18981   18996       1   18984   18978   18981   18990       1
   18984   18978   18981   18993       2   18984   18978   18981   18996       1
   18978   18981   18993   18999       2   18978   18981   18993   19002       2
   18978   18981   18993   19005       2   18975   18963   18978   18981       2
   18975   18963   18978   18984       1   18975   18963   18978   18987       1
   18972   18963   18978   18981       2   18972   18963   18978   18984       1
   18972   18963   18978   18987       1   18969   18954   18963   18972       1
   18969   18954   18963   18975       1   18969   18954   18963   18978       2
   18966   18954   18963   18972       1   18966   18954   18963   18975       1
   18966   18954   18963   18978       2   18963   18978   18981   18990       2
   18963   18978   18981   18996       2   18960   18945   18954   18963       2
   18960   18945   18954   18966       1   18960   18945   18954   18969       1
   18957   18945   18954   18963       2   18957   18945   18954   18966       1
   18957   18945   18954   18969       1   18954   18963   18978   18984       2
   18954   18963   18978   18987       2   18951   18936   18945   18954       2
   18951   18936   18945   18957       1   18951   18936   18945   18960       1
   18948   18936   18945   18954       2   18948   18936   18945   18957       1
   18948   18936   18945   18960       1   18945   18954   18963   18972       2
   18945   18954   18963   18975       2   18942   18924   18936   18945       2
   18942   18924   18936   18948       1   18942   18924   18936   18951       1
   18939   18924   18936   18945       2   18939   18924   18936   18948       1
   18939   18924   18936   18951       1   18936   18945   18954   18966       2
   18936   18945   18954   18969       2   18930   18906   18924   18936       2
   18930   18906   18924   18939       1   18930   18906   18924   18942       1
   18927   18906   18924   18936       2   18927   18906   18924   18939       1
   18927   18906   18924   18942       1   18924   18936   18945   18957       2
   18924   18936   18945   18960       2   18921   18900   18915   18933       4
   18918   18894   18915   18933       4   18912   18891   18906   18924       2
   18912   18891   18906   18927       1   18912   18891   18906   18930       1
   18909   18891   18906   18924       2   18909   18891   18906   18927       1
   18909   18891   18906   18930       1   18906   18924   18936   18948       2
   18906   18924   18936   18951       2   18903   18888   18900   18915       4
   18903   18888   18900   18921       4   18900   18915   18894   18918       4
   18897   18885   18894   18915       4   18897   18885   18894   18918       4
   18894   18915   18900   18921       4   18891   18906   18924   18939       2
   18891   18906   18924   18942       2   18888   18867   18885   18897       4
   18888   18900   18915   18933       4   18885   18867   18888   18903       4
   18885   18894   18915   18933       4   18879   18861   18873   18891       4
   18876   18855   18873   18891       4   18873   18891   18906   18927       5
   18873   18891   18906   18930       5   18870   18852   18864   18882       4
   18867   18846   18864   18882       4   18867   18885   18894   18918       4
   18867   18888   18900   18921       4   18861   18873   18855   18876       4
   18861   18873   18891   18909       8   18861   18873   18891   18912       8
   18858   18837   18855   18873       4   18858   18837   18855   18876       4
   18855   18873   18861   18879       4   18855   18873   18891   18909       8
   18855   18873   18891   18912       8   18849   18831   18846   18864       4
   18849   18831   18846   18867       4   18846   18864   18852   18870       4
   18846   18867   18885   18897       4   18846   18867   18888   18903       4
   18843   18840   18861   18879       4   18840   18825   18837   18858       4
   18834   18822   18831   18849       4   18834   18852   18864   18882       4
   18831   18846   18864   18882       4   18828   18834   18852   18870       4
   18825   18837   18855   18876       4   18825   18840   18861   18879       4
   18822   18834   18852   18870       4   18819   18825   18837   18858       4
   18816   18822   18831   18849       4   19188   19173   19185   19191       1
   19188   19173   19185   19194       1   19188   19173   19185   19197       1
   19182   19173   19185   19191       1   19182   19173   19185   19194       1
   19182   19173   19185   19197       1   19179   19170   19173   19182       1
   19179   19170   19173   19185       2   19179   19170   19173   19188       1
   19176   19170   19173   19182       1   19176   19170   19173   19185       2
   19176   19170   19173   19188       1   19170   19173   19185   19191       2
   19170   19173   19185   19194       2   19170   19173   19185   19197       2
   19167   19155   19170   19173       2   19167   19155   19170   19176       1
   19167   19155   19170   19179       1   19164   19155   19170   19173       2
   19164   19155   19170   19176       1   19164   19155   19170   19179       1
   19161   19146   19155   19164       1   19161   19146   19155   19167       1
   19161   19146   19155   19170       2   19158   19146   19155   19164       1
   19158   19146   19155   19167       1   19158   19146   19155   19170       2
   19155   19170   19173   19182       2   19155   19170   19173   19188       2
   19152   19137   19146   19155       2   19152   19137   19146   19158       1
   19152   19137   19146   19161       1   19149   19137   19146   19155       2
   19149   19137   19146   19158       1   19149   19137   19146   19161       1
   19146   19155   19170   19176       2   19146   19155   19170   19179       2
   19143   19128   19137   19146       2   19143   19128   19137   19149       1
   19143   19128   19137   19152       1   19140   19128   19137   19146       2
   19140   19128   19137   19149       1   19140   19128   19137   19152       1
   19137   19146   19155   19164       2   19137   19146   19155   19167       2
   19134   19116   19128   19137       2   19134   19116   19128   19140       1
   19134   19116   19128   19143       1   19131   19116   19128   19137       2
   19131   19116   19128   19140       1   19131   19116   19128   19143       1
   19128   19137   19146   19158       2   19128   19137   19146   19161       2
   19122   19098   19116   19128       2   19122   19098   19116   19131       1
   19122   19098   19116   19134       1   19119   19098   19116   19128       2
   19119   19098   19116   19131       1   19119   19098   19116   19134       1
   19116   19128   19137   19149       2   19116   19128   19137   19152       2
   19113   19092   19107   19125       4   19110   19086   19107   19125       4
   19104   19083   19098   19116       2   19104   19083   19098   19119       1
   19104   19083   19098   19122       1   19101   19083   19098   19116       2
   19101   19083   19098   19119       1   19101   19083   19098   19122       1
   19098   19116   19128   19140       2   19098   19116   19128   19143       2
   19095   19080   19092   19107       4   19095   19080   19092   19113       4
   19092   19107   19086   19110       4   19089   19077   19086   19107       4
   19089   19077   19086   19110       4   19086   19107   19092   19113       4
   19083   19098   19116   19131       2   19083   19098   19116   19134       2
   19080   19059   19077   19089       4   19080   19092   19107   19125       4
   19077   19059   19080   19095       4   19077   19086   19107   19125       4
   19071   19053   19065   19083       4   19068   19047   19065   19083       4
   19065   19083   19098   19119       5   19065   19083   19098   19122       5
   19062   19044   19056   19074       4   19059   19038   19056   19074       4
   19059   19077   19086   19110       4   19059   19080   19092   19113       4
   19053   19065   19047   19068       4   19053   19065   19083   19101       8
   19053   19065   19083   19104       8   19050   19029   19047   19065       4
   19050   19029   19047   19068       4   19047   19065   19053   19071       4
   19047   19065   19083   19101       8   19047   19065   19083   19104       8
   19041   19023   19038   19056       4   19041   19023   19038   19059       4
   19038   19056   19044   19062       4   19038   19059   19077   19089       4
   19038   19059   19080   19095       4   19035   19032   19053   19071       4
   19032   19017   19029   19050       4   19026   19014   19023   19041       4
   19026   19044   19056   19074       4   19023   19038   19056   19074       4
   19020   19026   19044   19062       4   19017   19029   19047   19068       4
   19017   19032   19053   19071       4   19014   19026   19044   19062       4
   19011   19017   19029   19050       4   19008   19014   19023   19041       4
   19380   19365   19377   19383       1   19380   19365   19377   19386       1
   19380   19365   19377   19389       1   19374   19365   19377   19383       1
   19374   19365   19377   19386       1   19374   19365   19377   19389       1
   19371   19362   19365   19374       1   19371   19362   19365   19377       2
   19371   19362   19365   19380       1   19368   19362   19365   19374       1
   19368   19362   19365   19377       2   19368   19362   19365   19380       1
   19362   19365   19377   19383       2   19362   19365   19377   19386       2
   19362   19365   19377   19389       2   19359   19347   19362   19365       2
   19359   19347   19362   19368       1   19359   19347   19362   19371       1
   19356   19347   19362   19365       2   19356   19347   19362   19368       1
   19356   19347   19362   19371       1   19353   19338   19347   19356       1
   19353   19338   19347   19359       1   19353   19338   19347   19362       2
   19350   19338   19347   19356       1   19350   19338   19347   19359       1
   19350   19338   19347   19362       2   19347   19362   19365   19374       2
   19347   19362   19365   19380       2   19344   19329   19338   19347       2
   19344   19329   19338   19350       1   19344   19329   19338   19353       1
   19341   19329   19338   19347       2   19341   19329   19338   19350       1
   19341   19329   19338   19353       1   19338   19347   19362   19368       2
   19338   19347   19362   19371       2   19335   19320   19329   19338       2
   19335   19320   19329   19341       1   19335   19320   19329   19344       1
   19332   19320   19329   19338       2   19332   19320   19329   19341       1
   19332   19320   19329   19344       1   19329   19338   19347   19356       2
   19329   19338   19347   19359       2   19326   19308   19320   19329       2
   19326   19308   19320   19332       1   19326   19308   19320   19335       1
   19323   19308   19320   19329       2   19323   19308   19320   19332       1
   19323   19308   19320   19335       1   19320   19329   19338   19350       2
   19320   19329   19338   19353       2   19314   19290   19308   19320       2
   19314   19290   19308   19323       1   19314   19290   19308   19326       1
   19311   19290   19308   19320       2   19311   19290   19308   19323       1
   19311   19290   19308   19326       1   19308   19320   19329   19341       2
   19308   19320   19329   19344       2   19305   19284   19299   19317       4
   19302   19278   19299   19317       4   19296   19275   19290   19308       2
   19296   19275   19290   19311       1   19296   19275   19290   19314       1
   19293   19275   19290   19308       2   19293   19275   19290   19311       1
   19293   19275   19290   19314       1   19290   19308   19320   19332       2
   19290   19308   19320   19335       2   19287   19272   19284   19299       4
   19287   19272   19284   19305       4   19284   19299   19278   19302       4
   19281   19269   19278   19299       4   19281   19269   19278   19302       4
   19278   19299   19284   19305       4   19275   19290   19308   19323       2
   19275   19290   19308   19326       2   19272   19251   19269   19281       4
   19272   19284   19299   19317       4   19269   19251   19272   19287       4
   19269   19278   19299   19317       4   19263   19245   19257   19275       4
   19260   19239   19257   19275       4   19257   19275   19290   19311       5
   19257   19275   19290   19314       5   19254   19236   19248   19266       4
   19251   19230   19248   19266       4   19251   19269   19278   19302       4
   19251   19272   19284   19305       4   19245   19257   19239   19260       4
   19245   19257   19275   19293       8   19245   19257   19275   19296       8
   19242   19221   19239   19257       4   19242   19221   19239   19260       4
   19239   19257   19245   19263       4   19239   19257   19275   19293       8
   19239   19257   19275   19296       8   19233   19215   19230   19248       4
   19233   19215   19230   19251       4   19230   19248   19236   19254       4
   19230   19251   19269   19281       4   19230   19251   19272   19287       4
   19227   19224   19245   19263       4   19224   19209   19221   19242       4
   19218   19206   19215   19233       4   19218   19236   19248   19266       4
   19215   19230   19248   19266       4   19212   19218   19236   19254       4
   19209   19221   19239   19260       4   19209   19224   19245   19263       4
   19206   19218   19236   19254       4   19203   19209   19221   19242       4
   19200   19206   19215   19233       4   19572   19557   19569   19575       1
   19572   19557   19569   19578       1   19572   19557   19569   19581       1
   19566   19557   19569   19575       1   19566   19557   19569   19578       1
   19566   19557   19569   19581       1   19563   19554   19557   19566       1
   19563   19554   19557   19569       2   19563   19554   19557   19572       1
   19560   19554   19557   19566       1   19560   19554   19557   19569       2
   19560   19554   19557   19572       1   19554   19557   19569   19575       2
   19554   19557   19569   19578       2   19554   19557   19569   19581       2
   19551   19539   19554   19557       2   19551   19539   19554   19560       1
   19551   19539   19554   19563       1   19548   19539   19554   19557       2
   19548   19539   19554   19560       1   19548   19539   19554   19563       1
   19545   19530   19539   19548       1   19545   19530   19539   19551       1
   19545   19530   19539   19554       2   19542   19530   19539   19548       1
   19542   19530   19539   19551       1   19542   19530   19539   19554       2
   19539   19554   19557   19566       2   19539   19554   19557   19572       2
   19536   19521   19530   19539       2   19536   19521   19530   19542       1
   19536   19521   19530   19545       1   19533   19521   19530   19539       2
   19533   19521   19530   19542       1   19533   19521   19530   19545       1
   19530   19539   19554   19560       2   19530   19539   19554   19563       2
   19527   19512   19521   19530       2   19527   19512   19521   19533       1
   19527   19512   19521   19536       1   19524   19512   19521   19530       2
   19524   19512   19521   19533       1   19524   19512   19521   19536       1
   19521   19530   19539   19548       2   19521   19530   19539   19551       2
   19518   19500   19512   19521       2   19518   19500   19512   19524       1
   19518   19500   19512   19527       1   19515   19500   19512   19521       2
   19515   19500   19512   19524       1   19515   19500   19512   19527       1
   19512   19521   19530   19542       2   19512   19521   19530   19545       2
   19506   19482   19500   19512       2   19506   19482   19500   19515       1
   19506   19482   19500   19518       1   19503   19482   19500   19512       2
   19503   19482   19500   19515       1   19503   19482   19500   19518       1
   19500   19512   19521   19533       2   19500   19512   19521   19536       2
   19497   19476   19491   19509       4   19494   19470   19491   19509       4
   19488   19467   19482   19500       2   19488   19467   19482   19503       1
   19488   19467   19482   19506       1   19485   19467   19482   19500       2
   19485   19467   19482   19503       1   19485   19467   19482   19506       1
   19482   19500   19512   19524       2   19482   19500   19512   19527       2
   19479   19464   19476   19491       4   19479   19464   19476   19497       4
   19476   19491   19470   19494       4   19473   19461   19470   19491       4
   19473   19461   19470   19494       4   19470   19491   19476   19497       4
   19467   19482   19500   19515       2   19467   19482   19500   19518       2
   19464   19443   19461   19473       4   19464   19476   19491   19509       4
   19461   19443   19464   19479       4   19461   19470   19491   19509       4
   19455   19437   19449   19467       4   19452   19431   19449   19467       4
   19449   19467   19482   19503       5   19449   19467   19482   19506       5
   19446   19428   19440   19458       4   19443   19422   19440   19458       4
   19443   19461   19470   19494       4   19443   19464   19476   19497       4
   19437   19449   19431   19452       4   19437   19449   19467   19485       8
   19437   19449   19467   19488       8   19434   19413   19431   19449       4
   19434   19413   19431   19452       4   19431   19449   19437   19455       4
   19431   19449   19467   19485       8   19431   19449   19467   19488       8
   19425   19407   19422   19440       4   19425   19407   19422   19443       4
   19422   19440   19428   19446       4   19422   19443   19461   19473       4
   19422   19443   19464   19479       4   19419   19416   19437   19455       4
   19416   19401   19413   19434       4   19410   19398   19407   19425       4
   19410   19428   19440   19458       4   19407   19422   19440   19458       4
   19404   19410   19428   19446       4   19401   19413   19431   19452       4
   19401   19416   19437   19455       4   19398   19410   19428   19446       4
   19395   19401   19413   19434       4   19392   19398   19407   19425       4
   19764   19749   19761   19767       1   19764   19749   19761   19770       1
   19764   19749   19761   19773       1   19758   19749   19761   19767       1
   19758   19749   19761   19770       1   19758   19749   19761   19773       1
   19755   19746   19749   19758       1   19755   19746   19749   19761       2
   19755   19746   19749   19764       1   19752   19746   19749   19758       1
   19752   19746   19749   19761       2   19752   19746   19749   19764       1
   19746   19749   19761   19767       2   19746   19749   19761   19770       2
   19746   19749   19761   19773       2   19743   19731   19746   19749       2
   19743   19731   19746   19752       1   19743   19731   19746   19755       1
   19740   19731   19746   19749       2   19740   19731   19746   19752       1
   19740   19731   19746   19755       1   19737   19722   19731   19740       1
   19737   19722   19731   19743       1   19737   19722   19731   19746       2
   19734   19722   19731   19740       1   19734   19722   19731   19743       1
   19734   19722   19731   19746       2   19731   19746   19749   19758       2
   19731   19746   19749   19764       2   19728   19713   19722   19731       2
   19728   19713   19722   19734       1   19728   19713   19722   19737       1
   19725   19713   19722   19731       2   19725   19713   19722   19734       1
   19725   19713   19722   19737       1   19722   19731   19746   19752       2
   19722   19731   19746   19755       2   19719   19704   19713   19722       2
   19719   19704   19713   19725       1   19719   19704   19713   19728       1
   19716   19704   19713   19722       2   19716   19704   19713   19725       1
   19716   19704   19713   19728       1   19713   19722   19731   19740       2
   19713   19722   19731   19743       2   19710   19692   19704   19713       2
   19710   19692   19704   19716       1   19710   19692   19704   19719       1
   19707   19692   19704   19713       2   19707   19692   19704   19716       1
   19707   19692   19704   19719       1   19704   19713   19722   19734       2
   19704   19713   19722   19737       2   19698   19674   19692   19704       2
   19698   19674   19692   19707       1   19698   19674   19692   19710       1
   19695   19674   19692   19704       2   19695   19674   19692   19707       1
   19695   19674   19692   19710       1   19692   19704   19713   19725       2
   19692   19704   19713   19728       2   19689   19668   19683   19701       4
   19686   19662   19683   19701       4   19680   19659   19674   19692       2
   19680   19659   19674   19695       1   19680   19659   19674   19698       1
   19677   19659   19674   19692       2   19677   19659   19674   19695       1
   19677   19659   19674   19698       1   19674   19692   19704   19716       2
   19674   19692   19704   19719       2   19671   19656   19668   19683       4
   19671   19656   19668   19689       4   19668   19683   19662   19686       4
   19665   19653   19662   19683       4   19665   19653   19662   19686       4
   19662   19683   19668   19689       4   19659   19674   19692   19707       2
   19659   19674   19692   19710       2   19656   19635   19653   19665       4
   19656   19668   19683   19701       4   19653   19635   19656   19671       4
   19653   19662   19683   19701       4   19647   19629   19641   19659       4
   19644   19623   19641   19659       4   19641   19659   19674   19695       5
   19641   19659   19674   19698       5   19638   19620   19632   19650       4
   19635   19614   19632   19650       4   19635   19653   19662   19686       4
   19635   19656   19668   19689       4   19629   19641   19623   19644       4
   19629   19641   19659   19677       8   19629   19641   19659   19680       8
   19626   19605   19623   19641       4   19626   19605   19623   19644       4
   19623   19641   19629   19647       4   19623   19641   19659   19677       8
   19623   19641   19659   19680       8   19617   19599   19614   19632       4
   19617   19599   19614   19635       4   19614   19632   19620   19638       4
   19614   19635   19653   19665       4   19614   19635   19656   19671       4
   19611   19608   19629   19647       4   19608   19593   19605   19626       4
   19602   19590   19599   19617       4   19602   19620   19632   19650       4
   19599   19614   19632   19650       4   19596   19602   19620   19638       4
   19593   19605   19623   19644       4   19593   19608   19629   19647       4
   19590   19602   19620   19638       4   19587   19593   19605   19626       4
   19584   19590   19599   19617       4   19956   19941   19953   19959       1
   19956   19941   19953   19962       1   19956   19941   19953   19965       1
   19950   19941   19953   19959       1   19950   19941   19953   19962       1
   19950   19941   19953   19965       1   19947   19938   19941   19950       1
   19947   19938   19941   19953       2   19947   19938   19941   19956       1
   19944   19938   19941   19950       1   19944   19938   19941   19953       2
   19944   19938   19941   19956       1   19938   19941   19953   19959       2
   19938   19941   19953   19962       2   19938   19941   19953   19965       2
   19935   19923   19938   19941       2   19935   19923   19938   19944       1
   19935   19923   19938   19947       1   19932   19923   19938   19941       2
   19932   19923   19938   19944       1   19932   19923   19938   19947       1
   19929   19914   19923   19932       1   19929   19914   19923   19935       1
   19929   19914   19923   19938       2   19926   19914   19923   19932       1
   19926   19914   19923   19935       1   19926   19914   19923   19938       2
   19923   19938   19941   19950       2   19923   19938   19941   19956       2
   19920   19905   19914   19923       2   19920   19905   19914   19926       1
   19920   19905   19914   19929       1   19917   19905   19914   19923       2
   19917   19905   19914   19926       1   19917   19905   19914   19929       1
   19914   19923   19938   19944       2   19914   19923   19938   19947       2
   19911   19896   19905   19914       2   19911   19896   19905   19917       1
   19911   19896   19905   19920       1   19908   19896   19905   19914       2
   19908   19896   19905   19917       1   19908   19896   19905   19920       1
   19905   19914   19923   19932       2   19905   19914   19923   19935       2
   19902   19884   19896   19905       2   19902   19884   19896   19908       1
   19902   19884   19896   19911       1   19899   19884   19896   19905       2
   19899   19884   19896   19908       1   19899   19884   19896   19911       1
   19896   19905   19914   19926       2   19896   19905   19914   19929       2
   19890   19866   19884   19896       2   19890   19866   19884   19899       1
   19890   19866   19884   19902       1   19887   19866   19884   19896       2
   19887   19866   19884   19899       1   19887   19866   19884   19902       1
   19884   19896   19905   19917       2   19884   19896   19905   19920       2
   19881   19860   19875   19893       4   19878   19854   19875   19893       4
   19872   19851   19866   19884       2   19872   19851   19866   19887       1
   19872   19851   19866   19890       1   19869   19851   19866   19884       2
   19869   19851   19866   19887       1   19869   19851   19866   19890       1
   19866   19884   19896   19908       2   19866   19884   19896   19911       2
   19863   19848   19860   19875       4   19863   19848   19860   19881       4
   19860   19875   19854   19878       4   19857   19845   19854   19875       4
   19857   19845   19854   19878       4   19854   19875   19860   19881       4
   19851   19866   19884   19899       2   19851   19866   19884   19902       2
   19848   19827   19845   19857       4   19848   19860   19875   19893       4
   19845   19827   19848   19863       4   19845   19854   19875   19893       4
   19839   19821   19833   19851       4   19836   19815   19833   19851       4
   19833   19851   19866   19887       5   19833   19851   19866   19890       5
   19830   19812   19824   19842       4   19827   19806   19824   19842       4
   19827   19845   19854   19878       4   19827   19848   19860   19881       4
   19821   19833   19815   19836       4   19821   19833   19851   19869       8
   19821   19833   19851   19872       8   19818   19797   19815   19833       4
   19818   19797   19815   19836       4   19815   19833   19821   19839       4
   19815   19833   19851   19869       8   19815   19833   19851   19872       8
   19809   19791   19806   19824       4   19809   19791   19806   19827       4
   19806   19824   19812   19830       4   19806   19827   19845   19857       4
   19806   19827   19848   19863       4   19803   19800   19821   19839       4
   19800   19785   19797   19818       4   19794   19782   19791   19809       4
   19794   19812   19824   19842       4   19791   19806   19824   19842       4
   19788   19794   19812   19830       4   19785   19797   19815   19836       4
   19785   19800   19821   19839       4   19782   19794   19812   19830       4
   19779   19785   19797   19818       4   19776   19782   19791   19809       4
   20148   20133   20145   20151       1   20148   20133   20145   20154       1
   20148   20133   20145   20157       1   20142   20133   20145   20151       1
   20142   20133   20145   20154       1   20142   20133   20145   20157       1
   20139   20130   20133   20142       1   20139   20130   20133   20145       2
   20139   20130   20133   20148       1   20136   20130   20133   20142       1
   20136   20130   20133   20145       2   20136   20130   20133   20148       1
   20130   20133   20145   20151       2   20130   20133   20145   20154       2
   20130   20133   20145   20157       2   20127   20115   20130   20133       2
   20127   20115   20130   20136       1   20127   20115   20130   20139       1
   20124   20115   20130   20133       2   20124   20115   20130   20136       1
   20124   20115   20130   20139       1   20121   20106   20115   20124       1
   20121   20106   20115   20127       1   20121   20106   20115   20130       2
   20118   20106   20115   20124       1   20118   20106   20115   20127       1
   20118   20106   20115   20130       2   20115   20130   20133   20142       2
   20115   20130   20133   20148       2   20112   20097   20106   20115       2
   20112   20097   20106   20118       1   20112   20097   20106   20121       1
   20109   20097   20106   20115       2   20109   20097   20106   20118       1
   20109   20097   20106   20121       1   20106   20115   20130   20136       2
   20106   20115   20130   20139       2   20103   20088   20097   20106       2
   20103   20088   20097   20109       1   20103   20088   20097   20112       1
   20100   20088   20097   20106       2   20100   20088   20097   20109       1
   20100   20088   20097   20112       1   20097   20106   20115   20124       2
   20097   20106   20115   20127       2   20094   20076   20088   20097       2
   20094   20076   20088   20100       1   20094   20076   20088   20103       1
   20091   20076   20088   20097       2   20091   20076   20088   20100       1
   20091   20076   20088   20103       1   20088   20097   20106   20118       2
   20088   20097   20106   20121       2   20082   20058   20076   20088       2
   20082   20058   20076   20091       1   20082   20058   20076   20094       1
   20079   20058   20076   20088       2   20079   20058   20076   20091       1
   20079   20058   20076   20094       1   20076   20088   20097   20109       2
   20076   20088   20097   20112       2   20073   20052   20067   20085       4
   20070   20046   20067   20085       4   20064   20043   20058   20076       2
   20064   20043   20058   20079       1   20064   20043   20058   20082       1
   20061   20043   20058   20076       2   20061   20043   20058   20079       1
   20061   20043   20058   20082       1   20058   20076   20088   20100       2
   20058   20076   20088   20103       2   20055   20040   20052   20067       4
   20055   20040   20052   20073       4   20052   20067   20046   20070       4
   20049   20037   20046   20067       4   20049   20037   20046   20070       4
   20046   20067   20052   20073       4   20043   20058   20076   20091       2
   20043   20058   20076   20094       2   20040   20019   20037   20049       4
   20040   20052   20067   20085       4   20037   20019   20040   20055       4
   20037   20046   20067   20085       4   20031   20013   20025   20043       4
   20028   20007   20025   20043       4   20025   20043   20058   20079       5
   20025   20043   20058   20082       5   20022   20004   20016   20034       4
   20019   19998   20016   20034       4   20019   20037   20046   20070       4
   20019   20040   20052   20073       4   20013   20025   20007   20028       4
   20013   20025   20043   20061       8   20013   20025   20043   20064       8
   20010   19989   20007   20025       4   20010   19989   20007   20028       4
   20007   20025   20013   20031       4   20007   20025   20043   20061       8
   20007   20025   20043   20064       8   20001   19983   19998   20016       4
   20001   19983   19998   20019       4   19998   20016   20004   20022       4
   19998   20019   20037   20049       4   19998   20019   20040   20055       4
   19995   19992   20013   20031       4   19992   19977   19989   20010       4
   19986   19974   19983   20001       4   19986   20004   20016   20034       4
   19983   19998   20016   20034       4   19980   19986   20004   20022       4
   19977   19989   20007   20028       4   19977   19992   20013   20031       4
   19974   19986   20004   20022       4   19971   19977   19989   20010       4
   19968   19974   19983   20001       4   20340   20325   20337   20343       1
   20340   20325   20337   20346       1   20340   20325   20337   20349       1
   20334   20325   20337   20343       1   20334   20325   20337   20346       1
   20334   20325   20337   20349       1   20331   20322   20325   20334       1
   20331   20322   20325   20337       2   20331   20322   20325   20340       1
   20328   20322   20325   20334       1   20328   20322   20325   20337       2
   20328   20322   20325   20340       1   20322   20325   20337   20343       2
   20322   20325   20337   20346       2   20322   20325   20337   20349       2
   20319   20307   20322   20325       2   20319   20307   20322   20328       1
   20319   20307   20322   20331       1   20316   20307   20322   20325       2
   20316   20307   20322   20328       1   20316   20307   20322   20331       1
   20313   20298   20307   20316       1   20313   20298   20307   20319       1
   20313   20298   20307   20322       2   20310   20298   20307   20316       1
   20310   20298   20307   20319       1   20310   20298   20307   20322       2
   20307   20322   20325   20334       2   20307   20322   20325   20340       2
   20304   20289   20298   20307       2   20304   20289   20298   20310       1
   20304   20289   20298   20313       1   20301   20289   20298   20307       2
   20301   20289   20298   20310       1   20301   20289   20298   20313       1
   20298   20307   20322   20328       2   20298   20307   20322   20331       2
   20295   20280   20289   20298       2   20295   20280   20289   20301       1
   20295   20280   20289   20304       1   20292   20280   20289   20298       2
   20292   20280   20289   20301       1   20292   20280   20289   20304       1
   20289   20298   20307   20316       2   20289   20298   20307   20319       2
   20286   20268   20280   20289       2   20286   20268   20280   20292       1
   20286   20268   20280   20295       1   20283   20268   20280   20289       2
   20283   20268   20280   20292       1   20283   20268   20280   20295       1
   20280   20289   20298   20310       2   20280   20289   20298   20313       2
   20274   20250   20268   20280       2   20274   20250   20268   20283       1
   20274   20250   20268   20286       1   20271   20250   20268   20280       2
   20271   20250   20268   20283       1   20271   20250   20268   20286       1
   20268   20280   20289   20301       2   20268   20280   20289   20304       2
   20265   20244   20259   20277       4   20262   20238   20259   20277       4
   20256   20235   20250   20268       2   20256   20235   20250   20271       1
   20256   20235   20250   20274       1   20253   20235   20250   20268       2
   20253   20235   20250   20271       1   20253   20235   20250   20274       1
   20250   20268   20280   20292       2   20250   20268   20280   20295       2
   20247   20232   20244   20259       4   20247   20232   20244   20265       4
   20244   20259   20238   20262       4   20241   20229   20238   20259       4
   20241   20229   20238   20262       4   20238   20259   20244   20265       4
   20235   20250   20268   20283       2   20235   20250   20268   20286       2
   20232   20211   20229   20241       4   20232   20244   20259   20277       4
   20229   20211   20232   20247       4   20229   20238   20259   20277       4
   20223   20205   20217   20235       4   20220   20199   20217   20235       4
   20217   20235   20250   20271       5   20217   20235   20250   20274       5
   20214   20196   20208   20226       4   20211   20190   20208   20226       4
   20211   20229   20238   20262       4   20211   20232   20244   20265       4
   20205   20217   20199   20220       4   20205   20217   20235   20253       8
   20205   20217   20235   20256       8   20202   20181   20199   20217       4
   20202   20181   20199   20220       4   20199   20217   20205   20223       4
   20199   20217   20235   20253       8   20199   20217   20235   20256       8
   20193   20175   20190   20208       4   20193   20175   20190   20211       4
   20190   20208   20196   20214       4   20190   20211   20229   20241       4
   20190   20211   20232   20247       4   20187   20184   20205   20223       4
   20184   20169   20181   20202       4   20178   20166   20175   20193       4
   20178   20196   20208   20226       4   20175   20190   20208   20226       4
   20172   20178   20196   20214       4   20169   20181   20199   20220       4
   20169   20184   20205   20223       4   20166   20178   20196   20214       4
   20163   20169   20181   20202       4   20160   20166   20175   20193       4
   20532   20517   20529   20535       1   20532   20517   20529   20538       1
   20532   20517   20529   20541       1   20526   20517   20529   20535       1
   20526   20517   20529   20538       1   20526   20517   20529   20541       1
   20523   20514   20517   20526       1   20523   20514   20517   20529       2
   20523   20514   20517   20532       1   20520   20514   20517   20526       1
   20520   20514   20517   20529       2   20520   20514   20517   20532       1
   20514   20517   20529   20535       2   20514   20517   20529   20538       2
   20514   20517   20529   20541       2   20511   20499   20514   20517       2
   20511   20499   20514   20520       1   20511   20499   20514   20523       1
   20508   20499   20514   20517       2   20508   20499   20514   20520       1
   20508   20499   20514   20523       1   20505   20490   20499   20508       1
   20505   20490   20499   20511       1   20505   20490   20499   20514       2
   20502   20490   20499   20508       1   20502   20490   20499   20511       1
   20502   20490   20499   20514       2   20499   20514   20517   20526       2
   20499   20514   20517   20532       2   20496   20481   20490   20499       2
   20496   20481   20490   20502       1   20496   20481   20490   20505       1
   20493   20481   20490   20499       2   20493   20481   20490   20502       1
   20493   20481   20490   20505       1   20490   20499   20514   20520       2
   20490   20499   20514   20523       2   20487   20472   20481   20490       2
   20487   20472   20481   20493       1   20487   20472   20481   20496       1
   20484   20472   20481   20490       2   20484   20472   20481   20493       1
   20484   20472   20481   20496       1   20481   20490   20499   20508       2
   20481   20490   20499   20511       2   20478   20460   20472   20481       2
   20478   20460   20472   20484       1   20478   20460   20472   20487       1
   20475   20460   20472   20481       2   20475   20460   20472   20484       1
   20475   20460   20472   20487       1   20472   20481   20490   20502       2
   20472   20481   20490   20505       2   20466   20442   20460   20472       2
   20466   20442   20460   20475       1   20466   20442   20460   20478       1
   20463   20442   20460   20472       2   20463   20442   20460   20475       1
   20463   20442   20460   20478       1   20460   20472   20481   20493       2
   20460   20472   20481   20496       2   20457   20436   20451   20469       4
   20454   20430   20451   20469       4   20448   20427   20442   20460       2
   20448   20427   20442   20463       1   20448   20427   20442   20466       1
   20445   20427   20442   20460       2   20445   20427   20442   20463       1
   20445   20427   20442   20466       1   20442   20460   20472   20484       2
   20442   20460   20472   20487       2   20439   20424   20436   20451       4
   20439   20424   20436   20457       4   20436   20451   20430   20454       4
   20433   20421   20430   20451       4   20433   20421   20430   20454       4
   20430   20451   20436   20457       4   20427   20442   20460   20475       2
   20427   20442   20460   20478       2   20424   20403   20421   20433       4
   20424   20436   20451   20469       4   20421   20403   20424   20439       4
   20421   20430   20451   20469       4   20415   20397   20409   20427       4
   20412   20391   20409   20427       4   20409   20427   20442   20463       5
   20409   20427   20442   20466       5   20406   20388   20400   20418       4
   20403   20382   20400   20418       4   20403   20421   20430   20454       4
   20403   20424   20436   20457       4   20397   20409   20391   20412       4
   20397   20409   20427   20445       8   20397   20409   20427   20448       8
   20394   20373   20391   20409       4   20394   20373   20391   20412       4
   20391   20409   20397   20415       4   20391   20409   20427   20445       8
   20391   20409   20427   20448       8   20385   20367   20382   20400       4
   20385   20367   20382   20403       4   20382   20400   20388   20406       4
   20382   20403   20421   20433       4   20382   20403   20424   20439       4
   20379   20376   20397   20415       4   20376   20361   20373   20394       4
   20370   20358   20367   20385       4   20370   20388   20400   20418       4
   20367   20382   20400   20418       4   20364   20370   20388   20406       4
   20361   20373   20391   20412       4   20361   20376   20397   20415       4
   20358   20370   20388   20406       4   20355   20361   20373   20394       4
   20352   20358   20367   20385       4   20724   20709   20721   20727       1
   20724   20709   20721   20730       1   20724   20709   20721   20733       1
   20718   20709   20721   20727       1   20718   20709   20721   20730       1
   20718   20709   20721   20733       1   20715   20706   20709   20718       1
   20715   20706   20709   20721       2   20715   20706   20709   20724       1
   20712   20706   20709   20718       1   20712   20706   20709   20721       2
   20712   20706   20709   20724       1   20706   20709   20721   20727       2
   20706   20709   20721   20730       2   20706   20709   20721   20733       2
   20703   20691   20706   20709       2   20703   20691   20706   20712       1
   20703   20691   20706   20715       1   20700   20691   20706   20709       2
   20700   20691   20706   20712       1   20700   20691   20706   20715       1
   20697   20682   20691   20700       1   20697   20682   20691   20703       1
   20697   20682   20691   20706       2   20694   20682   20691   20700       1
   20694   20682   20691   20703       1   20694   20682   20691   20706       2
   20691   20706   20709   20718       2   20691   20706   20709   20724       2
   20688   20673   20682   20691       2   20688   20673   20682   20694       1
   20688   20673   20682   20697       1   20685   20673   20682   20691       2
   20685   20673   20682   20694       1   20685   20673   20682   20697       1
   20682   20691   20706   20712       2   20682   20691   20706   20715       2
   20679   20664   20673   20682       2   20679   20664   20673   20685       1
   20679   20664   20673   20688       1   20676   20664   20673   20682       2
   20676   20664   20673   20685       1   20676   20664   20673   20688       1
   20673   20682   20691   20700       2   20673   20682   20691   20703       2
   20670   20652   20664   20673       2   20670   20652   20664   20676       1
   20670   20652   20664   20679       1   20667   20652   20664   20673       2
   20667   20652   20664   20676       1   20667   20652   20664   20679       1
   20664   20673   20682   20694       2   20664   20673   20682   20697       2
   20658   20634   20652   20664       2   20658   20634   20652   20667       1
   20658   20634   20652   20670       1   20655   20634   20652   20664       2
   20655   20634   20652   20667       1   20655   20634   20652   20670       1
   20652   20664   20673   20685       2   20652   20664   20673   20688       2
   20649   20628   20643   20661       4   20646   20622   20643   20661       4
   20640   20619   20634   20652       2   20640   20619   20634   20655       1
   20640   20619   20634   20658       1   20637   20619   20634   20652       2
   20637   20619   20634   20655       1   20637   20619   20634   20658       1
   20634   20652   20664   20676       2   20634   20652   20664   20679       2
   20631   20616   20628   20643       4   20631   20616   20628   20649       4
   20628   20643   20622   20646       4   20625   20613   20622   20643       4
   20625   20613   20622   20646       4   20622   20643   20628   20649       4
   20619   20634   20652   20667       2   20619   20634   20652   20670       2
   20616   20595   20613   20625       4   20616   20628   20643   20661       4
   20613   20595   20616   20631       4   20613   20622   20643   20661       4
   20607   20589   20601   20619       4   20604   20583   20601   20619       4
   20601   20619   20634   20655       5   20601   20619   20634   20658       5
   20598   20580   20592   20610       4   20595   20574   20592   20610       4
   20595   20613   20622   20646       4   20595   20616   20628   20649       4
   20589   20601   20583   20604       4   20589   20601   20619   20637       8
   20589   20601   20619   20640       8   20586   20565   20583   20601       4
   20586   20565   20583   20604       4   20583   20601   20589   20607       4
   20583   20601   20619   20637       8   20583   20601   20619   20640       8
   20577   20559   20574   20592       4   20577   20559   20574   20595       4
   20574   20592   20580   20598       4   20574   20595   20613   20625       4
   20574   20595   20616   20631       4   20571   20568   20589   20607       4
   20568   20553   20565   20586       4   20562   20550   20559   20577       4
   20562   20580   20592   20610       4   20559   20574   20592   20610       4
   20556   20562   20580   20598       4   20553   20565   20583   20604       4
   20553   20568   20589   20607       4   20550   20562   20580   20598       4
   20547   20553   20565   20586       4   20544   20550   20559   20577       4
   20916   20901   20913   20919       1   20916   20901   20913   20922       1
   20916   20901   20913   20925       1   20910   20901   20913   20919       1
   20910   20901   20913   20922       1   20910   20901   20913   20925       1
   20907   20898   20901   20910       1   20907   20898   20901   20913       2
   20907   20898   20901   20916       1   20904   20898   20901   20910       1
   20904   20898   20901   20913       2   20904   20898   20901   20916       1
   20898   20901   20913   20919       2   20898   20901   20913   20922       2
   20898   20901   20913   20925       2   20895   20883   20898   20901       2
   20895   20883   20898   20904       1   20895   20883   20898   20907       1
   20892   20883   20898   20901       2   20892   20883   20898   20904       1
   20892   20883   20898   20907       1   20889   20874   20883   20892       1
   20889   20874   20883   20895       1   20889   20874   20883   20898       2
   20886   20874   20883   20892       1   20886   20874   20883   20895       1
   20886   20874   20883   20898       2   20883   20898   20901   20910       2
   20883   20898   20901   20916       2   20880   20865   20874   20883       2
   20880   20865   20874   20886       1   20880   20865   20874   20889       1
   20877   20865   20874   20883       2   20877   20865   20874   20886       1
   20877   20865   20874   20889       1   20874   20883   20898   20904       2
   20874   20883   20898   20907       2   20871   20856   20865   20874       2
   20871   20856   20865   20877       1   20871   20856   20865   20880       1
   20868   20856   20865   20874       2   20868   20856   20865   20877       1
   20868   20856   20865   20880       1   20865   20874   20883   20892       2
   20865   20874   20883   20895       2   20862   20844   20856   20865       2
   20862   20844   20856   20868       1   20862   20844   20856   20871       1
   20859   20844   20856   20865       2   20859   20844   20856   20868       1
   20859   20844   20856   20871       1   20856   20865   20874   20886       2
   20856   20865   20874   20889       2   20850   20826   20844   20856       2
   20850   20826   20844   20859       1   20850   20826   20844   20862       1
   20847   20826   20844   20856       2   20847   20826   20844   20859       1
   20847   20826   20844   20862       1   20844   20856   20865   20877       2
   20844   20856   20865   20880       2   20841   20820   20835   20853       4
   20838   20814   20835   20853       4   20832   20811   20826   20844       2
   20832   20811   20826   20847       1   20832   20811   20826   20850       1
   20829   20811   20826   20844       2   20829   20811   20826   20847       1
   20829   20811   20826   20850       1   20826   20844   20856   20868       2
   20826   20844   20856   20871       2   20823   20808   20820   20835       4
   20823   20808   20820   20841       4   20820   20835   20814   20838       4
   20817   20805   20814   20835       4   20817   20805   20814   20838       4
   20814   20835   20820   20841       4   20811   20826   20844   20859       2
   20811   20826   20844   20862       2   20808   20787   20805   20817       4
   20808   20820   20835   20853       4   20805   20787   20808   20823       4
   20805   20814   20835   20853       4   20799   20781   20793   20811       4
   20796   20775   20793   20811       4   20793   20811   20826   20847       5
   20793   20811   20826   20850       5   20790   20772   20784   20802       4
   20787   20766   20784   20802       4   20787   20805   20814   20838       4
   20787   20808   20820   20841       4   20781   20793   20775   20796       4
   20781   20793   20811   20829       8   20781   20793   20811   20832       8
   20778   20757   20775   20793       4   20778   20757   20775   20796       4
   20775   20793   20781   20799       4   20775   20793   20811   20829       8
   20775   20793   20811   20832       8   20769   20751   20766   20784       4
   20769   20751   20766   20787       4   20766   20784   20772   20790       4
   20766   20787   20805   20817       4   20766   20787   20808   20823       4
   20763   20760   20781   20799       4   20760   20745   20757   20778       4
   20754   20742   20751   20769       4   20754   20772   20784   20802       4
   20751   20766   20784   20802       4   20748   20754   20772   20790       4
   20745   20757   20775   20796       4   20745   20760   20781   20799       4
   20742   20754   20772   20790       4   20739   20745   20757   20778       4
   20736   20742   20751   20769       4   21108   21093   21105   21111       1
   21108   21093   21105   21114       1   21108   21093   21105   21117       1
   21102   21093   21105   21111       1   21102   21093   21105   21114       1
   21102   21093   21105   21117       1   21099   21090   21093   21102       1
   21099   21090   21093   21105       2   21099   21090   21093   21108       1
   21096   21090   21093   21102       1   21096   21090   21093   21105       2
   21096   21090   21093   21108       1   21090   21093   21105   21111       2
   21090   21093   21105   21114       2   21090   21093   21105   21117       2
   21087   21075   21090   21093       2   21087   21075   21090   21096       1
   21087   21075   21090   21099       1   21084   21075   21090   21093       2
   21084   21075   21090   21096       1   21084   21075   21090   21099       1
   21081   21066   21075   21084       1   21081   21066   21075   21087       1
   21081   21066   21075   21090       2   21078   21066   21075   21084       1
   21078   21066   21075   21087       1   21078   21066   21075   21090       2
   21075   21090   21093   21102       2   21075   21090   21093   21108       2
   21072   21057   21066   21075       2   21072   21057   21066   21078       1
   21072   21057   21066   21081       1   21069   21057   21066   21075       2
   21069   21057   21066   21078       1   21069   21057   21066   21081       1
   21066   21075   21090   21096       2   21066   21075   21090   21099       2
   21063   21048   21057   21066       2   21063   21048   21057   21069       1
   21063   21048   21057   21072       1   21060   21048   21057   21066       2
   21060   21048   21057   21069       1   21060   21048   21057   21072       1
   21057   21066   21075   21084       2   21057   21066   21075   21087       2
   21054   21036   21048   21057       2   21054   21036   21048   21060       1
   21054   21036   21048   21063       1   21051   21036   21048   21057       2
   21051   21036   21048   21060       1   21051   21036   21048   21063       1
   21048   21057   21066   21078       2   21048   21057   21066   21081       2
   21042   21018   21036   21048       2   21042   21018   21036   21051       1
   21042   21018   21036   21054       1   21039   21018   21036   21048       2
   21039   21018   21036   21051       1   21039   21018   21036   21054       1
   21036   21048   21057   21069       2   21036   21048   21057   21072       2
   21033   21012   21027   21045       4   21030   21006   21027   21045       4
   21024   21003   21018   21036       2   21024   21003   21018   21039       1
   21024   21003   21018   21042       1   21021   21003   21018   21036       2
   21021   21003   21018   21039       1   21021   21003   21018   21042       1
   21018   21036   21048   21060       2   21018   21036   21048   21063       2
   21015   21000   21012   21027       4   21015   21000   21012   21033       4
   21012   21027   21006   21030       4   21009   20997   21006   21027       4
   21009   20997   21006   21030       4   21006   21027   21012   21033       4
   21003   21018   21036   21051       2   21003   21018   21036   21054       2
   21000   20979   20997   21009       4   21000   21012   21027   21045       4
   20997   20979   21000   21015       4   20997   21006   21027   21045       4
   20991   20973   20985   21003       4   20988   20967   20985   21003       4
   20985   21003   21018   21039       5   20985   21003   21018   21042       5
   20982   20964   20976   20994       4   20979   20958   20976   20994       4
   20979   20997   21006   21030       4   20979   21000   21012   21033       4
   20973   20985   20967   20988       4   20973   20985   21003   21021       8
   20973   20985   21003   21024       8   20970   20949   20967   20985       4
   20970   20949   20967   20988       4   20967   20985   20973   20991       4
   20967   20985   21003   21021       8   20967   20985   21003   21024       8
   20961   20943   20958   20976       4   20961   20943   20958   20979       4
   20958   20976   20964   20982       4   20958   20979   20997   21009       4
   20958   20979   21000   21015       4   20955   20952   20973   20991       4
   20952   20937   20949   20970       4   20946   20934   20943   20961       4
   20946   20964   20976   20994       4   20943   20958   20976   20994       4
   20940   20946   20964   20982       4   20937   20949   20967   20988       4
   20937   20952   20973   20991       4   20934   20946   20964   20982       4
   20931   20937   20949   20970       4   20928   20934   20943   20961       4
   21300   21285   21297   21303       1   21300   21285   21297   21306       1
   21300   21285   21297   21309       1   21294   21285   21297   21303       1
   21294   21285   21297   21306       1   21294   21285   21297   21309       1
   21291   21282   21285   21294       1   21291   21282   21285   21297       2
   21291   21282   21285   21300       1   21288   21282   21285   21294       1
   21288   21282   21285   21297       2   21288   21282   21285   21300       1
   21282   21285   21297   21303       2   21282   21285   21297   21306       2
   21282   21285   21297   21309       2   21279   21267   21282   21285       2
   21279   21267   21282   21288       1   21279   21267   21282   21291       1
   21276   21267   21282   21285       2   21276   21267   21282   21288       1
   21276   21267   21282   21291       1   21273   21258   21267   21276       1
   21273   21258   21267   21279       1   21273   21258   21267   21282       2
   21270   21258   21267   21276       1   21270   21258   21267   21279       1
   21270   21258   21267   21282       2   21267   21282   21285   21294       2
   21267   21282   21285   21300       2   21264   21249   21258   21267       2
   21264   21249   21258   21270       1   21264   21249   21258   21273       1
   21261   21249   21258   21267       2   21261   21249   21258   21270       1
   21261   21249   21258   21273       1   21258   21267   21282   21288       2
   21258   21267   21282   21291       2   21255   21240   21249   21258       2
   21255   21240   21249   21261       1   21255   21240   21249   21264       1
   21252   21240   21249   21258       2   21252   21240   21249   21261       1
   21252   21240   21249   21264       1   21249   21258   21267   21276       2
   21249   21258   21267   21279       2   21246   21228   21240   21249       2
   21246   21228   21240   21252       1   21246   21228   21240   21255       1
   21243   21228   21240   21249       2   21243   21228   21240   21252       1
   21243   21228   21240   21255       1   21240   21249   21258   21270       2
   21240   21249   21258   21273       2   21234   21210   21228   21240       2
   21234   21210   21228   21243       1   21234   21210   21228   21246       1
   21231   21210   21228   21240       2   21231   21210   21228   21243       1
   21231   21210   21228   21246       1   21228   21240   21249   21261       2
   21228   21240   21249   21264       2   21225   21204   21219   21237       4
   21222   21198   21219   21237       4   21216   21195   21210   21228       2
   21216   21195   21210   21231       1   21216   21195   21210   21234       1
   21213   21195   21210   21228       2   21213   21195   21210   21231       1
   21213   21195   21210   21234       1   21210   21228   21240   21252       2
   21210   21228   21240   21255       2   21207   21192   21204   21219       4
   21207   21192   21204   21225       4   21204   21219   21198   21222       4
   21201   21189   21198   21219       4   21201   21189   21198   21222       4
   21198   21219   21204   21225       4   21195   21210   21228   21243       2
   21195   21210   21228   21246       2   21192   21171   21189   21201       4
   21192   21204   21219   21237       4   21189   21171   21192   21207       4
   21189   21198   21219   21237       4   21183   21165   21177   21195       4
   21180   21159   21177   21195       4   21177   21195   21210   21231       5
   21177   21195   21210   21234       5   21174   21156   21168   21186       4
   21171   21150   21168   21186       4   21171   21189   21198   21222       4
   21171   21192   21204   21225       4   21165   21177   21159   21180       4
   21165   21177   21195   21213       8   21165   21177   21195   21216       8
   21162   21141   21159   21177       4   21162   21141   21159   21180       4
   21159   21177   21165   21183       4   21159   21177   21195   21213       8
   21159   21177   21195   21216       8   21153   21135   21150   21168       4
   21153   21135   21150   21171       4   21150   21168   21156   21174       4
   21150   21171   21189   21201       4   21150   21171   21192   21207       4
   21147   21144   21165   21183       4   21144   21129   21141   21162       4
   21138   21126   21135   21153       4   21138   21156   21168   21186       4
   21135   21150   21168   21186       4   21132   21138   21156   21174       4
   21129   21141   21159   21180       4   21129   21144   21165   21183       4
   21126   21138   21156   21174       4   21123   21129   21141   21162       4
   21120   21126   21135   21153       4   21492   21477   21489   21495       1
   21492   21477   21489   21498       1   21492   21477   21489   21501       1
   21486   21477   21489   21495       1   21486   21477   21489   21498       1
   21486   21477   21489   21501       1   21483   21474   21477   21486       1
   21483   21474   21477   21489       2   21483   21474   21477   21492       1
   21480   21474   21477   21486       1   21480   21474   21477   21489       2
   21480   21474   21477   21492       1   21474   21477   21489   21495       2
   21474   21477   21489   21498       2   21474   21477   21489   21501       2
   21471   21459   21474   21477       2   21471   21459   21474   21480       1
   21471   21459   21474   21483       1   21468   21459   21474   21477       2
   21468   21459   21474   21480       1   21468   21459   21474   21483       1
   21465   21450   21459   21468       1   21465   21450   21459   21471       1
   21465   21450   21459   21474       2   21462   21450   21459   21468       1
   21462   21450   21459   21471       1   21462   21450   21459   21474       2
   21459   21474   21477   21486       2   21459   21474   21477   21492       2
   21456   21441   21450   21459       2   21456   21441   21450   21462       1
   21456   21441   21450   21465       1   21453   21441   21450   21459       2
   21453   21441   21450   21462       1   21453   21441   21450   21465       1
   21450   21459   21474   21480       2   21450   21459   21474   21483       2
   21447   21432   21441   21450       2   21447   21432   21441   21453       1
   21447   21432   21441   21456       1   21444   21432   21441   21450       2
   21444   21432   21441   21453       1   21444   21432   21441   21456       1
   21441   21450   21459   21468       2   21441   21450   21459   21471       2
   21438   21420   21432   21441       2   21438   21420   21432   21444       1
   21438   21420   21432   21447       1   21435   21420   21432   21441       2
   21435   21420   21432   21444       1   21435   21420   21432   21447       1
   21432   21441   21450   21462       2   21432   21441   21450   21465       2
   21426   21402   21420   21432       2   21426   21402   21420   21435       1
   21426   21402   21420   21438       1   21423   21402   21420   21432       2
   21423   21402   21420   21435       1   21423   21402   21420   21438       1
   21420   21432   21441   21453       2   21420   21432   21441   21456       2
   21417   21396   21411   21429       4   21414   21390   21411   21429       4
   21408   21387   21402   21420       2   21408   21387   21402   21423       1
   21408   21387   21402   21426       1   21405   21387   21402   21420       2
   21405   21387   21402   21423       1   21405   21387   21402   21426       1
   21402   21420   21432   21444       2   21402   21420   21432   21447       2
   21399   21384   21396   21411       4   21399   21384   21396   21417       4
   21396   21411   21390   21414       4   21393   21381   21390   21411       4
   21393   21381   21390   21414       4   21390   21411   21396   21417       4
   21387   21402   21420   21435       2   21387   21402   21420   21438       2
   21384   21363   21381   21393       4   21384   21396   21411   21429       4
   21381   21363   21384   21399       4   21381   21390   21411   21429       4
   21375   21357   21369   21387       4   21372   21351   21369   21387       4
   21369   21387   21402   21423       5   21369   21387   21402   21426       5
   21366   21348   21360   21378       4   21363   21342   21360   21378       4
   21363   21381   21390   21414       4   21363   21384   21396   21417       4
   21357   21369   21351   21372       4   21357   21369   21387   21405       8
   21357   21369   21387   21408       8   21354   21333   21351   21369       4
   21354   21333   21351   21372       4   21351   21369   21357   21375       4
   21351   21369   21387   21405       8   21351   21369   21387   21408       8
   21345   21327   21342   21360       4   21345   21327   21342   21363       4
   21342   21360   21348   21366       4   21342   21363   21381   21393       4
   21342   21363   21384   21399       4   21339   21336   21357   21375       4
   21336   21321   21333   21354       4   21330   21318   21327   21345       4
   21330   21348   21360   21378       4   21327   21342   21360   21378       4
   21324   21330   21348   21366       4   21321   21333   21351   21372       4
   21321   21336   21357   21375       4   21318   21330   21348   21366       4
   21315   21321   21333   21354       4   21312   21318   21327   21345       4
   21684   21669   21681   21687       1   21684   21669   21681   21690       1
   21684   21669   21681   21693       1   21678   21669   21681   21687       1
   21678   21669   21681   21690       1   21678   21669   21681   21693       1
   21675   21666   21669   21678       1   21675   21666   21669   21681       2
   21675   21666   21669   21684       1   21672   21666   21669   21678       1
   21672   21666   21669   21681       2   21672   21666   21669   21684       1
   21666   21669   21681   21687       2   21666   21669   21681   21690       2
   21666   21669   21681   21693       2   21663   21651   21666   21669       2
   21663   21651   21666   21672       1   21663   21651   21666   21675       1
   21660   21651   21666   21669       2   21660   21651   21666   21672       1
   21660   21651   21666   21675       1   21657   21642   21651   21660       1
   21657   21642   21651   21663       1   21657   21642   21651   21666       2
   21654   21642   21651   21660       1   21654   21642   21651   21663       1
   21654   21642   21651   21666       2   21651   21666   21669   21678       2
   21651   21666   21669   21684       2   21648   21633   21642   21651       2
   21648   21633   21642   21654       1   21648   21633   21642   21657       1
   21645   21633   21642   21651       2   21645   21633   21642   21654       1
   21645   21633   21642   21657       1   21642   21651   21666   21672       2
   21642   21651   21666   21675       2   21639   21624   21633   21642       2
   21639   21624   21633   21645       1   21639   21624   21633   21648       1
   21636   21624   21633   21642       2   21636   21624   21633   21645       1
   21636   21624   21633   21648       1   21633   21642   21651   21660       2
   21633   21642   21651   21663       2   21630   21612   21624   21633       2
   21630   21612   21624   21636       1   21630   21612   21624   21639       1
   21627   21612   21624   21633       2   21627   21612   21624   21636       1
   21627   21612   21624   21639       1   21624   21633   21642   21654       2
   21624   21633   21642   21657       2   21618   21594   21612   21624       2
   21618   21594   21612   21627       1   21618   21594   21612   21630       1
   21615   21594   21612   21624       2   21615   21594   21612   21627       1
   21615   21594   21612   21630       1   21612   21624   21633   21645       2
   21612   21624   21633   21648       2   21609   21588   21603   21621       4
   21606   21582   21603   21621       4   21600   21579   21594   21612       2
   21600   21579   21594   21615       1   21600   21579   21594   21618       1
   21597   21579   21594   21612       2   21597   21579   21594   21615       1
   21597   21579   21594   21618       1   21594   21612   21624   21636       2
   21594   21612   21624   21639       2   21591   21576   21588   21603       4
   21591   21576   21588   21609       4   21588   21603   21582   21606       4
   21585   21573   21582   21603       4   21585   21573   21582   21606       4
   21582   21603   21588   21609       4   21579   21594   21612   21627       2
   21579   21594   21612   21630       2   21576   21555   21573   21585       4
   21576   21588   21603   21621       4   21573   21555   21576   21591       4
   21573   21582   21603   21621       4   21567   21549   21561   21579       4
   21564   21543   21561   21579       4   21561   21579   21594   21615       5
   21561   21579   21594   21618       5   21558   21540   21552   21570       4
   21555   21534   21552   21570       4   21555   21573   21582   21606       4
   21555   21576   21588   21609       4   21549   21561   21543   21564       4
   21549   21561   21579   21597       8   21549   21561   21579   21600       8
   21546   21525   21543   21561       4   21546   21525   21543   21564       4
   21543   21561   21549   21567       4   21543   21561   21579   21597       8
   21543   21561   21579   21600       8   21537   21519   21534   21552       4
   21537   21519   21534   21555       4   21534   21552   21540   21558       4
   21534   21555   21573   21585       4   21534   21555   21576   21591       4
   21531   21528   21549   21567       4   21528   21513   21525   21546       4
   21522   21510   21519   21537       4   21522   21540   21552   21570       4
   21519   21534   21552   21570       4   21516   21522   21540   21558       4
   21513   21525   21543   21564       4   21513   21528   21549   21567       4
   21510   21522   21540   21558       4   21507   21513   21525   21546       4
   21504   21510   21519   21537       4   21876   21861   21873   21879       1
   21876   21861   21873   21882       1   21876   21861   21873   21885       1
   21870   21861   21873   21879       1   21870   21861   21873   21882       1
   21870   21861   21873   21885       1   21867   21858   21861   21870       1
   21867   21858   21861   21873       2   21867   21858   21861   21876       1
   21864   21858   21861   21870       1   21864   21858   21861   21873       2
   21864   21858   21861   21876       1   21858   21861   21873   21879       2
   21858   21861   21873   21882       2   21858   21861   21873   21885       2
   21855   21843   21858   21861       2   21855   21843   21858   21864       1
   21855   21843   21858   21867       1   21852   21843   21858   21861       2
   21852   21843   21858   21864       1   21852   21843   21858   21867       1
   21849   21834   21843   21852       1   21849   21834   21843   21855       1
   21849   21834   21843   21858       2   21846   21834   21843   21852       1
   21846   21834   21843   21855       1   21846   21834   21843   21858       2
   21843   21858   21861   21870       2   21843   21858   21861   21876       2
   21840   21825   21834   21843       2   21840   21825   21834   21846       1
   21840   21825   21834   21849       1   21837   21825   21834   21843       2
   21837   21825   21834   21846       1   21837   21825   21834   21849       1
   21834   21843   21858   21864       2   21834   21843   21858   21867       2
   21831   21816   21825   21834       2   21831   21816   21825   21837       1
   21831   21816   21825   21840       1   21828   21816   21825   21834       2
   21828   21816   21825   21837       1   21828   21816   21825   21840       1
   21825   21834   21843   21852       2   21825   21834   21843   21855       2
   21822   21804   21816   21825       2   21822   21804   21816   21828       1
   21822   21804   21816   21831       1   21819   21804   21816   21825       2
   21819   21804   21816   21828       1   21819   21804   21816   21831       1
   21816   21825   21834   21846       2   21816   21825   21834   21849       2
   21810   21786   21804   21816       2   21810   21786   21804   21819       1
   21810   21786   21804   21822       1   21807   21786   21804   21816       2
   21807   21786   21804   21819       1   21807   21786   21804   21822       1
   21804   21816   21825   21837       2   21804   21816   21825   21840       2
   21801   21780   21795   21813       4   21798   21774   21795   21813       4
   21792   21771   21786   21804       2   21792   21771   21786   21807       1
   21792   21771   21786   21810       1   21789   21771   21786   21804       2
   21789   21771   21786   21807       1   21789   21771   21786   21810       1
   21786   21804   21816   21828       2   21786   21804   21816   21831       2
   21783   21768   21780   21795       4   21783   21768   21780   21801       4
   21780   21795   21774   21798       4   21777   21765   21774   21795       4
   21777   21765   21774   21798       4   21774   21795   21780   21801       4
   21771   21786   21804   21819       2   21771   21786   21804   21822       2
   21768   21747   21765   21777       4   21768   21780   21795   21813       4
   21765   21747   21768   21783       4   21765   21774   21795   21813       4
   21759   21741   21753   21771       4   21756   21735   21753   21771       4
   21753   21771   21786   21807       5   21753   21771   21786   21810       5
   21750   21732   21744   21762       4   21747   21726   21744   21762       4
   21747   21765   21774   21798       4   21747   21768   21780   21801       4
   21741   21753   21735   21756       4   21741   21753   21771   21789       8
   21741   21753   21771   21792       8   21738   21717   21735   21753       4
   21738   21717   21735   21756       4   21735   21753   21741   21759       4
   21735   21753   21771   21789       8   21735   21753   21771   21792       8
   21729   21711   21726   21744       4   21729   21711   21726   21747       4
   21726   21744   21732   21750       4   21726   21747   21765   21777       4
   21726   21747   21768   21783       4   21723   21720   21741   21759       4
   21720   21705   21717   21738       4   21714   21702   21711   21729       4
   21714   21732   21744   21762       4   21711   21726   21744   21762       4
   21708   21714   21732   21750       4   21705   21717   21735   21756       4
   21705   21720   21741   21759       4   21702   21714   21732   21750       4
   21699   21705   21717   21738       4   21696   21702   21711   21729       4
   22068   22053   22065   22071       1   22068   22053   22065   22074       1
   22068   22053   22065   22077       1   22062   22053   22065   22071       1
   22062   22053   22065   22074       1   22062   22053   22065   22077       1
   22059   22050   22053   22062       1   22059   22050   22053   22065       2
   22059   22050   22053   22068       1   22056   22050   22053   22062       1
   22056   22050   22053   22065       2   22056   22050   22053   22068       1
   22050   22053   22065   22071       2   22050   22053   22065   22074       2
   22050   22053   22065   22077       2   22047   22035   22050   22053       2
   22047   22035   22050   22056       1   22047   22035   22050   22059       1
   22044   22035   22050   22053       2   22044   22035   22050   22056       1
   22044   22035   22050   22059       1   22041   22026   22035   22044       1
   22041   22026   22035   22047       1   22041   22026   22035   22050       2
   22038   22026   22035   22044       1   22038   22026   22035   22047       1
   22038   22026   22035   22050       2   22035   22050   22053   22062       2
   22035   22050   22053   22068       2   22032   22017   22026   22035       2
   22032   22017   22026   22038       1   22032   22017   22026   22041       1
   22029   22017   22026   22035       2   22029   22017   22026   22038       1
   22029   22017   22026   22041       1   22026   22035   22050   22056       2
   22026   22035   22050   22059       2   22023   22008   22017   22026       2
   22023   22008   22017   22029       1   22023   22008   22017   22032       1
   22020   22008   22017   22026       2   22020   22008   22017   22029       1
   22020   22008   22017   22032       1   22017   22026   22035   22044       2
   22017   22026   22035   22047       2   22014   21996   22008   22017       2
   22014   21996   22008   22020       1   22014   21996   22008   22023       1
   22011   21996   22008   22017       2   22011   21996   22008   22020       1
   22011   21996   22008   22023       1   22008   22017   22026   22038       2
   22008   22017   22026   22041       2   22002   21978   21996   22008       2
   22002   21978   21996   22011       1   22002   21978   21996   22014       1
   21999   21978   21996   22008       2   21999   21978   21996   22011       1
   21999   21978   21996   22014       1   21996   22008   22017   22029       2
   21996   22008   22017   22032       2   21993   21972   21987   22005       4
   21990   21966   21987   22005       4   21984   21963   21978   21996       2
   21984   21963   21978   21999       1   21984   21963   21978   22002       1
   21981   21963   21978   21996       2   21981   21963   21978   21999       1
   21981   21963   21978   22002       1   21978   21996   22008   22020       2
   21978   21996   22008   22023       2   21975   21960   21972   21987       4
   21975   21960   21972   21993       4   21972   21987   21966   21990       4
   21969   21957   21966   21987       4   21969   21957   21966   21990       4
   21966   21987   21972   21993       4   21963   21978   21996   22011       2
   21963   21978   21996   22014       2   21960   21939   21957   21969       4
   21960   21972   21987   22005       4   21957   21939   21960   21975       4
   21957   21966   21987   22005       4   21951   21933   21945   21963       4
   21948   21927   21945   21963       4   21945   21963   21978   21999       5
   21945   21963   21978   22002       5   21942   21924   21936   21954       4
   21939   21918   21936   21954       4   21939   21957   21966   21990       4
   21939   21960   21972   21993       4   21933   21945   21927   21948       4
   21933   21945   21963   21981       8   21933   21945   21963   21984       8
   21930   21909   21927   21945       4   21930   21909   21927   21948       4
   21927   21945   21933   21951       4   21927   21945   21963   21981       8
   21927   21945   21963   21984       8   21921   21903   21918   21936       4
   21921   21903   21918   21939       4   21918   21936   21924   21942       4
   21918   21939   21957   21969       4   21918   21939   21960   21975       4
   21915   21912   21933   21951       4   21912   21897   21909   21930       4
   21906   21894   21903   21921       4   21906   21924   21936   21954       4
   21903   21918   21936   21954       4   21900   21906   21924   21942       4
   21897   21909   21927   21948       4   21897   21912   21933   21951       4
   21894   21906   21924   21942       4   21891   21897   21909   21930       4
   21888   21894   21903   21921       4   22260   22245   22257   22263       1
   22260   22245   22257   22266       1   22260   22245   22257   22269       1
   22254   22245   22257   22263       1   22254   22245   22257   22266       1
   22254   22245   22257   22269       1   22251   22242   22245   22254       1
   22251   22242   22245   22257       2   22251   22242   22245   22260       1
   22248   22242   22245   22254       1   22248   22242   22245   22257       2
   22248   22242   22245   22260       1   22242   22245   22257   22263       2
   22242   22245   22257   22266       2   22242   22245   22257   22269       2
   22239   22227   22242   22245       2   22239   22227   22242   22248       1
   22239   22227   22242   22251       1   22236   22227   22242   22245       2
   22236   22227   22242   22248       1   22236   22227   22242   22251       1
   22233   22218   22227   22236       1   22233   22218   22227   22239       1
   22233   22218   22227   22242       2   22230   22218   22227   22236       1
   22230   22218   22227   22239       1   22230   22218   22227   22242       2
   22227   22242   22245   22254       2   22227   22242   22245   22260       2
   22224   22209   22218   22227       2   22224   22209   22218   22230       1
   22224   22209   22218   22233       1   22221   22209   22218   22227       2
   22221   22209   22218   22230       1   22221   22209   22218   22233       1
   22218   22227   22242   22248       2   22218   22227   22242   22251       2
   22215   22200   22209   22218       2   22215   22200   22209   22221       1
   22215   22200   22209   22224       1   22212   22200   22209   22218       2
   22212   22200   22209   22221       1   22212   22200   22209   22224       1
   22209   22218   22227   22236       2   22209   22218   22227   22239       2
   22206   22188   22200   22209       2   22206   22188   22200   22212       1
   22206   22188   22200   22215       1   22203   22188   22200   22209       2
   22203   22188   22200   22212       1   22203   22188   22200   22215       1
   22200   22209   22218   22230       2   22200   22209   22218   22233       2
   22194   22170   22188   22200       2   22194   22170   22188   22203       1
   22194   22170   22188   22206       1   22191   22170   22188   22200       2
   22191   22170   22188   22203       1   22191   22170   22188   22206       1
   22188   22200   22209   22221       2   22188   22200   22209   22224       2
   22185   22164   22179   22197       4   22182   22158   22179   22197       4
   22176   22155   22170   22188       2   22176   22155   22170   22191       1
   22176   22155   22170   22194       1   22173   22155   22170   22188       2
   22173   22155   22170   22191       1   22173   22155   22170   22194       1
   22170   22188   22200   22212       2   22170   22188   22200   22215       2
   22167   22152   22164   22179       4   22167   22152   22164   22185       4
   22164   22179   22158   22182       4   22161   22149   22158   22179       4
   22161   22149   22158   22182       4   22158   22179   22164   22185       4
   22155   22170   22188   22203       2   22155   22170   22188   22206       2
   22152   22131   22149   22161       4   22152   22164   22179   22197       4
   22149   22131   22152   22167       4   22149   22158   22179   22197       4
   22143   22125   22137   22155       4   22140   22119   22137   22155       4
   22137   22155   22170   22191       5   22137   22155   22170   22194       5
   22134   22116   22128   22146       4   22131   22110   22128   22146       4
   22131   22149   22158   22182       4   22131   22152   22164   22185       4
   22125   22137   22119   22140       4   22125   22137   22155   22173       8
   22125   22137   22155   22176       8   22122   22101   22119   22137       4
   22122   22101   22119   22140       4   22119   22137   22125   22143       4
   22119   22137   22155   22173       8   22119   22137   22155   22176       8
   22113   22095   22110   22128       4   22113   22095   22110   22131       4
   22110   22128   22116   22134       4   22110   22131   22149   22161       4
   22110   22131   22152   22167       4   22107   22104   22125   22143       4
   22104   22089   22101   22122       4   22098   22086   22095   22113       4
   22098   22116   22128   22146       4   22095   22110   22128   22146       4
   22092   22098   22116   22134       4   22089   22101   22119   22140       4
   22089   22104   22125   22143       4   22086   22098   22116   22134       4
   22083   22089   22101   22122       4   22080   22086   22095   22113       4
   22452   22437   22449   22455       1   22452   22437   22449   22458       1
   22452   22437   22449   22461       1   22446   22437   22449   22455       1
   22446   22437   22449   22458       1   22446   22437   22449   22461       1
   22443   22434   22437   22446       1   22443   22434   22437   22449       2
   22443   22434   22437   22452       1   22440   22434   22437   22446       1
   22440   22434   22437   22449       2   22440   22434   22437   22452       1
   22434   22437   22449   22455       2   22434   22437   22449   22458       2
   22434   22437   22449   22461       2   22431   22419   22434   22437       2
   22431   22419   22434   22440       1   22431   22419   22434   22443       1
   22428   22419   22434   22437       2   22428   22419   22434   22440       1
   22428   22419   22434   22443       1   22425   22410   22419   22428       1
   22425   22410   22419   22431       1   22425   22410   22419   22434       2
   22422   22410   22419   22428       1   22422   22410   22419   22431       1
   22422   22410   22419   22434       2   22419   22434   22437   22446       2
   22419   22434   22437   22452       2   22416   22401   22410   22419       2
   22416   22401   22410   22422       1   22416   22401   22410   22425       1
   22413   22401   22410   22419       2   22413   22401   22410   22422       1
   22413   22401   22410   22425       1   22410   22419   22434   22440       2
   22410   22419   22434   22443       2   22407   22392   22401   22410       2
   22407   22392   22401   22413       1   22407   22392   22401   22416       1
   22404   22392   22401   22410       2   22404   22392   22401   22413       1
   22404   22392   22401   22416       1   22401   22410   22419   22428       2
   22401   22410   22419   22431       2   22398   22380   22392   22401       2
   22398   22380   22392   22404       1   22398   22380   22392   22407       1
   22395   22380   22392   22401       2   22395   22380   22392   22404       1
   22395   22380   22392   22407       1   22392   22401   22410   22422       2
   22392   22401   22410   22425       2   22386   22362   22380   22392       2
   22386   22362   22380   22395       1   22386   22362   22380   22398       1
   22383   22362   22380   22392       2   22383   22362   22380   22395       1
   22383   22362   22380   22398       1   22380   22392   22401   22413       2
   22380   22392   22401   22416       2   22377   22356   22371   22389       4
   22374   22350   22371   22389       4   22368   22347   22362   22380       2
   22368   22347   22362   22383       1   22368   22347   22362   22386       1
   22365   22347   22362   22380       2   22365   22347   22362   22383       1
   22365   22347   22362   22386       1   22362   22380   22392   22404       2
   22362   22380   22392   22407       2   22359   22344   22356   22371       4
   22359   22344   22356   22377       4   22356   22371   22350   22374       4
   22353   22341   22350   22371       4   22353   22341   22350   22374       4
   22350   22371   22356   22377       4   22347   22362   22380   22395       2
   22347   22362   22380   22398       2   22344   22323   22341   22353       4
   22344   22356   22371   22389       4   22341   22323   22344   22359       4
   22341   22350   22371   22389       4   22335   22317   22329   22347       4
   22332   22311   22329   22347       4   22329   22347   22362   22383       5
   22329   22347   22362   22386       5   22326   22308   22320   22338       4
   22323   22302   22320   22338       4   22323   22341   22350   22374       4
   22323   22344   22356   22377       4   22317   22329   22311   22332       4
   22317   22329   22347   22365       8   22317   22329   22347   22368       8
   22314   22293   22311   22329       4   22314   22293   22311   22332       4
   22311   22329   22317   22335       4   22311   22329   22347   22365       8
   22311   22329   22347   22368       8   22305   22287   22302   22320       4
   22305   22287   22302   22323       4   22302   22320   22308   22326       4
   22302   22323   22341   22353       4   22302   22323   22344   22359       4
   22299   22296   22317   22335       4   22296   22281   22293   22314       4
   22290   22278   22287   22305       4   22290   22308   22320   22338       4
   22287   22302   22320   22338       4   22284   22290   22308   22326       4
   22281   22293   22311   22332       4   22281   22296   22317   22335       4
   22278   22290   22308   22326       4   22275   22281   22293   22314       4
   22272   22278   22287   22305       4   22644   22629   22641   22647       1
   22644   22629   22641   22650       1   22644   22629   22641   22653       1
   22638   22629   22641   22647       1   22638   22629   22641   22650       1
   22638   22629   22641   22653       1   22635   22626   22629   22638       1
   22635   22626   22629   22641       2   22635   22626   22629   22644       1
   22632   22626   22629   22638       1   22632   22626   22629   22641       2
   22632   22626   22629   22644       1   22626   22629   22641   22647       2
   22626   22629   22641   22650       2   22626   22629   22641   22653       2
   22623   22611   22626   22629       2   22623   22611   22626   22632       1
   22623   22611   22626   22635       1   22620   22611   22626   22629       2
   22620   22611   22626   22632       1   22620   22611   22626   22635       1
   22617   22602   22611   22620       1   22617   22602   22611   22623       1
   22617   22602   22611   22626       2   22614   22602   22611   22620       1
   22614   22602   22611   22623       1   22614   22602   22611   22626       2
   22611   22626   22629   22638       2   22611   22626   22629   22644       2
   22608   22593   22602   22611       2   22608   22593   22602   22614       1
   22608   22593   22602   22617       1   22605   22593   22602   22611       2
   22605   22593   22602   22614       1   22605   22593   22602   22617       1
   22602   22611   22626   22632       2   22602   22611   22626   22635       2
   22599   22584   22593   22602       2   22599   22584   22593   22605       1
   22599   22584   22593   22608       1   22596   22584   22593   22602       2
   22596   22584   22593   22605       1   22596   22584   22593   22608       1
   22593   22602   22611   22620       2   22593   22602   22611   22623       2
   22590   22572   22584   22593       2   22590   22572   22584   22596       1
   22590   22572   22584   22599       1   22587   22572   22584   22593       2
   22587   22572   22584   22596       1   22587   22572   22584   22599       1
   22584   22593   22602   22614       2   22584   22593   22602   22617       2
   22578   22554   22572   22584       2   22578   22554   22572   22587       1
   22578   22554   22572   22590       1   22575   22554   22572   22584       2
   22575   22554   22572   22587       1   22575   22554   22572   22590       1
   22572   22584   22593   22605       2   22572   22584   22593   22608       2
   22569   22548   22563   22581       4   22566   22542   22563   22581       4
   22560   22539   22554   22572       2   22560   22539   22554   22575       1
   22560   22539   22554   22578       1   22557   22539   22554   22572       2
   22557   22539   22554   22575       1   22557   22539   22554   22578       1
   22554   22572   22584   22596       2   22554   22572   22584   22599       2
   22551   22536   22548   22563       4   22551   22536   22548   22569       4
   22548   22563   22542   22566       4   22545   22533   22542   22563       4
   22545   22533   22542   22566       4   22542   22563   22548   22569       4
   22539   22554   22572   22587       2   22539   22554   22572   22590       2
   22536   22515   22533   22545       4   22536   22548   22563   22581       4
   22533   22515   22536   22551       4   22533   22542   22563   22581       4
   22527   22509   22521   22539       4   22524   22503   22521   22539       4
   22521   22539   22554   22575       5   22521   22539   22554   22578       5
   22518   22500   22512   22530       4   22515   22494   22512   22530       4
   22515   22533   22542   22566       4   22515   22536   22548   22569       4
   22509   22521   22503   22524       4   22509   22521   22539   22557       8
   22509   22521   22539   22560       8   22506   22485   22503   22521       4
   22506   22485   22503   22524       4   22503   22521   22509   22527       4
   22503   22521   22539   22557       8   22503   22521   22539   22560       8
   22497   22479   22494   22512       4   22497   22479   22494   22515       4
   22494   22512   22500   22518       4   22494   22515   22533   22545       4
   22494   22515   22536   22551       4   22491   22488   22509   22527       4
   22488   22473   22485   22506       4   22482   22470   22479   22497       4
   22482   22500   22512   22530       4   22479   22494   22512   22530       4
   22476   22482   22500   22518       4   22473   22485   22503   22524       4
   22473   22488   22509   22527       4   22470   22482   22500   22518       4
   22467   22473   22485   22506       4   22464   22470   22479   22497       4
   22836   22821   22833   22839       1   22836   22821   22833   22842       1
   22836   22821   22833   22845       1   22830   22821   22833   22839       1
   22830   22821   22833   22842       1   22830   22821   22833   22845       1
   22827   22818   22821   22830       1   22827   22818   22821   22833       2
   22827   22818   22821   22836       1   22824   22818   22821   22830       1
   22824   22818   22821   22833       2   22824   22818   22821   22836       1
   22818   22821   22833   22839       2   22818   22821   22833   22842       2
   22818   22821   22833   22845       2   22815   22803   22818   22821       2
   22815   22803   22818   22824       1   22815   22803   22818   22827       1
   22812   22803   22818   22821       2   22812   22803   22818   22824       1
   22812   22803   22818   22827       1   22809   22794   22803   22812       1
   22809   22794   22803   22815       1   22809   22794   22803   22818       2
   22806   22794   22803   22812       1   22806   22794   22803   22815       1
   22806   22794   22803   22818       2   22803   22818   22821   22830       2
   22803   22818   22821   22836       2   22800   22785   22794   22803       2
   22800   22785   22794   22806       1   22800   22785   22794   22809       1
   22797   22785   22794   22803       2   22797   22785   22794   22806       1
   22797   22785   22794   22809       1   22794   22803   22818   22824       2
   22794   22803   22818   22827       2   22791   22776   22785   22794       2
   22791   22776   22785   22797       1   22791   22776   22785   22800       1
   22788   22776   22785   22794       2   22788   22776   22785   22797       1
   22788   22776   22785   22800       1   22785   22794   22803   22812       2
   22785   22794   22803   22815       2   22782   22764   22776   22785       2
   22782   22764   22776   22788       1   22782   22764   22776   22791       1
   22779   22764   22776   22785       2   22779   22764   22776   22788       1
   22779   22764   22776   22791       1   22776   22785   22794   22806       2
   22776   22785   22794   22809       2   22770   22746   22764   22776       2
   22770   22746   22764   22779       1   22770   22746   22764   22782       1
   22767   22746   22764   22776       2   22767   22746   22764   22779       1
   22767   22746   22764   22782       1   22764   22776   22785   22797       2
   22764   22776   22785   22800       2   22761   22740   22755   22773       4
   22758   22734   22755   22773       4   22752   22731   22746   22764       2
   22752   22731   22746   22767       1   22752   22731   22746   22770       1
   22749   22731   22746   22764       2   22749   22731   22746   22767       1
   22749   22731   22746   22770       1   22746   22764   22776   22788       2
   22746   22764   22776   22791       2   22743   22728   22740   22755       4
   22743   22728   22740   22761       4   22740   22755   22734   22758       4
   22737   22725   22734   22755       4   22737   22725   22734   22758       4
   22734   22755   22740   22761       4   22731   22746   22764   22779       2
   22731   22746   22764   22782       2   22728   22707   22725   22737       4
   22728   22740   22755   22773       4   22725   22707   22728   22743       4
   22725   22734   22755   22773       4   22719   22701   22713   22731       4
   22716   22695   22713   22731       4   22713   22731   22746   22767       5
   22713   22731   22746   22770       5   22710   22692   22704   22722       4
   22707   22686   22704   22722       4   22707   22725   22734   22758       4
   22707   22728   22740   22761       4   22701   22713   22695   22716       4
   22701   22713   22731   22749       8   22701   22713   22731   22752       8
   22698   22677   22695   22713       4   22698   22677   22695   22716       4
   22695   22713   22701   22719       4   22695   22713   22731   22749       8
   22695   22713   22731   22752       8   22689   22671   22686   22704       4
   22689   22671   22686   22707       4   22686   22704   22692   22710       4
   22686   22707   22725   22737       4   22686   22707   22728   22743       4
   22683   22680   22701   22719       4   22680   22665   22677   22698       4
   22674   22662   22671   22689       4   22674   22692   22704   22722       4
   22671   22686   22704   22722       4   22668   22674   22692   22710       4
   22665   22677   22695   22716       4   22665   22680   22701   22719       4
   22662   22674   22692   22710       4   22659   22665   22677   22698       4
   22656   22662   22671   22689       4   23028   23013   23025   23031       1
   23028   23013   23025   23034       1   23028   23013   23025   23037       1
   23022   23013   23025   23031       1   23022   23013   23025   23034       1
   23022   23013   23025   23037       1   23019   23010   23013   23022       1
   23019   23010   23013   23025       2   23019   23010   23013   23028       1
   23016   23010   23013   23022       1   23016   23010   23013   23025       2
   23016   23010   23013   23028       1   23010   23013   23025   23031       2
   23010   23013   23025   23034       2   23010   23013   23025   23037       2
   23007   22995   23010   23013       2   23007   22995   23010   23016       1
   23007   22995   23010   23019       1   23004   22995   23010   23013       2
   23004   22995   23010   23016       1   23004   22995   23010   23019       1
   23001   22986   22995   23004       1   23001   22986   22995   23007       1
   23001   22986   22995   23010       2   22998   22986   22995   23004       1
   22998   22986   22995   23007       1   22998   22986   22995   23010       2
   22995   23010   23013   23022       2   22995   23010   23013   23028       2
   22992   22977   22986   22995       2   22992   22977   22986   22998       1
   22992   22977   22986   23001       1   22989   22977   22986   22995       2
   22989   22977   22986   22998       1   22989   22977   22986   23001       1
   22986   22995   23010   23016       2   22986   22995   23010   23019       2
   22983   22968   22977   22986       2   22983   22968   22977   22989       1
   22983   22968   22977   22992       1   22980   22968   22977   22986       2
   22980   22968   22977   22989       1   22980   22968   22977   22992       1
   22977   22986   22995   23004       2   22977   22986   22995   23007       2
   22974   22956   22968   22977       2   22974   22956   22968   22980       1
   22974   22956   22968   22983       1   22971   22956   22968   22977       2
   22971   22956   22968   22980       1   22971   22956   22968   22983       1
   22968   22977   22986   22998       2   22968   22977   22986   23001       2
   22962   22938   22956   22968       2   22962   22938   22956   22971       1
   22962   22938   22956   22974       1   22959   22938   22956   22968       2
   22959   22938   22956   22971       1   22959   22938   22956   22974       1
   22956   22968   22977   22989       2   22956   22968   22977   22992       2
   22953   22932   22947   22965       4   22950   22926   22947   22965       4
   22944   22923   22938   22956       2   22944   22923   22938   22959       1
   22944   22923   22938   22962       1   22941   22923   22938   22956       2
   22941   22923   22938   22959       1   22941   22923   22938   22962       1
   22938   22956   22968   22980       2   22938   22956   22968   22983       2
   22935   22920   22932   22947       4   22935   22920   22932   22953       4
   22932   22947   22926   22950       4   22929   22917   22926   22947       4
   22929   22917   22926   22950       4   22926   22947   22932   22953       4
   22923   22938   22956   22971       2   22923   22938   22956   22974       2
   22920   22899   22917   22929       4   22920   22932   22947   22965       4
   22917   22899   22920   22935       4   22917   22926   22947   22965       4
   22911   22893   22905   22923       4   22908   22887   22905   22923       4
   22905   22923   22938   22959       5   22905   22923   22938   22962       5
   22902   22884   22896   22914       4   22899   22878   22896   22914       4
   22899   22917   22926   22950       4   22899   22920   22932   22953       4
   22893   22905   22887   22908       4   22893   22905   22923   22941       8
   22893   22905   22923   22944       8   22890   22869   22887   22905       4
   22890   22869   22887   22908       4   22887   22905   22893   22911       4
   22887   22905   22923   22941       8   22887   22905   22923   22944       8
   22881   22863   22878   22896       4   22881   22863   22878   22899       4
   22878   22896   22884   22902       4   22878   22899   22917   22929       4
   22878   22899   22920   22935       4   22875   22872   22893   22911       4
   22872   22857   22869   22890       4   22866   22854   22863   22881       4
   22866   22884   22896   22914       4   22863   22878   22896   22914       4
   22860   22866   22884   22902       4   22857   22869   22887   22908       4
   22857   22872   22893   22911       4   22854   22866   22884   22902       4
   22851   22857   22869   22890       4   22848   22854   22863   22881       4
   23220   23205   23217   23223       1   23220   23205   23217   23226       1
   23220   23205   23217   23229       1   23214   23205   23217   23223       1
   23214   23205   23217   23226       1   23214   23205   23217   23229       1
   23211   23202   23205   23214       1   23211   23202   23205   23217       2
   23211   23202   23205   23220       1   23208   23202   23205   23214       1
   23208   23202   23205   23217       2   23208   23202   23205   23220       1
   23202   23205   23217   23223       2   23202   23205   23217   23226       2
   23202   23205   23217   23229       2   23199   23187   23202   23205       2
   23199   23187   23202   23208       1   23199   23187   23202   23211       1
   23196   23187   23202   23205       2   23196   23187   23202   23208       1
   23196   23187   23202   23211       1   23193   23178   23187   23196       1
   23193   23178   23187   23199       1   23193   23178   23187   23202       2
   23190   23178   23187   23196       1   23190   23178   23187   23199       1
   23190   23178   23187   23202       2   23187   23202   23205   23214       2
   23187   23202   23205   23220       2   23184   23169   23178   23187       2
   23184   23169   23178   23190       1   23184   23169   23178   23193       1
   23181   23169   23178   23187       2   23181   23169   23178   23190       1
   23181   23169   23178   23193       1   23178   23187   23202   23208       2
   23178   23187   23202   23211       2   23175   23160   23169   23178       2
   23175   23160   23169   23181       1   23175   23160   23169   23184       1
   23172   23160   23169   23178       2   23172   23160   23169   23181       1
   23172   23160   23169   23184       1   23169   23178   23187   23196       2
   23169   23178   23187   23199       2   23166   23148   23160   23169       2
   23166   23148   23160   23172       1   23166   23148   23160   23175       1
   23163   23148   23160   23169       2   23163   23148   23160   23172       1
   23163   23148   23160   23175       1   23160   23169   23178   23190       2
   23160   23169   23178   23193       2   23154   23130   23148   23160       2
   23154   23130   23148   23163       1   23154   23130   23148   23166       1
   23151   23130   23148   23160       2   23151   23130   23148   23163       1
   23151   23130   23148   23166       1   23148   23160   23169   23181       2
   23148   23160   23169   23184       2   23145   23124   23139   23157       4
   23142   23118   23139   23157       4   23136   23115   23130   23148       2
   23136   23115   23130   23151       1   23136   23115   23130   23154       1
   23133   23115   23130   23148       2   23133   23115   23130   23151       1
   23133   23115   23130   23154       1   23130   23148   23160   23172       2
   23130   23148   23160   23175       2   23127   23112   23124   23139       4
   23127   23112   23124   23145       4   23124   23139   23118   23142       4
   23121   23109   23118   23139       4   23121   23109   23118   23142       4
   23118   23139   23124   23145       4   23115   23130   23148   23163       2
   23115   23130   23148   23166       2   23112   23091   23109   23121       4
   23112   23124   23139   23157       4   23109   23091   23112   23127       4
   23109   23118   23139   23157       4   23103   23085   23097   23115       4
   23100   23079   23097   23115       4   23097   23115   23130   23151       5
   23097   23115   23130   23154       5   23094   23076   23088   23106       4
   23091   23070   23088   23106       4   23091   23109   23118   23142       4
   23091   23112   23124   23145       4   23085   23097   23079   23100       4
   23085   23097   23115   23133       8   23085   23097   23115   23136       8
   23082   23061   23079   23097       4   23082   23061   23079   23100       4
   23079   23097   23085   23103       4   23079   23097   23115   23133       8
   23079   23097   23115   23136       8   23073   23055   23070   23088       4
   23073   23055   23070   23091       4   23070   23088   23076   23094       4
   23070   23091   23109   23121       4   23070   23091   23112   23127       4
   23067   23064   23085   23103       4   23064   23049   23061   23082       4
   23058   23046   23055   23073       4   23058   23076   23088   23106       4
   23055   23070   23088   23106       4   23052   23058   23076   23094       4
   23049   23061   23079   23100       4   23049   23064   23085   23103       4
   23046   23058   23076   23094       4   23043   23049   23061   23082       4
   23040   23046   23055   23073       4   23412   23397   23409   23415       1
   23412   23397   23409   23418       1   23412   23397   23409   23421       1
   23406   23397   23409   23415       1   23406   23397   23409   23418       1
   23406   23397   23409   23421       1   23403   23394   23397   23406       1
   23403   23394   23397   23409       2   23403   23394   23397   23412       1
   23400   23394   23397   23406       1   23400   23394   23397   23409       2
   23400   23394   23397   23412       1   23394   23397   23409   23415       2
   23394   23397   23409   23418       2   23394   23397   23409   23421       2
   23391   23379   23394   23397       2   23391   23379   23394   23400       1
   23391   23379   23394   23403       1   23388   23379   23394   23397       2
   23388   23379   23394   23400       1   23388   23379   23394   23403       1
   23385   23370   23379   23388       1   23385   23370   23379   23391       1
   23385   23370   23379   23394       2   23382   23370   23379   23388       1
   23382   23370   23379   23391       1   23382   23370   23379   23394       2
   23379   23394   23397   23406       2   23379   23394   23397   23412       2
   23376   23361   23370   23379       2   23376   23361   23370   23382       1
   23376   23361   23370   23385       1   23373   23361   23370   23379       2
   23373   23361   23370   23382       1   23373   23361   23370   23385       1
   23370   23379   23394   23400       2   23370   23379   23394   23403       2
   23367   23352   23361   23370       2   23367   23352   23361   23373       1
   23367   23352   23361   23376       1   23364   23352   23361   23370       2
   23364   23352   23361   23373       1   23364   23352   23361   23376       1
   23361   23370   23379   23388       2   23361   23370   23379   23391       2
   23358   23340   23352   23361       2   23358   23340   23352   23364       1
   23358   23340   23352   23367       1   23355   23340   23352   23361       2
   23355   23340   23352   23364       1   23355   23340   23352   23367       1
   23352   23361   23370   23382       2   23352   23361   23370   23385       2
   23346   23322   23340   23352       2   23346   23322   23340   23355       1
   23346   23322   23340   23358       1   23343   23322   23340   23352       2
   23343   23322   23340   23355       1   23343   23322   23340   23358       1
   23340   23352   23361   23373       2   23340   23352   23361   23376       2
   23337   23316   23331   23349       4   23334   23310   23331   23349       4
   23328   23307   23322   23340       2   23328   23307   23322   23343       1
   23328   23307   23322   23346       1   23325   23307   23322   23340       2
   23325   23307   23322   23343       1   23325   23307   23322   23346       1
   23322   23340   23352   23364       2   23322   23340   23352   23367       2
   23319   23304   23316   23331       4   23319   23304   23316   23337       4
   23316   23331   23310   23334       4   23313   23301   23310   23331       4
   23313   23301   23310   23334       4   23310   23331   23316   23337       4
   23307   23322   23340   23355       2   23307   23322   23340   23358       2
   23304   23283   23301   23313       4   23304   23316   23331   23349       4
   23301   23283   23304   23319       4   23301   23310   23331   23349       4
   23295   23277   23289   23307       4   23292   23271   23289   23307       4
   23289   23307   23322   23343       5   23289   23307   23322   23346       5
   23286   23268   23280   23298       4   23283   23262   23280   23298       4
   23283   23301   23310   23334       4   23283   23304   23316   23337       4
   23277   23289   23271   23292       4   23277   23289   23307   23325       8
   23277   23289   23307   23328       8   23274   23253   23271   23289       4
   23274   23253   23271   23292       4   23271   23289   23277   23295       4
   23271   23289   23307   23325       8   23271   23289   23307   23328       8
   23265   23247   23262   23280       4   23265   23247   23262   23283       4
   23262   23280   23268   23286       4   23262   23283   23301   23313       4
   23262   23283   23304   23319       4   23259   23256   23277   23295       4
   23256   23241   23253   23274       4   23250   23238   23247   23265       4
   23250   23268   23280   23298       4   23247   23262   23280   23298       4
   23244   23250   23268   23286       4   23241   23253   23271   23292       4
   23241   23256   23277   23295       4   23238   23250   23268   23286       4
   23235   23241   23253   23274       4   23232   23238   23247   23265       4
   23604   23589   23601   23607       1   23604   23589   23601   23610       1
   23604   23589   23601   23613       1   23598   23589   23601   23607       1
   23598   23589   23601   23610       1   23598   23589   23601   23613       1
   23595   23586   23589   23598       1   23595   23586   23589   23601       2
   23595   23586   23589   23604       1   23592   23586   23589   23598       1
   23592   23586   23589   23601       2   23592   23586   23589   23604       1
   23586   23589   23601   23607       2   23586   23589   23601   23610       2
   23586   23589   23601   23613       2   23583   23571   23586   23589       2
   23583   23571   23586   23592       1   23583   23571   23586   23595       1
   23580   23571   23586   23589       2   23580   23571   23586   23592       1
   23580   23571   23586   23595       1   23577   23562   23571   23580       1
   23577   23562   23571   23583       1   23577   23562   23571   23586       2
   23574   23562   23571   23580       1   23574   23562   23571   23583       1
   23574   23562   23571   23586       2   23571   23586   23589   23598       2
   23571   23586   23589   23604       2   23568   23553   23562   23571       2
   23568   23553   23562   23574       1   23568   23553   23562   23577       1
   23565   23553   23562   23571       2   23565   23553   23562   23574       1
   23565   23553   23562   23577       1   23562   23571   23586   23592       2
   23562   23571   23586   23595       2   23559   23544   23553   23562       2
   23559   23544   23553   23565       1   23559   23544   23553   23568       1
   23556   23544   23553   23562       2   23556   23544   23553   23565       1
   23556   23544   23553   23568       1   23553   23562   23571   23580       2
   23553   23562   23571   23583       2   23550   23532   23544   23553       2
   23550   23532   23544   23556       1   23550   23532   23544   23559       1
   23547   23532   23544   23553       2   23547   23532   23544   23556       1
   23547   23532   23544   23559       1   23544   23553   23562   23574       2
   23544   23553   23562   23577       2   23538   23514   23532   23544       2
   23538   23514   23532   23547       1   23538   23514   23532   23550       1
   23535   23514   23532   23544       2   23535   23514   23532   23547       1
   23535   23514   23532   23550       1   23532   23544   23553   23565       2
   23532   23544   23553   23568       2   23529   23508   23523   23541       4
   23526   23502   23523   23541       4   23520   23499   23514   23532       2
   23520   23499   23514   23535       1   23520   23499   23514   23538       1
   23517   23499   23514   23532       2   23517   23499   23514   23535       1
   23517   23499   23514   23538       1   23514   23532   23544   23556       2
   23514   23532   23544   23559       2   23511   23496   23508   23523       4
   23511   23496   23508   23529       4   23508   23523   23502   23526       4
   23505   23493   23502   23523       4   23505   23493   23502   23526       4
   23502   23523   23508   23529       4   23499   23514   23532   23547       2
   23499   23514   23532   23550       2   23496   23475   23493   23505       4
   23496   23508   23523   23541       4   23493   23475   23496   23511       4
   23493   23502   23523   23541       4   23487   23469   23481   23499       4
   23484   23463   23481   23499       4   23481   23499   23514   23535       5
   23481   23499   23514   23538       5   23478   23460   23472   23490       4
   23475   23454   23472   23490       4   23475   23493   23502   23526       4
   23475   23496   23508   23529       4   23469   23481   23463   23484       4
   23469   23481   23499   23517       8   23469   23481   23499   23520       8
   23466   23445   23463   23481       4   23466   23445   23463   23484       4
   23463   23481   23469   23487       4   23463   23481   23499   23517       8
   23463   23481   23499   23520       8   23457   23439   23454   23472       4
   23457   23439   23454   23475       4   23454   23472   23460   23478       4
   23454   23475   23493   23505       4   23454   23475   23496   23511       4
   23451   23448   23469   23487       4   23448   23433   23445   23466       4
   23442   23430   23439   23457       4   23442   23460   23472   23490       4
   23439   23454   23472   23490       4   23436   23442   23460   23478       4
   23433   23445   23463   23484       4   23433   23448   23469   23487       4
   23430   23442   23460   23478       4   23427   23433   23445   23466       4
   23424   23430   23439   23457       4   23796   23781   23793   23799       1
   23796   23781   23793   23802       1   23796   23781   23793   23805       1
   23790   23781   23793   23799       1   23790   23781   23793   23802       1
   23790   23781   23793   23805       1   23787   23778   23781   23790       1
   23787   23778   23781   23793       2   23787   23778   23781   23796       1
   23784   23778   23781   23790       1   23784   23778   23781   23793       2
   23784   23778   23781   23796       1   23778   23781   23793   23799       2
   23778   23781   23793   23802       2   23778   23781   23793   23805       2
   23775   23763   23778   23781       2   23775   23763   23778   23784       1
   23775   23763   23778   23787       1   23772   23763   23778   23781       2
   23772   23763   23778   23784       1   23772   23763   23778   23787       1
   23769   23754   23763   23772       1   23769   23754   23763   23775       1
   23769   23754   23763   23778       2   23766   23754   23763   23772       1
   23766   23754   23763   23775       1   23766   23754   23763   23778       2
   23763   23778   23781   23790       2   23763   23778   23781   23796       2
   23760   23745   23754   23763       2   23760   23745   23754   23766       1
   23760   23745   23754   23769       1   23757   23745   23754   23763       2
   23757   23745   23754   23766       1   23757   23745   23754   23769       1
   23754   23763   23778   23784       2   23754   23763   23778   23787       2
   23751   23736   23745   23754       2   23751   23736   23745   23757       1
   23751   23736   23745   23760       1   23748   23736   23745   23754       2
   23748   23736   23745   23757       1   23748   23736   23745   23760       1
   23745   23754   23763   23772       2   23745   23754   23763   23775       2
   23742   23724   23736   23745       2   23742   23724   23736   23748       1
   23742   23724   23736   23751       1   23739   23724   23736   23745       2
   23739   23724   23736   23748       1   23739   23724   23736   23751       1
   23736   23745   23754   23766       2   23736   23745   23754   23769       2
   23730   23706   23724   23736       2   23730   23706   23724   23739       1
   23730   23706   23724   23742       1   23727   23706   23724   23736       2
   23727   23706   23724   23739       1   23727   23706   23724   23742       1
   23724   23736   23745   23757       2   23724   23736   23745   23760       2
   23721   23700   23715   23733       4   23718   23694   23715   23733       4
   23712   23691   23706   23724       2   23712   23691   23706   23727       1
   23712   23691   23706   23730       1   23709   23691   23706   23724       2
   23709   23691   23706   23727       1   23709   23691   23706   23730       1
   23706   23724   23736   23748       2   23706   23724   23736   23751       2
   23703   23688   23700   23715       4   23703   23688   23700   23721       4
   23700   23715   23694   23718       4   23697   23685   23694   23715       4
   23697   23685   23694   23718       4   23694   23715   23700   23721       4
   23691   23706   23724   23739       2   23691   23706   23724   23742       2
   23688   23667   23685   23697       4   23688   23700   23715   23733       4
   23685   23667   23688   23703       4   23685   23694   23715   23733       4
   23679   23661   23673   23691       4   23676   23655   23673   23691       4
   23673   23691   23706   23727       5   23673   23691   23706   23730       5
   23670   23652   23664   23682       4   23667   23646   23664   23682       4
   23667   23685   23694   23718       4   23667   23688   23700   23721       4
   23661   23673   23655   23676       4   23661   23673   23691   23709       8
   23661   23673   23691   23712       8   23658   23637   23655   23673       4
   23658   23637   23655   23676       4   23655   23673   23661   23679       4
   23655   23673   23691   23709       8   23655   23673   23691   23712       8
   23649   23631   23646   23664       4   23649   23631   23646   23667       4
   23646   23664   23652   23670       4   23646   23667   23685   23697       4
   23646   23667   23688   23703       4   23643   23640   23661   23679       4
   23640   23625   23637   23658       4   23634   23622   23631   23649       4
   23634   23652   23664   23682       4   23631   23646   23664   23682       4
   23628   23634   23652   23670       4   23625   23637   23655   23676       4
   23625   23640   23661   23679       4   23622   23634   23652   23670       4
   23619   23625   23637   23658       4   23616   23622   23631   23649       4
   23988   23973   23985   23991       1   23988   23973   23985   23994       1
   23988   23973   23985   23997       1   23982   23973   23985   23991       1
   23982   23973   23985   23994       1   23982   23973   23985   23997       1
   23979   23970   23973   23982       1   23979   23970   23973   23985       2
   23979   23970   23973   23988       1   23976   23970   23973   23982       1
   23976   23970   23973   23985       2   23976   23970   23973   23988       1
   23970   23973   23985   23991       2   23970   23973   23985   23994       2
   23970   23973   23985   23997       2   23967   23955   23970   23973       2
   23967   23955   23970   23976       1   23967   23955   23970   23979       1
   23964   23955   23970   23973       2   23964   23955   23970   23976       1
   23964   23955   23970   23979       1   23961   23946   23955   23964       1
   23961   23946   23955   23967       1   23961   23946   23955   23970       2
   23958   23946   23955   23964       1   23958   23946   23955   23967       1
   23958   23946   23955   23970       2   23955   23970   23973   23982       2
   23955   23970   23973   23988       2   23952   23937   23946   23955       2
   23952   23937   23946   23958       1   23952   23937   23946   23961       1
   23949   23937   23946   23955       2   23949   23937   23946   23958       1
   23949   23937   23946   23961       1   23946   23955   23970   23976       2
   23946   23955   23970   23979       2   23943   23928   23937   23946       2
   23943   23928   23937   23949       1   23943   23928   23937   23952       1
   23940   23928   23937   23946       2   23940   23928   23937   23949       1
   23940   23928   23937   23952       1   23937   23946   23955   23964       2
   23937   23946   23955   23967       2   23934   23916   23928   23937       2
   23934   23916   23928   23940       1   23934   23916   23928   23943       1
   23931   23916   23928   23937       2   23931   23916   23928   23940       1
   23931   23916   23928   23943       1   23928   23937   23946   23958       2
   23928   23937   23946   23961       2   23922   23898   23916   23928       2
   23922   23898   23916   23931       1   23922   23898   23916   23934       1
   23919   23898   23916   23928       2   23919   23898   23916   23931       1
   23919   23898   23916   23934       1   23916   23928   23937   23949       2
   23916   23928   23937   23952       2   23913   23892   23907   23925       4
   23910   23886   23907   23925       4   23904   23883   23898   23916       2
   23904   23883   23898   23919       1   23904   23883   23898   23922       1
   23901   23883   23898   23916       2   23901   23883   23898   23919       1
   23901   23883   23898   23922       1   23898   23916   23928   23940       2
   23898   23916   23928   23943       2   23895   23880   23892   23907       4
   23895   23880   23892   23913       4   23892   23907   23886   23910       4
   23889   23877   23886   23907       4   23889   23877   23886   23910       4
   23886   23907   23892   23913       4   23883   23898   23916   23931       2
   23883   23898   23916   23934       2   23880   23859   23877   23889       4
   23880   23892   23907   23925       4   23877   23859   23880   23895       4
   23877   23886   23907   23925       4   23871   23853   23865   23883       4
   23868   23847   23865   23883       4   23865   23883   23898   23919       5
   23865   23883   23898   23922       5   23862   23844   23856   23874       4
   23859   23838   23856   23874       4   23859   23877   23886   23910       4
   23859   23880   23892   23913       4   23853   23865   23847   23868       4
   23853   23865   23883   23901       8   23853   23865   23883   23904       8
   23850   23829   23847   23865       4   23850   23829   23847   23868       4
   23847   23865   23853   23871       4   23847   23865   23883   23901       8
   23847   23865   23883   23904       8   23841   23823   23838   23856       4
   23841   23823   23838   23859       4   23838   23856   23844   23862       4
   23838   23859   23877   23889       4   23838   23859   23880   23895       4
   23835   23832   23853   23871       4   23832   23817   23829   23850       4
   23826   23814   23823   23841       4   23826   23844   23856   23874       4
   23823   23838   23856   23874       4   23820   23826   23844   23862       4
   23817   23829   23847   23868       4   23817   23832   23853   23871       4
   23814   23826   23844   23862       4   23811   23817   23829   23850       4
   23808   23814   23823   23841       4   24180   24165   24177   24183       1
   24180   24165   24177   24186       1   24180   24165   24177   24189       1
   24174   24165   24177   24183       1   24174   24165   24177   24186       1
   24174   24165   24177   24189       1   24171   24162   24165   24174       1
   24171   24162   24165   24177       2   24171   24162   24165   24180       1
   24168   24162   24165   24174       1   24168   24162   24165   24177       2
   24168   24162   24165   24180       1   24162   24165   24177   24183       2
   24162   24165   24177   24186       2   24162   24165   24177   24189       2
   24159   24147   24162   24165       2   24159   24147   24162   24168       1
   24159   24147   24162   24171       1   24156   24147   24162   24165       2
   24156   24147   24162   24168       1   24156   24147   24162   24171       1
   24153   24138   24147   24156       1   24153   24138   24147   24159       1
   24153   24138   24147   24162       2   24150   24138   24147   24156       1
   24150   24138   24147   24159       1   24150   24138   24147   24162       2
   24147   24162   24165   24174       2   24147   24162   24165   24180       2
   24144   24129   24138   24147       2   24144   24129   24138   24150       1
   24144   24129   24138   24153       1   24141   24129   24138   24147       2
   24141   24129   24138   24150       1   24141   24129   24138   24153       1
   24138   24147   24162   24168       2   24138   24147   24162   24171       2
   24135   24120   24129   24138       2   24135   24120   24129   24141       1
   24135   24120   24129   24144       1   24132   24120   24129   24138       2
   24132   24120   24129   24141       1   24132   24120   24129   24144       1
   24129   24138   24147   24156       2   24129   24138   24147   24159       2
   24126   24108   24120   24129       2   24126   24108   24120   24132       1
   24126   24108   24120   24135       1   24123   24108   24120   24129       2
   24123   24108   24120   24132       1   24123   24108   24120   24135       1
   24120   24129   24138   24150       2   24120   24129   24138   24153       2
   24114   24090   24108   24120       2   24114   24090   24108   24123       1
   24114   24090   24108   24126       1   24111   24090   24108   24120       2
   24111   24090   24108   24123       1   24111   24090   24108   24126       1
   24108   24120   24129   24141       2   24108   24120   24129   24144       2
   24105   24084   24099   24117       4   24102   24078   24099   24117       4
   24096   24075   24090   24108       2   24096   24075   24090   24111       1
   24096   24075   24090   24114       1   24093   24075   24090   24108       2
   24093   24075   24090   24111       1   24093   24075   24090   24114       1
   24090   24108   24120   24132       2   24090   24108   24120   24135       2
   24087   24072   24084   24099       4   24087   24072   24084   24105       4
   24084   24099   24078   24102       4   24081   24069   24078   24099       4
   24081   24069   24078   24102       4   24078   24099   24084   24105       4
   24075   24090   24108   24123       2   24075   24090   24108   24126       2
   24072   24051   24069   24081       4   24072   24084   24099   24117       4
   24069   24051   24072   24087       4   24069   24078   24099   24117       4
   24063   24045   24057   24075       4   24060   24039   24057   24075       4
   24057   24075   24090   24111       5   24057   24075   24090   24114       5
   24054   24036   24048   24066       4   24051   24030   24048   24066       4
   24051   24069   24078   24102       4   24051   24072   24084   24105       4
   24045   24057   24039   24060       4   24045   24057   24075   24093       8
   24045   24057   24075   24096       8   24042   24021   24039   24057       4
   24042   24021   24039   24060       4   24039   24057   24045   24063       4
   24039   24057   24075   24093       8   24039   24057   24075   24096       8
   24033   24015   24030   24048       4   24033   24015   24030   24051       4
   24030   24048   24036   24054       4   24030   24051   24069   24081       4
   24030   24051   24072   24087       4   24027   24024   24045   24063       4
   24024   24009   24021   24042       4   24018   24006   24015   24033       4
   24018   24036   24048   24066       4   24015   24030   24048   24066       4
   24012   24018   24036   24054       4   24009   24021   24039   24060       4
   24009   24024   24045   24063       4   24006   24018   24036   24054       4
   24003   24009   24021   24042       4   24000   24006   24015   24033       4
   24372   24357   24369   24375       1   24372   24357   24369   24378       1
   24372   24357   24369   24381       1   24366   24357   24369   24375       1
   24366   24357   24369   24378       1   24366   24357   24369   24381       1
   24363   24354   24357   24366       1   24363   24354   24357   24369       2
   24363   24354   24357   24372       1   24360   24354   24357   24366       1
   24360   24354   24357   24369       2   24360   24354   24357   24372       1
   24354   24357   24369   24375       2   24354   24357   24369   24378       2
   24354   24357   24369   24381       2   24351   24339   24354   24357       2
   24351   24339   24354   24360       1   24351   24339   24354   24363       1
   24348   24339   24354   24357       2   24348   24339   24354   24360       1
   24348   24339   24354   24363       1   24345   24330   24339   24348       1
   24345   24330   24339   24351       1   24345   24330   24339   24354       2
   24342   24330   24339   24348       1   24342   24330   24339   24351       1
   24342   24330   24339   24354       2   24339   24354   24357   24366       2
   24339   24354   24357   24372       2   24336   24321   24330   24339       2
   24336   24321   24330   24342       1   24336   24321   24330   24345       1
   24333   24321   24330   24339       2   24333   24321   24330   24342       1
   24333   24321   24330   24345       1   24330   24339   24354   24360       2
   24330   24339   24354   24363       2   24327   24312   24321   24330       2
   24327   24312   24321   24333       1   24327   24312   24321   24336       1
   24324   24312   24321   24330       2   24324   24312   24321   24333       1
   24324   24312   24321   24336       1   24321   24330   24339   24348       2
   24321   24330   24339   24351       2   24318   24300   24312   24321       2
   24318   24300   24312   24324       1   24318   24300   24312   24327       1
   24315   24300   24312   24321       2   24315   24300   24312   24324       1
   24315   24300   24312   24327       1   24312   24321   24330   24342       2
   24312   24321   24330   24345       2   24306   24282   24300   24312       2
   24306   24282   24300   24315       1   24306   24282   24300   24318       1
   24303   24282   24300   24312       2   24303   24282   24300   24315       1
   24303   24282   24300   24318       1   24300   24312   24321   24333       2
   24300   24312   24321   24336       2   24297   24276   24291   24309       4
   24294   24270   24291   24309       4   24288   24267   24282   24300       2
   24288   24267   24282   24303       1   24288   24267   24282   24306       1
   24285   24267   24282   24300       2   24285   24267   24282   24303       1
   24285   24267   24282   24306       1   24282   24300   24312   24324       2
   24282   24300   24312   24327       2   24279   24264   24276   24291       4
   24279   24264   24276   24297       4   24276   24291   24270   24294       4
   24273   24261   24270   24291       4   24273   24261   24270   24294       4
   24270   24291   24276   24297       4   24267   24282   24300   24315       2
   24267   24282   24300   24318       2   24264   24243   24261   24273       4
   24264   24276   24291   24309       4   24261   24243   24264   24279       4
   24261   24270   24291   24309       4   24255   24237   24249   24267       4
   24252   24231   24249   24267       4   24249   24267   24282   24303       5
   24249   24267   24282   24306       5   24246   24228   24240   24258       4
   24243   24222   24240   24258       4   24243   24261   24270   24294       4
   24243   24264   24276   24297       4   24237   24249   24231   24252       4
   24237   24249   24267   24285       8   24237   24249   24267   24288       8
   24234   24213   24231   24249       4   24234   24213   24231   24252       4
   24231   24249   24237   24255       4   24231   24249   24267   24285       8
   24231   24249   24267   24288       8   24225   24207   24222   24240       4
   24225   24207   24222   24243       4   24222   24240   24228   24246       4
   24222   24243   24261   24273       4   24222   24243   24264   24279       4
   24219   24216   24237   24255       4   24216   24201   24213   24234       4
   24210   24198   24207   24225       4   24210   24228   24240   24258       4
   24207   24222   24240   24258       4   24204   24210   24228   24246       4
   24201   24213   24231   24252       4   24201   24216   24237   24255       4
   24198   24210   24228   24246       4   24195   24201   24213   24234       4
   24192   24198   24207   24225       4   24564   24549   24561   24567       1
   24564   24549   24561   24570       1   24564   24549   24561   24573       1
   24558   24549   24561   24567       1   24558   24549   24561   24570       1
   24558   24549   24561   24573       1   24555   24546   24549   24558       1
   24555   24546   24549   24561       2   24555   24546   24549   24564       1
   24552   24546   24549   24558       1   24552   24546   24549   24561       2
   24552   24546   24549   24564       1   24546   24549   24561   24567       2
   24546   24549   24561   24570       2   24546   24549   24561   24573       2
   24543   24531   24546   24549       2   24543   24531   24546   24552       1
   24543   24531   24546   24555       1   24540   24531   24546   24549       2
   24540   24531   24546   24552       1   24540   24531   24546   24555       1
   24537   24522   24531   24540       1   24537   24522   24531   24543       1
   24537   24522   24531   24546       2   24534   24522   24531   24540       1
   24534   24522   24531   24543       1   24534   24522   24531   24546       2
   24531   24546   24549   24558       2   24531   24546   24549   24564       2
   24528   24513   24522   24531       2   24528   24513   24522   24534       1
   24528   24513   24522   24537       1   24525   24513   24522   24531       2
   24525   24513   24522   24534       1   24525   24513   24522   24537       1
   24522   24531   24546   24552       2   24522   24531   24546   24555       2
   24519   24504   24513   24522       2   24519   24504   24513   24525       1
   24519   24504   24513   24528       1   24516   24504   24513   24522       2
   24516   24504   24513   24525       1   24516   24504   24513   24528       1
   24513   24522   24531   24540       2   24513   24522   24531   24543       2
   24510   24492   24504   24513       2   24510   24492   24504   24516       1
   24510   24492   24504   24519       1   24507   24492   24504   24513       2
   24507   24492   24504   24516       1   24507   24492   24504   24519       1
   24504   24513   24522   24534       2   24504   24513   24522   24537       2
   24498   24474   24492   24504       2   24498   24474   24492   24507       1
   24498   24474   24492   24510       1   24495   24474   24492   24504       2
   24495   24474   24492   24507       1   24495   24474   24492   24510       1
   24492   24504   24513   24525       2   24492   24504   24513   24528       2
   24489   24468   24483   24501       4   24486   24462   24483   24501       4
   24480   24459   24474   24492       2   24480   24459   24474   24495       1
   24480   24459   24474   24498       1   24477   24459   24474   24492       2
   24477   24459   24474   24495       1   24477   24459   24474   24498       1
   24474   24492   24504   24516       2   24474   24492   24504   24519       2
   24471   24456   24468   24483       4   24471   24456   24468   24489       4
   24468   24483   24462   24486       4   24465   24453   24462   24483       4
   24465   24453   24462   24486       4   24462   24483   24468   24489       4
   24459   24474   24492   24507       2   24459   24474   24492   24510       2
   24456   24435   24453   24465       4   24456   24468   24483   24501       4
   24453   24435   24456   24471       4   24453   24462   24483   24501       4
   24447   24429   24441   24459       4   24444   24423   24441   24459       4
   24441   24459   24474   24495       5   24441   24459   24474   24498       5
   24438   24420   24432   24450       4   24435   24414   24432   24450       4
   24435   24453   24462   24486       4   24435   24456   24468   24489       4
   24429   24441   24423   24444       4   24429   24441   24459   24477       8
   24429   24441   24459   24480       8   24426   24405   24423   24441       4
   24426   24405   24423   24444       4   24423   24441   24429   24447       4
   24423   24441   24459   24477       8   24423   24441   24459   24480       8
   24417   24399   24414   24432       4   24417   24399   24414   24435       4
   24414   24432   24420   24438       4   24414   24435   24453   24465       4
   24414   24435   24456   24471       4   24411   24408   24429   24447       4
   24408   24393   24405   24426       4   24402   24390   24399   24417       4
   24402   24420   24432   24450       4   24399   24414   24432   24450       4
   24396   24402   24420   24438       4   24393   24405   24423   24444       4
   24393   24408   24429   24447       4   24390   24402   24420   24438       4
   24387   24393   24405   24426       4   24384   24390   24399   24417       4
   24756   24741   24753   24759       1   24756   24741   24753   24762       1
   24756   24741   24753   24765       1   24750   24741   24753   24759       1
   24750   24741   24753   24762       1   24750   24741   24753   24765       1
   24747   24738   24741   24750       1   24747   24738   24741   24753       2
   24747   24738   24741   24756       1   24744   24738   24741   24750       1
   24744   24738   24741   24753       2   24744   24738   24741   24756       1
   24738   24741   24753   24759       2   24738   24741   24753   24762       2
   24738   24741   24753   24765       2   24735   24723   24738   24741       2
   24735   24723   24738   24744       1   24735   24723   24738   24747       1
   24732   24723   24738   24741       2   24732   24723   24738   24744       1
   24732   24723   24738   24747       1   24729   24714   24723   24732       1
   24729   24714   24723   24735       1   24729   24714   24723   24738       2
   24726   24714   24723   24732       1   24726   24714   24723   24735       1
   24726   24714   24723   24738       2   24723   24738   24741   24750       2
   24723   24738   24741   24756       2   24720   24705   24714   24723       2
   24720   24705   24714   24726       1   24720   24705   24714   24729       1
   24717   24705   24714   24723       2   24717   24705   24714   24726       1
   24717   24705   24714   24729       1   24714   24723   24738   24744       2
   24714   24723   24738   24747       2   24711   24696   24705   24714       2
   24711   24696   24705   24717       1   24711   24696   24705   24720       1
   24708   24696   24705   24714       2   24708   24696   24705   24717       1
   24708   24696   24705   24720       1   24705   24714   24723   24732       2
   24705   24714   24723   24735       2   24702   24684   24696   24705       2
   24702   24684   24696   24708       1   24702   24684   24696   24711       1
   24699   24684   24696   24705       2   24699   24684   24696   24708       1
   24699   24684   24696   24711       1   24696   24705   24714   24726       2
   24696   24705   24714   24729       2   24690   24666   24684   24696       2
   24690   24666   24684   24699       1   24690   24666   24684   24702       1
   24687   24666   24684   24696       2   24687   24666   24684   24699       1
   24687   24666   24684   24702       1   24684   24696   24705   24717       2
   24684   24696   24705   24720       2   24681   24660   24675   24693       4
   24678   24654   24675   24693       4   24672   24651   24666   24684       2
   24672   24651   24666   24687       1   24672   24651   24666   24690       1
   24669   24651   24666   24684       2   24669   24651   24666   24687       1
   24669   24651   24666   24690       1   24666   24684   24696   24708       2
   24666   24684   24696   24711       2   24663   24648   24660   24675       4
   24663   24648   24660   24681       4   24660   24675   24654   24678       4
   24657   24645   24654   24675       4   24657   24645   24654   24678       4
   24654   24675   24660   24681       4   24651   24666   24684   24699       2
   24651   24666   24684   24702       2   24648   24627   24645   24657       4
   24648   24660   24675   24693       4   24645   24627   24648   24663       4
   24645   24654   24675   24693       4   24639   24621   24633   24651       4
   24636   24615   24633   24651       4   24633   24651   24666   24687       5
   24633   24651   24666   24690       5   24630   24612   24624   24642       4
   24627   24606   24624   24642       4   24627   24645   24654   24678       4
   24627   24648   24660   24681       4   24621   24633   24615   24636       4
   24621   24633   24651   24669       8   24621   24633   24651   24672       8
   24618   24597   24615   24633       4   24618   24597   24615   24636       4
   24615   24633   24621   24639       4   24615   24633   24651   24669       8
   24615   24633   24651   24672       8   24609   24591   24606   24624       4
   24609   24591   24606   24627       4   24606   24624   24612   24630       4
   24606   24627   24645   24657       4   24606   24627   24648   24663       4
   24603   24600   24621   24639       4   24600   24585   24597   24618       4
   24594   24582   24591   24609       4   24594   24612   24624   24642       4
   24591   24606   24624   24642       4   24588   24594   24612   24630       4
   24585   24597   24615   24636       4   24585   24600   24621   24639       4
   24582   24594   24612   24630       4   24579   24585   24597   24618       4
   24576   24582   24591   24609       4   24948   24933   24945   24951       1
   24948   24933   24945   24954       1   24948   24933   24945   24957       1
   24942   24933   24945   24951       1   24942   24933   24945   24954       1
   24942   24933   24945   24957       1   24939   24930   24933   24942       1
   24939   24930   24933   24945       2   24939   24930   24933   24948       1
   24936   24930   24933   24942       1   24936   24930   24933   24945       2
   24936   24930   24933   24948       1   24930   24933   24945   24951       2
   24930   24933   24945   24954       2   24930   24933   24945   24957       2
   24927   24915   24930   24933       2   24927   24915   24930   24936       1
   24927   24915   24930   24939       1   24924   24915   24930   24933       2
   24924   24915   24930   24936       1   24924   24915   24930   24939       1
   24921   24906   24915   24924       1   24921   24906   24915   24927       1
   24921   24906   24915   24930       2   24918   24906   24915   24924       1
   24918   24906   24915   24927       1   24918   24906   24915   24930       2
   24915   24930   24933   24942       2   24915   24930   24933   24948       2
   24912   24897   24906   24915       2   24912   24897   24906   24918       1
   24912   24897   24906   24921       1   24909   24897   24906   24915       2
   24909   24897   24906   24918       1   24909   24897   24906   24921       1
   24906   24915   24930   24936       2   24906   24915   24930   24939       2
   24903   24888   24897   24906       2   24903   24888   24897   24909       1
   24903   24888   24897   24912       1   24900   24888   24897   24906       2
   24900   24888   24897   24909       1   24900   24888   24897   24912       1
   24897   24906   24915   24924       2   24897   24906   24915   24927       2
   24894   24876   24888   24897       2   24894   24876   24888   24900       1
   24894   24876   24888   24903       1   24891   24876   24888   24897       2
   24891   24876   24888   24900       1   24891   24876   24888   24903       1
   24888   24897   24906   24918       2   24888   24897   24906   24921       2
   24882   24858   24876   24888       2   24882   24858   24876   24891       1
   24882   24858   24876   24894       1   24879   24858   24876   24888       2
   24879   24858   24876   24891       1   24879   24858   24876   24894       1
   24876   24888   24897   24909       2   24876   24888   24897   24912       2
   24873   24852   24867   24885       4   24870   24846   24867   24885       4
   24864   24843   24858   24876       2   24864   24843   24858   24879       1
   24864   24843   24858   24882       1   24861   24843   24858   24876       2
   24861   24843   24858   24879       1   24861   24843   24858   24882       1
   24858   24876   24888   24900       2   24858   24876   24888   24903       2
   24855   24840   24852   24867       4   24855   24840   24852   24873       4
   24852   24867   24846   24870       4   24849   24837   24846   24867       4
   24849   24837   24846   24870       4   24846   24867   24852   24873       4
   24843   24858   24876   24891       2   24843   24858   24876   24894       2
   24840   24819   24837   24849       4   24840   24852   24867   24885       4
   24837   24819   24840   24855       4   24837   24846   24867   24885       4
   24831   24813   24825   24843       4   24828   24807   24825   24843       4
   24825   24843   24858   24879       5   24825   24843   24858   24882       5
   24822   24804   24816   24834       4   24819   24798   24816   24834       4
   24819   24837   24846   24870       4   24819   24840   24852   24873       4
   24813   24825   24807   24828       4   24813   24825   24843   24861       8
   24813   24825   24843   24864       8   24810   24789   24807   24825       4
   24810   24789   24807   24828       4   24807   24825   24813   24831       4
   24807   24825   24843   24861       8   24807   24825   24843   24864       8
   24801   24783   24798   24816       4   24801   24783   24798   24819       4
   24798   24816   24804   24822       4   24798   24819   24837   24849       4
   24798   24819   24840   24855       4   24795   24792   24813   24831       4
   24792   24777   24789   24810       4   24786   24774   24783   24801       4
   24786   24804   24816   24834       4   24783   24798   24816   24834       4
   24780   24786   24804   24822       4   24777   24789   24807   24828       4
   24777   24792   24813   24831       4   24774   24786   24804   24822       4
   24771   24777   24789   24810       4   24768   24774   24783   24801       4
   25140   25125   25137   25143       1   25140   25125   25137   25146       1
   25140   25125   25137   25149       1   25134   25125   25137   25143       1
   25134   25125   25137   25146       1   25134   25125   25137   25149       1
   25131   25122   25125   25134       1   25131   25122   25125   25137       2
   25131   25122   25125   25140       1   25128   25122   25125   25134       1
   25128   25122   25125   25137       2   25128   25122   25125   25140       1
   25122   25125   25137   25143       2   25122   25125   25137   25146       2
   25122   25125   25137   25149       2   25119   25107   25122   25125       2
   25119   25107   25122   25128       1   25119   25107   25122   25131       1
   25116   25107   25122   25125       2   25116   25107   25122   25128       1
   25116   25107   25122   25131       1   25113   25098   25107   25116       1
   25113   25098   25107   25119       1   25113   25098   25107   25122       2
   25110   25098   25107   25116       1   25110   25098   25107   25119       1
   25110   25098   25107   25122       2   25107   25122   25125   25134       2
   25107   25122   25125   25140       2   25104   25089   25098   25107       2
   25104   25089   25098   25110       1   25104   25089   25098   25113       1
   25101   25089   25098   25107       2   25101   25089   25098   25110       1
   25101   25089   25098   25113       1   25098   25107   25122   25128       2
   25098   25107   25122   25131       2   25095   25080   25089   25098       2
   25095   25080   25089   25101       1   25095   25080   25089   25104       1
   25092   25080   25089   25098       2   25092   25080   25089   25101       1
   25092   25080   25089   25104       1   25089   25098   25107   25116       2
   25089   25098   25107   25119       2   25086   25068   25080   25089       2
   25086   25068   25080   25092       1   25086   25068   25080   25095       1
   25083   25068   25080   25089       2   25083   25068   25080   25092       1
   25083   25068   25080   25095       1   25080   25089   25098   25110       2
   25080   25089   25098   25113       2   25074   25050   25068   25080       2
   25074   25050   25068   25083       1   25074   25050   25068   25086       1
   25071   25050   25068   25080       2   25071   25050   25068   25083       1
   25071   25050   25068   25086       1   25068   25080   25089   25101       2
   25068   25080   25089   25104       2   25065   25044   25059   25077       4
   25062   25038   25059   25077       4   25056   25035   25050   25068       2
   25056   25035   25050   25071       1   25056   25035   25050   25074       1
   25053   25035   25050   25068       2   25053   25035   25050   25071       1
   25053   25035   25050   25074       1   25050   25068   25080   25092       2
   25050   25068   25080   25095       2   25047   25032   25044   25059       4
   25047   25032   25044   25065       4   25044   25059   25038   25062       4
   25041   25029   25038   25059       4   25041   25029   25038   25062       4
   25038   25059   25044   25065       4   25035   25050   25068   25083       2
   25035   25050   25068   25086       2   25032   25011   25029   25041       4
   25032   25044   25059   25077       4   25029   25011   25032   25047       4
   25029   25038   25059   25077       4   25023   25005   25017   25035       4
   25020   24999   25017   25035       4   25017   25035   25050   25071       5
   25017   25035   25050   25074       5   25014   24996   25008   25026       4
   25011   24990   25008   25026       4   25011   25029   25038   25062       4
   25011   25032   25044   25065       4   25005   25017   24999   25020       4
   25005   25017   25035   25053       8   25005   25017   25035   25056       8
   25002   24981   24999   25017       4   25002   24981   24999   25020       4
   24999   25017   25005   25023       4   24999   25017   25035   25053       8
   24999   25017   25035   25056       8   24993   24975   24990   25008       4
   24993   24975   24990   25011       4   24990   25008   24996   25014       4
   24990   25011   25029   25041       4   24990   25011   25032   25047       4
   24987   24984   25005   25023       4   24984   24969   24981   25002       4
   24978   24966   24975   24993       4   24978   24996   25008   25026       4
   24975   24990   25008   25026       4   24972   24978   24996   25014       4
   24969   24981   24999   25020       4   24969   24984   25005   25023       4
   24966   24978   24996   25014       4   24963   24969   24981   25002       4
   24960   24966   24975   24993       4   25332   25317   25329   25335       1
   25332   25317   25329   25338       1   25332   25317   25329   25341       1
   25326   25317   25329   25335       1   25326   25317   25329   25338       1
   25326   25317   25329   25341       1   25323   25314   25317   25326       1
   25323   25314   25317   25329       2   25323   25314   25317   25332       1
   25320   25314   25317   25326       1   25320   25314   25317   25329       2
   25320   25314   25317   25332       1   25314   25317   25329   25335       2
   25314   25317   25329   25338       2   25314   25317   25329   25341       2
   25311   25299   25314   25317       2   25311   25299   25314   25320       1
   25311   25299   25314   25323       1   25308   25299   25314   25317       2
   25308   25299   25314   25320       1   25308   25299   25314   25323       1
   25305   25290   25299   25308       1   25305   25290   25299   25311       1
   25305   25290   25299   25314       2   25302   25290   25299   25308       1
   25302   25290   25299   25311       1   25302   25290   25299   25314       2
   25299   25314   25317   25326       2   25299   25314   25317   25332       2
   25296   25281   25290   25299       2   25296   25281   25290   25302       1
   25296   25281   25290   25305       1   25293   25281   25290   25299       2
   25293   25281   25290   25302       1   25293   25281   25290   25305       1
   25290   25299   25314   25320       2   25290   25299   25314   25323       2
   25287   25272   25281   25290       2   25287   25272   25281   25293       1
   25287   25272   25281   25296       1   25284   25272   25281   25290       2
   25284   25272   25281   25293       1   25284   25272   25281   25296       1
   25281   25290   25299   25308       2   25281   25290   25299   25311       2
   25278   25260   25272   25281       2   25278   25260   25272   25284       1
   25278   25260   25272   25287       1   25275   25260   25272   25281       2
   25275   25260   25272   25284       1   25275   25260   25272   25287       1
   25272   25281   25290   25302       2   25272   25281   25290   25305       2
   25266   25242   25260   25272       2   25266   25242   25260   25275       1
   25266   25242   25260   25278       1   25263   25242   25260   25272       2
   25263   25242   25260   25275       1   25263   25242   25260   25278       1
   25260   25272   25281   25293       2   25260   25272   25281   25296       2
   25257   25236   25251   25269       4   25254   25230   25251   25269       4
   25248   25227   25242   25260       2   25248   25227   25242   25263       1
   25248   25227   25242   25266       1   25245   25227   25242   25260       2
   25245   25227   25242   25263       1   25245   25227   25242   25266       1
   25242   25260   25272   25284       2   25242   25260   25272   25287       2
   25239   25224   25236   25251       4   25239   25224   25236   25257       4
   25236   25251   25230   25254       4   25233   25221   25230   25251       4
   25233   25221   25230   25254       4   25230   25251   25236   25257       4
   25227   25242   25260   25275       2   25227   25242   25260   25278       2
   25224   25203   25221   25233       4   25224   25236   25251   25269       4
   25221   25203   25224   25239       4   25221   25230   25251   25269       4
   25215   25197   25209   25227       4   25212   25191   25209   25227       4
   25209   25227   25242   25263       5   25209   25227   25242   25266       5
   25206   25188   25200   25218       4   25203   25182   25200   25218       4
   25203   25221   25230   25254       4   25203   25224   25236   25257       4
   25197   25209   25191   25212       4   25197   25209   25227   25245       8
   25197   25209   25227   25248       8   25194   25173   25191   25209       4
   25194   25173   25191   25212       4   25191   25209   25197   25215       4
   25191   25209   25227   25245       8   25191   25209   25227   25248       8
   25185   25167   25182   25200       4   25185   25167   25182   25203       4
   25182   25200   25188   25206       4   25182   25203   25221   25233       4
   25182   25203   25224   25239       4   25179   25176   25197   25215       4
   25176   25161   25173   25194       4   25170   25158   25167   25185       4
   25170   25188   25200   25218       4   25167   25182   25200   25218       4
   25164   25170   25188   25206       4   25161   25173   25191   25212       4
   25161   25176   25197   25215       4   25158   25170   25188   25206       4
   25155   25161   25173   25194       4   25152   25158   25167   25185       4
   25524   25509   25521   25527       1   25524   25509   25521   25530       1
   25524   25509   25521   25533       1   25518   25509   25521   25527       1
   25518   25509   25521   25530       1   25518   25509   25521   25533       1
   25515   25506   25509   25518       1   25515   25506   25509   25521       2
   25515   25506   25509   25524       1   25512   25506   25509   25518       1
   25512   25506   25509   25521       2   25512   25506   25509   25524       1
   25506   25509   25521   25527       2   25506   25509   25521   25530       2
   25506   25509   25521   25533       2   25503   25491   25506   25509       2
   25503   25491   25506   25512       1   25503   25491   25506   25515       1
   25500   25491   25506   25509       2   25500   25491   25506   25512       1
   25500   25491   25506   25515       1   25497   25482   25491   25500       1
   25497   25482   25491   25503       1   25497   25482   25491   25506       2
   25494   25482   25491   25500       1   25494   25482   25491   25503       1
   25494   25482   25491   25506       2   25491   25506   25509   25518       2
   25491   25506   25509   25524       2   25488   25473   25482   25491       2
   25488   25473   25482   25494       1   25488   25473   25482   25497       1
   25485   25473   25482   25491       2   25485   25473   25482   25494       1
   25485   25473   25482   25497       1   25482   25491   25506   25512       2
   25482   25491   25506   25515       2   25479   25464   25473   25482       2
   25479   25464   25473   25485       1   25479   25464   25473   25488       1
   25476   25464   25473   25482       2   25476   25464   25473   25485       1
   25476   25464   25473   25488       1   25473   25482   25491   25500       2
   25473   25482   25491   25503       2   25470   25452   25464   25473       2
   25470   25452   25464   25476       1   25470   25452   25464   25479       1
   25467   25452   25464   25473       2   25467   25452   25464   25476       1
   25467   25452   25464   25479       1   25464   25473   25482   25494       2
   25464   25473   25482   25497       2   25458   25434   25452   25464       2
   25458   25434   25452   25467       1   25458   25434   25452   25470       1
   25455   25434   25452   25464       2   25455   25434   25452   25467       1
   25455   25434   25452   25470       1   25452   25464   25473   25485       2
   25452   25464   25473   25488       2   25449   25428   25443   25461       4
   25446   25422   25443   25461       4   25440   25419   25434   25452       2
   25440   25419   25434   25455       1   25440   25419   25434   25458       1
   25437   25419   25434   25452       2   25437   25419   25434   25455       1
   25437   25419   25434   25458       1   25434   25452   25464   25476       2
   25434   25452   25464   25479       2   25431   25416   25428   25443       4
   25431   25416   25428   25449       4   25428   25443   25422   25446       4
   25425   25413   25422   25443       4   25425   25413   25422   25446       4
   25422   25443   25428   25449       4   25419   25434   25452   25467       2
   25419   25434   25452   25470       2   25416   25395   25413   25425       4
   25416   25428   25443   25461       4   25413   25395   25416   25431       4
   25413   25422   25443   25461       4   25407   25389   25401   25419       4
   25404   25383   25401   25419       4   25401   25419   25434   25455       5
   25401   25419   25434   25458       5   25398   25380   25392   25410       4
   25395   25374   25392   25410       4   25395   25413   25422   25446       4
   25395   25416   25428   25449       4   25389   25401   25383   25404       4
   25389   25401   25419   25437       8   25389   25401   25419   25440       8
   25386   25365   25383   25401       4   25386   25365   25383   25404       4
   25383   25401   25389   25407       4   25383   25401   25419   25437       8
   25383   25401   25419   25440       8   25377   25359   25374   25392       4
   25377   25359   25374   25395       4   25374   25392   25380   25398       4
   25374   25395   25413   25425       4   25374   25395   25416   25431       4
   25371   25368   25389   25407       4   25368   25353   25365   25386       4
   25362   25350   25359   25377       4   25362   25380   25392   25410       4
   25359   25374   25392   25410       4   25356   25362   25380   25398       4
   25353   25365   25383   25404       4   25353   25368   25389   25407       4
   25350   25362   25380   25398       4   25347   25353   25365   25386       4
   25344   25350   25359   25377       4   25716   25701   25713   25719       1
   25716   25701   25713   25722       1   25716   25701   25713   25725       1
   25710   25701   25713   25719       1   25710   25701   25713   25722       1
   25710   25701   25713   25725       1   25707   25698   25701   25710       1
   25707   25698   25701   25713       2   25707   25698   25701   25716       1
   25704   25698   25701   25710       1   25704   25698   25701   25713       2
   25704   25698   25701   25716       1   25698   25701   25713   25719       2
   25698   25701   25713   25722       2   25698   25701   25713   25725       2
   25695   25683   25698   25701       2   25695   25683   25698   25704       1
   25695   25683   25698   25707       1   25692   25683   25698   25701       2
   25692   25683   25698   25704       1   25692   25683   25698   25707       1
   25689   25674   25683   25692       1   25689   25674   25683   25695       1
   25689   25674   25683   25698       2   25686   25674   25683   25692       1
   25686   25674   25683   25695       1   25686   25674   25683   25698       2
   25683   25698   25701   25710       2   25683   25698   25701   25716       2
   25680   25665   25674   25683       2   25680   25665   25674   25686       1
   25680   25665   25674   25689       1   25677   25665   25674   25683       2
   25677   25665   25674   25686       1   25677   25665   25674   25689       1
   25674   25683   25698   25704       2   25674   25683   25698   25707       2
   25671   25656   25665   25674       2   25671   25656   25665   25677       1
   25671   25656   25665   25680       1   25668   25656   25665   25674       2
   25668   25656   25665   25677       1   25668   25656   25665   25680       1
   25665   25674   25683   25692       2   25665   25674   25683   25695       2
   25662   25644   25656   25665       2   25662   25644   25656   25668       1
   25662   25644   25656   25671       1   25659   25644   25656   25665       2
   25659   25644   25656   25668       1   25659   25644   25656   25671       1
   25656   25665   25674   25686       2   25656   25665   25674   25689       2
   25650   25626   25644   25656       2   25650   25626   25644   25659       1
   25650   25626   25644   25662       1   25647   25626   25644   25656       2
   25647   25626   25644   25659       1   25647   25626   25644   25662       1
   25644   25656   25665   25677       2   25644   25656   25665   25680       2
   25641   25620   25635   25653       4   25638   25614   25635   25653       4
   25632   25611   25626   25644       2   25632   25611   25626   25647       1
   25632   25611   25626   25650       1   25629   25611   25626   25644       2
   25629   25611   25626   25647       1   25629   25611   25626   25650       1
   25626   25644   25656   25668       2   25626   25644   25656   25671       2
   25623   25608   25620   25635       4   25623   25608   25620   25641       4
   25620   25635   25614   25638       4   25617   25605   25614   25635       4
   25617   25605   25614   25638       4   25614   25635   25620   25641       4
   25611   25626   25644   25659       2   25611   25626   25644   25662       2
   25608   25587   25605   25617       4   25608   25620   25635   25653       4
   25605   25587   25608   25623       4   25605   25614   25635   25653       4
   25599   25581   25593   25611       4   25596   25575   25593   25611       4
   25593   25611   25626   25647       5   25593   25611   25626   25650       5
   25590   25572   25584   25602       4   25587   25566   25584   25602       4
   25587   25605   25614   25638       4   25587   25608   25620   25641       4
   25581   25593   25575   25596       4   25581   25593   25611   25629       8
   25581   25593   25611   25632       8   25578   25557   25575   25593       4
   25578   25557   25575   25596       4   25575   25593   25581   25599       4
   25575   25593   25611   25629       8   25575   25593   25611   25632       8
   25569   25551   25566   25584       4   25569   25551   25566   25587       4
   25566   25584   25572   25590       4   25566   25587   25605   25617       4
   25566   25587   25608   25623       4   25563   25560   25581   25599       4
   25560   25545   25557   25578       4   25554   25542   25551   25569       4
   25554   25572   25584   25602       4   25551   25566   25584   25602       4
   25548   25554   25572   25590       4   25545   25557   25575   25596       4
   25545   25560   25581   25599       4   25542   25554   25572   25590       4
   25539   25545   25557   25578       4   25536   25542   25551   25569       4
   25908   25893   25905   25911       1   25908   25893   25905   25914       1
   25908   25893   25905   25917       1   25902   25893   25905   25911       1
   25902   25893   25905   25914       1   25902   25893   25905   25917       1
   25899   25890   25893   25902       1   25899   25890   25893   25905       2
   25899   25890   25893   25908       1   25896   25890   25893   25902       1
   25896   25890   25893   25905       2   25896   25890   25893   25908       1
   25890   25893   25905   25911       2   25890   25893   25905   25914       2
   25890   25893   25905   25917       2   25887   25875   25890   25893       2
   25887   25875   25890   25896       1   25887   25875   25890   25899       1
   25884   25875   25890   25893       2   25884   25875   25890   25896       1
   25884   25875   25890   25899       1   25881   25866   25875   25884       1
   25881   25866   25875   25887       1   25881   25866   25875   25890       2
   25878   25866   25875   25884       1   25878   25866   25875   25887       1
   25878   25866   25875   25890       2   25875   25890   25893   25902       2
   25875   25890   25893   25908       2   25872   25857   25866   25875       2
   25872   25857   25866   25878       1   25872   25857   25866   25881       1
   25869   25857   25866   25875       2   25869   25857   25866   25878       1
   25869   25857   25866   25881       1   25866   25875   25890   25896       2
   25866   25875   25890   25899       2   25863   25848   25857   25866       2
   25863   25848   25857   25869       1   25863   25848   25857   25872       1
   25860   25848   25857   25866       2   25860   25848   25857   25869       1
   25860   25848   25857   25872       1   25857   25866   25875   25884       2
   25857   25866   25875   25887       2   25854   25836   25848   25857       2
   25854   25836   25848   25860       1   25854   25836   25848   25863       1
   25851   25836   25848   25857       2   25851   25836   25848   25860       1
   25851   25836   25848   25863       1   25848   25857   25866   25878       2
   25848   25857   25866   25881       2   25842   25818   25836   25848       2
   25842   25818   25836   25851       1   25842   25818   25836   25854       1
   25839   25818   25836   25848       2   25839   25818   25836   25851       1
   25839   25818   25836   25854       1   25836   25848   25857   25869       2
   25836   25848   25857   25872       2   25833   25812   25827   25845       4
   25830   25806   25827   25845       4   25824   25803   25818   25836       2
   25824   25803   25818   25839       1   25824   25803   25818   25842       1
   25821   25803   25818   25836       2   25821   25803   25818   25839       1
   25821   25803   25818   25842       1   25818   25836   25848   25860       2
   25818   25836   25848   25863       2   25815   25800   25812   25827       4
   25815   25800   25812   25833       4   25812   25827   25806   25830       4
   25809   25797   25806   25827       4   25809   25797   25806   25830       4
   25806   25827   25812   25833       4   25803   25818   25836   25851       2
   25803   25818   25836   25854       2   25800   25779   25797   25809       4
   25800   25812   25827   25845       4   25797   25779   25800   25815       4
   25797   25806   25827   25845       4   25791   25773   25785   25803       4
   25788   25767   25785   25803       4   25785   25803   25818   25839       5
   25785   25803   25818   25842       5   25782   25764   25776   25794       4
   25779   25758   25776   25794       4   25779   25797   25806   25830       4
   25779   25800   25812   25833       4   25773   25785   25767   25788       4
   25773   25785   25803   25821       8   25773   25785   25803   25824       8
   25770   25749   25767   25785       4   25770   25749   25767   25788       4
   25767   25785   25773   25791       4   25767   25785   25803   25821       8
   25767   25785   25803   25824       8   25761   25743   25758   25776       4
   25761   25743   25758   25779       4   25758   25776   25764   25782       4
   25758   25779   25797   25809       4   25758   25779   25800   25815       4
   25755   25752   25773   25791       4   25752   25737   25749   25770       4
   25746   25734   25743   25761       4   25746   25764   25776   25794       4
   25743   25758   25776   25794       4   25740   25746   25764   25782       4
   25737   25749   25767   25788       4   25737   25752   25773   25791       4
   25734   25746   25764   25782       4   25731   25737   25749   25770       4
   25728   25734   25743   25761       4   26100   26085   26097   26103       1
   26100   26085   26097   26106       1   26100   26085   26097   26109       1
   26094   26085   26097   26103       1   26094   26085   26097   26106       1
   26094   26085   26097   26109       1   26091   26082   26085   26094       1
   26091   26082   26085   26097       2   26091   26082   26085   26100       1
   26088   26082   26085   26094       1   26088   26082   26085   26097       2
   26088   26082   26085   26100       1   26082   26085   26097   26103       2
   26082   26085   26097   26106       2   26082   26085   26097   26109       2
   26079   26067   26082   26085       2   26079   26067   26082   26088       1
   26079   26067   26082   26091       1   26076   26067   26082   26085       2
   26076   26067   26082   26088       1   26076   26067   26082   26091       1
   26073   26058   26067   26076       1   26073   26058   26067   26079       1
   26073   26058   26067   26082       2   26070   26058   26067   26076       1
   26070   26058   26067   26079       1   26070   26058   26067   26082       2
   26067   26082   26085   26094       2   26067   26082   26085   26100       2
   26064   26049   26058   26067       2   26064   26049   26058   26070       1
   26064   26049   26058   26073       1   26061   26049   26058   26067       2
   26061   26049   26058   26070       1   26061   26049   26058   26073       1
   26058   26067   26082   26088       2   26058   26067   26082   26091       2
   26055   26040   26049   26058       2   26055   26040   26049   26061       1
   26055   26040   26049   26064       1   26052   26040   26049   26058       2
   26052   26040   26049   26061       1   26052   26040   26049   26064       1
   26049   26058   26067   26076       2   26049   26058   26067   26079       2
   26046   26028   26040   26049       2   26046   26028   26040   26052       1
   26046   26028   26040   26055       1   26043   26028   26040   26049       2
   26043   26028   26040   26052       1   26043   26028   26040   26055       1
   26040   26049   26058   26070       2   26040   26049   26058   26073       2
   26034   26010   26028   26040       2   26034   26010   26028   26043       1
   26034   26010   26028   26046       1   26031   26010   26028   26040       2
   26031   26010   26028   26043       1   26031   26010   26028   26046       1
   26028   26040   26049   26061       2   26028   26040   26049   26064       2
   26025   26004   26019   26037       4   26022   25998   26019   26037       4
   26016   25995   26010   26028       2   26016   25995   26010   26031       1
   26016   25995   26010   26034       1   26013   25995   26010   26028       2
   26013   25995   26010   26031       1   26013   25995   26010   26034       1
   26010   26028   26040   26052       2   26010   26028   26040   26055       2
   26007   25992   26004   26019       4   26007   25992   26004   26025       4
   26004   26019   25998   26022       4   26001   25989   25998   26019       4
   26001   25989   25998   26022       4   25998   26019   26004   26025       4
   25995   26010   26028   26043       2   25995   26010   26028   26046       2
   25992   25971   25989   26001       4   25992   26004   26019   26037       4
   25989   25971   25992   26007       4   25989   25998   26019   26037       4
   25983   25965   25977   25995       4   25980   25959   25977   25995       4
   25977   25995   26010   26031       5   25977   25995   26010   26034       5
   25974   25956   25968   25986       4   25971   25950   25968   25986       4
   25971   25989   25998   26022       4   25971   25992   26004   26025       4
   25965   25977   25959   25980       4   25965   25977   25995   26013       8
   25965   25977   25995   26016       8   25962   25941   25959   25977       4
   25962   25941   25959   25980       4   25959   25977   25965   25983       4
   25959   25977   25995   26013       8   25959   25977   25995   26016       8
   25953   25935   25950   25968       4   25953   25935   25950   25971       4
   25950   25968   25956   25974       4   25950   25971   25989   26001       4
   25950   25971   25992   26007       4   25947   25944   25965   25983       4
   25944   25929   25941   25962       4   25938   25926   25935   25953       4
   25938   25956   25968   25986       4   25935   25950   25968   25986       4
   25932   25938   25956   25974       4   25929   25941   25959   25980       4
   25929   25944   25965   25983       4   25926   25938   25956   25974       4
   25923   25929   25941   25962       4   25920   25926   25935   25953       4
   26292   26277   26289   26295       1   26292   26277   26289   26298       1
   26292   26277   26289   26301       1   26286   26277   26289   26295       1
   26286   26277   26289   26298       1   26286   26277   26289   26301       1
   26283   26274   26277   26286       1   26283   26274   26277   26289       2
   26283   26274   26277   26292       1   26280   26274   26277   26286       1
   26280   26274   26277   26289       2   26280   26274   26277   26292       1
   26274   26277   26289   26295       2   26274   26277   26289   26298       2
   26274   26277   26289   26301       2   26271   26259   26274   26277       2
   26271   26259   26274   26280       1   26271   26259   26274   26283       1
   26268   26259   26274   26277       2   26268   26259   26274   26280       1
   26268   26259   26274   26283       1   26265   26250   26259   26268       1
   26265   26250   26259   26271       1   26265   26250   26259   26274       2
   26262   26250   26259   26268       1   26262   26250   26259   26271       1
   26262   26250   26259   26274       2   26259   26274   26277   26286       2
   26259   26274   26277   26292       2   26256   26241   26250   26259       2
   26256   26241   26250   26262       1   26256   26241   26250   26265       1
   26253   26241   26250   26259       2   26253   26241   26250   26262       1
   26253   26241   26250   26265       1   26250   26259   26274   26280       2
   26250   26259   26274   26283       2   26247   26232   26241   26250       2
   26247   26232   26241   26253       1   26247   26232   26241   26256       1
   26244   26232   26241   26250       2   26244   26232   26241   26253       1
   26244   26232   26241   26256       1   26241   26250   26259   26268       2
   26241   26250   26259   26271       2   26238   26220   26232   26241       2
   26238   26220   26232   26244       1   26238   26220   26232   26247       1
   26235   26220   26232   26241       2   26235   26220   26232   26244       1
   26235   26220   26232   26247       1   26232   26241   26250   26262       2
   26232   26241   26250   26265       2   26226   26202   26220   26232       2
   26226   26202   26220   26235       1   26226   26202   26220   26238       1
   26223   26202   26220   26232       2   26223   26202   26220   26235       1
   26223   26202   26220   26238       1   26220   26232   26241   26253       2
   26220   26232   26241   26256       2   26217   26196   26211   26229       4
   26214   26190   26211   26229       4   26208   26187   26202   26220       2
   26208   26187   26202   26223       1   26208   26187   26202   26226       1
   26205   26187   26202   26220       2   26205   26187   26202   26223       1
   26205   26187   26202   26226       1   26202   26220   26232   26244       2
   26202   26220   26232   26247       2   26199   26184   26196   26211       4
   26199   26184   26196   26217       4   26196   26211   26190   26214       4
   26193   26181   26190   26211       4   26193   26181   26190   26214       4
   26190   26211   26196   26217       4   26187   26202   26220   26235       2
   26187   26202   26220   26238       2   26184   26163   26181   26193       4
   26184   26196   26211   26229       4   26181   26163   26184   26199       4
   26181   26190   26211   26229       4   26175   26157   26169   26187       4
   26172   26151   26169   26187       4   26169   26187   26202   26223       5
   26169   26187   26202   26226       5   26166   26148   26160   26178       4
   26163   26142   26160   26178       4   26163   26181   26190   26214       4
   26163   26184   26196   26217       4   26157   26169   26151   26172       4
   26157   26169   26187   26205       8   26157   26169   26187   26208       8
   26154   26133   26151   26169       4   26154   26133   26151   26172       4
   26151   26169   26157   26175       4   26151   26169   26187   26205       8
   26151   26169   26187   26208       8   26145   26127   26142   26160       4
   26145   26127   26142   26163       4   26142   26160   26148   26166       4
   26142   26163   26181   26193       4   26142   26163   26184   26199       4
   26139   26136   26157   26175       4   26136   26121   26133   26154       4
   26130   26118   26127   26145       4   26130   26148   26160   26178       4
   26127   26142   26160   26178       4   26124   26130   26148   26166       4
   26121   26133   26151   26172       4   26121   26136   26157   26175       4
   26118   26130   26148   26166       4   26115   26121   26133   26154       4
   26112   26118   26127   26145       4   26484   26469   26481   26487       1
   26484   26469   26481   26490       1   26484   26469   26481   26493       1
   26478   26469   26481   26487       1   26478   26469   26481   26490       1
   26478   26469   26481   26493       1   26475   26466   26469   26478       1
   26475   26466   26469   26481       2   26475   26466   26469   26484       1
   26472   26466   26469   26478       1   26472   26466   26469   26481       2
   26472   26466   26469   26484       1   26466   26469   26481   26487       2
   26466   26469   26481   26490       2   26466   26469   26481   26493       2
   26463   26451   26466   26469       2   26463   26451   26466   26472       1
   26463   26451   26466   26475       1   26460   26451   26466   26469       2
   26460   26451   26466   26472       1   26460   26451   26466   26475       1
   26457   26442   26451   26460       1   26457   26442   26451   26463       1
   26457   26442   26451   26466       2   26454   26442   26451   26460       1
   26454   26442   26451   26463       1   26454   26442   26451   26466       2
   26451   26466   26469   26478       2   26451   26466   26469   26484       2
   26448   26433   26442   26451       2   26448   26433   26442   26454       1
   26448   26433   26442   26457       1   26445   26433   26442   26451       2
   26445   26433   26442   26454       1   26445   26433   26442   26457       1
   26442   26451   26466   26472       2   26442   26451   26466   26475       2
   26439   26424   26433   26442       2   26439   26424   26433   26445       1
   26439   26424   26433   26448       1   26436   26424   26433   26442       2
   26436   26424   26433   26445       1   26436   26424   26433   26448       1
   26433   26442   26451   26460       2   26433   26442   26451   26463       2
   26430   26412   26424   26433       2   26430   26412   26424   26436       1
   26430   26412   26424   26439       1   26427   26412   26424   26433       2
   26427   26412   26424   26436       1   26427   26412   26424   26439       1
   26424   26433   26442   26454       2   26424   26433   26442   26457       2
   26418   26394   26412   26424       2   26418   26394   26412   26427       1
   26418   26394   26412   26430       1   26415   26394   26412   26424       2
   26415   26394   26412   26427       1   26415   26394   26412   26430       1
   26412   26424   26433   26445       2   26412   26424   26433   26448       2
   26409   26388   26403   26421       4   26406   26382   26403   26421       4
   26400   26379   26394   26412       2   26400   26379   26394   26415       1
   26400   26379   26394   26418       1   26397   26379   26394   26412       2
   26397   26379   26394   26415       1   26397   26379   26394   26418       1
   26394   26412   26424   26436       2   26394   26412   26424   26439       2
   26391   26376   26388   26403       4   26391   26376   26388   26409       4
   26388   26403   26382   26406       4   26385   26373   26382   26403       4
   26385   26373   26382   26406       4   26382   26403   26388   26409       4
   26379   26394   26412   26427       2   26379   26394   26412   26430       2
   26376   26355   26373   26385       4   26376   26388   26403   26421       4
   26373   26355   26376   26391       4   26373   26382   26403   26421       4
   26367   26349   26361   26379       4   26364   26343   26361   26379       4
   26361   26379   26394   26415       5   26361   26379   26394   26418       5
   26358   26340   26352   26370       4   26355   26334   26352   26370       4
   26355   26373   26382   26406       4   26355   26376   26388   26409       4
   26349   26361   26343   26364       4   26349   26361   26379   26397       8
   26349   26361   26379   26400       8   26346   26325   26343   26361       4
   26346   26325   26343   26364       4   26343   26361   26349   26367       4
   26343   26361   26379   26397       8   26343   26361   26379   26400       8
   26337   26319   26334   26352       4   26337   26319   26334   26355       4
   26334   26352   26340   26358       4   26334   26355   26373   26385       4
   26334   26355   26376   26391       4   26331   26328   26349   26367       4
   26328   26313   26325   26346       4   26322   26310   26319   26337       4
   26322   26340   26352   26370       4   26319   26334   26352   26370       4
   26316   26322   26340   26358       4   26313   26325   26343   26364       4
   26313   26328   26349   26367       4   26310   26322   26340   26358       4
   26307   26313   26325   26346       4   26304   26310   26319   26337       4
   26676   26661   26673   26679       1   26676   26661   26673   26682       1
   26676   26661   26673   26685       1   26670   26661   26673   26679       1
   26670   26661   26673   26682       1   26670   26661   26673   26685       1
   26667   26658   26661   26670       1   26667   26658   26661   26673       2
   26667   26658   26661   26676       1   26664   26658   26661   26670       1
   26664   26658   26661   26673       2   26664   26658   26661   26676       1
   26658   26661   26673   26679       2   26658   26661   26673   26682       2
   26658   26661   26673   26685       2   26655   26643   26658   26661       2
   26655   26643   26658   26664       1   26655   26643   26658   26667       1
   26652   26643   26658   26661       2   26652   26643   26658   26664       1
   26652   26643   26658   26667       1   26649   26634   26643   26652       1
   26649   26634   26643   26655       1   26649   26634   26643   26658       2
   26646   26634   26643   26652       1   26646   26634   26643   26655       1
   26646   26634   26643   26658       2   26643   26658   26661   26670       2
   26643   26658   26661   26676       2   26640   26625   26634   26643       2
   26640   26625   26634   26646       1   26640   26625   26634   26649       1
   26637   26625   26634   26643       2   26637   26625   26634   26646       1
   26637   26625   26634   26649       1   26634   26643   26658   26664       2
   26634   26643   26658   26667       2   26631   26616   26625   26634       2
   26631   26616   26625   26637       1   26631   26616   26625   26640       1
   26628   26616   26625   26634       2   26628   26616   26625   26637       1
   26628   26616   26625   26640       1   26625   26634   26643   26652       2
   26625   26634   26643   26655       2   26622   26604   26616   26625       2
   26622   26604   26616   26628       1   26622   26604   26616   26631       1
   26619   26604   26616   26625       2   26619   26604   26616   26628       1
   26619   26604   26616   26631       1   26616   26625   26634   26646       2
   26616   26625   26634   26649       2   26610   26586   26604   26616       2
   26610   26586   26604   26619       1   26610   26586   26604   26622       1
   26607   26586   26604   26616       2   26607   26586   26604   26619       1
   26607   26586   26604   26622       1   26604   26616   26625   26637       2
   26604   26616   26625   26640       2   26601   26580   26595   26613       4
   26598   26574   26595   26613       4   26592   26571   26586   26604       2
   26592   26571   26586   26607       1   26592   26571   26586   26610       1
   26589   26571   26586   26604       2   26589   26571   26586   26607       1
   26589   26571   26586   26610       1   26586   26604   26616   26628       2
   26586   26604   26616   26631       2   26583   26568   26580   26595       4
   26583   26568   26580   26601       4   26580   26595   26574   26598       4
   26577   26565   26574   26595       4   26577   26565   26574   26598       4
   26574   26595   26580   26601       4   26571   26586   26604   26619       2
   26571   26586   26604   26622       2   26568   26547   26565   26577       4
   26568   26580   26595   26613       4   26565   26547   26568   26583       4
   26565   26574   26595   26613       4   26559   26541   26553   26571       4
   26556   26535   26553   26571       4   26553   26571   26586   26607       5
   26553   26571   26586   26610       5   26550   26532   26544   26562       4
   26547   26526   26544   26562       4   26547   26565   26574   26598       4
   26547   26568   26580   26601       4   26541   26553   26535   26556       4
   26541   26553   26571   26589       8   26541   26553   26571   26592       8
   26538   26517   26535   26553       4   26538   26517   26535   26556       4
   26535   26553   26541   26559       4   26535   26553   26571   26589       8
   26535   26553   26571   26592       8   26529   26511   26526   26544       4
   26529   26511   26526   26547       4   26526   26544   26532   26550       4
   26526   26547   26565   26577       4   26526   26547   26568   26583       4
   26523   26520   26541   26559       4   26520   26505   26517   26538       4
   26514   26502   26511   26529       4   26514   26532   26544   26562       4
   26511   26526   26544   26562       4   26508   26514   26532   26550       4
   26505   26517   26535   26556       4   26505   26520   26541   26559       4
   26502   26514   26532   26550       4   26499   26505   26517   26538       4
   26496   26502   26511   26529       4   26868   26853   26865   26871       1
   26868   26853   26865   26874       1   26868   26853   26865   26877       1
   26862   26853   26865   26871       1   26862   26853   26865   26874       1
   26862   26853   26865   26877       1   26859   26850   26853   26862       1
   26859   26850   26853   26865       2   26859   26850   26853   26868       1
   26856   26850   26853   26862       1   26856   26850   26853   26865       2
   26856   26850   26853   26868       1   26850   26853   26865   26871       2
   26850   26853   26865   26874       2   26850   26853   26865   26877       2
   26847   26835   26850   26853       2   26847   26835   26850   26856       1
   26847   26835   26850   26859       1   26844   26835   26850   26853       2
   26844   26835   26850   26856       1   26844   26835   26850   26859       1
   26841   26826   26835   26844       1   26841   26826   26835   26847       1
   26841   26826   26835   26850       2   26838   26826   26835   26844       1
   26838   26826   26835   26847       1   26838   26826   26835   26850       2
   26835   26850   26853   26862       2   26835   26850   26853   26868       2
   26832   26817   26826   26835       2   26832   26817   26826   26838       1
   26832   26817   26826   26841       1   26829   26817   26826   26835       2
   26829   26817   26826   26838       1   26829   26817   26826   26841       1
   26826   26835   26850   26856       2   26826   26835   26850   26859       2
   26823   26808   26817   26826       2   26823   26808   26817   26829       1
   26823   26808   26817   26832       1   26820   26808   26817   26826       2
   26820   26808   26817   26829       1   26820   26808   26817   26832       1
   26817   26826   26835   26844       2   26817   26826   26835   26847       2
   26814   26796   26808   26817       2   26814   26796   26808   26820       1
   26814   26796   26808   26823       1   26811   26796   26808   26817       2
   26811   26796   26808   26820       1   26811   26796   26808   26823       1
   26808   26817   26826   26838       2   26808   26817   26826   26841       2
   26802   26778   26796   26808       2   26802   26778   26796   26811       1
   26802   26778   26796   26814       1   26799   26778   26796   26808       2
   26799   26778   26796   26811       1   26799   26778   26796   26814       1
   26796   26808   26817   26829       2   26796   26808   26817   26832       2
   26793   26772   26787   26805       4   26790   26766   26787   26805       4
   26784   26763   26778   26796       2   26784   26763   26778   26799       1
   26784   26763   26778   26802       1   26781   26763   26778   26796       2
   26781   26763   26778   26799       1   26781   26763   26778   26802       1
   26778   26796   26808   26820       2   26778   26796   26808   26823       2
   26775   26760   26772   26787       4   26775   26760   26772   26793       4
   26772   26787   26766   26790       4   26769   26757   26766   26787       4
   26769   26757   26766   26790       4   26766   26787   26772   26793       4
   26763   26778   26796   26811       2   26763   26778   26796   26814       2
   26760   26739   26757   26769       4   26760   26772   26787   26805       4
   26757   26739   26760   26775       4   26757   26766   26787   26805       4
   26751   26733   26745   26763       4   26748   26727   26745   26763       4
   26745   26763   26778   26799       5   26745   26763   26778   26802       5
   26742   26724   26736   26754       4   26739   26718   26736   26754       4
   26739   26757   26766   26790       4   26739   26760   26772   26793       4
   26733   26745   26727   26748       4   26733   26745   26763   26781       8
   26733   26745   26763   26784       8   26730   26709   26727   26745       4
   26730   26709   26727   26748       4   26727   26745   26733   26751       4
   26727   26745   26763   26781       8   26727   26745   26763   26784       8
   26721   26703   26718   26736       4   26721   26703   26718   26739       4
   26718   26736   26724   26742       4   26718   26739   26757   26769       4
   26718   26739   26760   26775       4   26715   26712   26733   26751       4
   26712   26697   26709   26730       4   26706   26694   26703   26721       4
   26706   26724   26736   26754       4   26703   26718   26736   26754       4
   26700   26706   26724   26742       4   26697   26709   26727   26748       4
   26697   26712   26733   26751       4   26694   26706   26724   26742       4
   26691   26697   26709   26730       4   26688   26694   26703   26721       4
   27060   27045   27057   27063       1   27060   27045   27057   27066       1
   27060   27045   27057   27069       1   27054   27045   27057   27063       1
   27054   27045   27057   27066       1   27054   27045   27057   27069       1
   27051   27042   27045   27054       1   27051   27042   27045   27057       2
   27051   27042   27045   27060       1   27048   27042   27045   27054       1
   27048   27042   27045   27057       2   27048   27042   27045   27060       1
   27042   27045   27057   27063       2   27042   27045   27057   27066       2
   27042   27045   27057   27069       2   27039   27027   27042   27045       2
   27039   27027   27042   27048       1   27039   27027   27042   27051       1
   27036   27027   27042   27045       2   27036   27027   27042   27048       1
   27036   27027   27042   27051       1   27033   27018   27027   27036       1
   27033   27018   27027   27039       1   27033   27018   27027   27042       2
   27030   27018   27027   27036       1   27030   27018   27027   27039       1
   27030   27018   27027   27042       2   27027   27042   27045   27054       2
   27027   27042   27045   27060       2   27024   27009   27018   27027       2
   27024   27009   27018   27030       1   27024   27009   27018   27033       1
   27021   27009   27018   27027       2   27021   27009   27018   27030       1
   27021   27009   27018   27033       1   27018   27027   27042   27048       2
   27018   27027   27042   27051       2   27015   27000   27009   27018       2
   27015   27000   27009   27021       1   27015   27000   27009   27024       1
   27012   27000   27009   27018       2   27012   27000   27009   27021       1
   27012   27000   27009   27024       1   27009   27018   27027   27036       2
   27009   27018   27027   27039       2   27006   26988   27000   27009       2
   27006   26988   27000   27012       1   27006   26988   27000   27015       1
   27003   26988   27000   27009       2   27003   26988   27000   27012       1
   27003   26988   27000   27015       1   27000   27009   27018   27030       2
   27000   27009   27018   27033       2   26994   26970   26988   27000       2
   26994   26970   26988   27003       1   26994   26970   26988   27006       1
   26991   26970   26988   27000       2   26991   26970   26988   27003       1
   26991   26970   26988   27006       1   26988   27000   27009   27021       2
   26988   27000   27009   27024       2   26985   26964   26979   26997       4
   26982   26958   26979   26997       4   26976   26955   26970   26988       2
   26976   26955   26970   26991       1   26976   26955   26970   26994       1
   26973   26955   26970   26988       2   26973   26955   26970   26991       1
   26973   26955   26970   26994       1   26970   26988   27000   27012       2
   26970   26988   27000   27015       2   26967   26952   26964   26979       4
   26967   26952   26964   26985       4   26964   26979   26958   26982       4
   26961   26949   26958   26979       4   26961   26949   26958   26982       4
   26958   26979   26964   26985       4   26955   26970   26988   27003       2
   26955   26970   26988   27006       2   26952   26931   26949   26961       4
   26952   26964   26979   26997       4   26949   26931   26952   26967       4
   26949   26958   26979   26997       4   26943   26925   26937   26955       4
   26940   26919   26937   26955       4   26937   26955   26970   26991       5
   26937   26955   26970   26994       5   26934   26916   26928   26946       4
   26931   26910   26928   26946       4   26931   26949   26958   26982       4
   26931   26952   26964   26985       4   26925   26937   26919   26940       4
   26925   26937   26955   26973       8   26925   26937   26955   26976       8
   26922   26901   26919   26937       4   26922   26901   26919   26940       4
   26919   26937   26925   26943       4   26919   26937   26955   26973       8
   26919   26937   26955   26976       8   26913   26895   26910   26928       4
   26913   26895   26910   26931       4   26910   26928   26916   26934       4
   26910   26931   26949   26961       4   26910   26931   26952   26967       4
   26907   26904   26925   26943       4   26904   26889   26901   26922       4
   26898   26886   26895   26913       4   26898   26916   26928   26946       4
   26895   26910   26928   26946       4   26892   26898   26916   26934       4
   26889   26901   26919   26940       4   26889   26904   26925   26943       4
   26886   26898   26916   26934       4   26883   26889   26901   26922       4
   26880   26886   26895   26913       4   27252   27237   27249   27255       1
   27252   27237   27249   27258       1   27252   27237   27249   27261       1
   27246   27237   27249   27255       1   27246   27237   27249   27258       1
   27246   27237   27249   27261       1   27243   27234   27237   27246       1
   27243   27234   27237   27249       2   27243   27234   27237   27252       1
   27240   27234   27237   27246       1   27240   27234   27237   27249       2
   27240   27234   27237   27252       1   27234   27237   27249   27255       2
   27234   27237   27249   27258       2   27234   27237   27249   27261       2
   27231   27219   27234   27237       2   27231   27219   27234   27240       1
   27231   27219   27234   27243       1   27228   27219   27234   27237       2
   27228   27219   27234   27240       1   27228   27219   27234   27243       1
   27225   27210   27219   27228       1   27225   27210   27219   27231       1
   27225   27210   27219   27234       2   27222   27210   27219   27228       1
   27222   27210   27219   27231       1   27222   27210   27219   27234       2
   27219   27234   27237   27246       2   27219   27234   27237   27252       2
   27216   27201   27210   27219       2   27216   27201   27210   27222       1
   27216   27201   27210   27225       1   27213   27201   27210   27219       2
   27213   27201   27210   27222       1   27213   27201   27210   27225       1
   27210   27219   27234   27240       2   27210   27219   27234   27243       2
   27207   27192   27201   27210       2   27207   27192   27201   27213       1
   27207   27192   27201   27216       1   27204   27192   27201   27210       2
   27204   27192   27201   27213       1   27204   27192   27201   27216       1
   27201   27210   27219   27228       2   27201   27210   27219   27231       2
   27198   27180   27192   27201       2   27198   27180   27192   27204       1
   27198   27180   27192   27207       1   27195   27180   27192   27201       2
   27195   27180   27192   27204       1   27195   27180   27192   27207       1
   27192   27201   27210   27222       2   27192   27201   27210   27225       2
   27186   27162   27180   27192       2   27186   27162   27180   27195       1
   27186   27162   27180   27198       1   27183   27162   27180   27192       2
   27183   27162   27180   27195       1   27183   27162   27180   27198       1
   27180   27192   27201   27213       2   27180   27192   27201   27216       2
   27177   27156   27171   27189       4   27174   27150   27171   27189       4
   27168   27147   27162   27180       2   27168   27147   27162   27183       1
   27168   27147   27162   27186       1   27165   27147   27162   27180       2
   27165   27147   27162   27183       1   27165   27147   27162   27186       1
   27162   27180   27192   27204       2   27162   27180   27192   27207       2
   27159   27144   27156   27171       4   27159   27144   27156   27177       4
   27156   27171   27150   27174       4   27153   27141   27150   27171       4
   27153   27141   27150   27174       4   27150   27171   27156   27177       4
   27147   27162   27180   27195       2   27147   27162   27180   27198       2
   27144   27123   27141   27153       4   27144   27156   27171   27189       4
   27141   27123   27144   27159       4   27141   27150   27171   27189       4
   27135   27117   27129   27147       4   27132   27111   27129   27147       4
   27129   27147   27162   27183       5   27129   27147   27162   27186       5
   27126   27108   27120   27138       4   27123   27102   27120   27138       4
   27123   27141   27150   27174       4   27123   27144   27156   27177       4
   27117   27129   27111   27132       4   27117   27129   27147   27165       8
   27117   27129   27147   27168       8   27114   27093   27111   27129       4
   27114   27093   27111   27132       4   27111   27129   27117   27135       4
   27111   27129   27147   27165       8   27111   27129   27147   27168       8
   27105   27087   27102   27120       4   27105   27087   27102   27123       4
   27102   27120   27108   27126       4   27102   27123   27141   27153       4
   27102   27123   27144   27159       4   27099   27096   27117   27135       4
   27096   27081   27093   27114       4   27090   27078   27087   27105       4
   27090   27108   27120   27138       4   27087   27102   27120   27138       4
   27084   27090   27108   27126       4   27081   27093   27111   27132       4
   27081   27096   27117   27135       4   27078   27090   27108   27126       4
   27075   27081   27093   27114       4   27072   27078   27087   27105       4
   27444   27429   27441   27447       1   27444   27429   27441   27450       1
   27444   27429   27441   27453       1   27438   27429   27441   27447       1
   27438   27429   27441   27450       1   27438   27429   27441   27453       1
   27435   27426   27429   27438       1   27435   27426   27429   27441       2
   27435   27426   27429   27444       1   27432   27426   27429   27438       1
   27432   27426   27429   27441       2   27432   27426   27429   27444       1
   27426   27429   27441   27447       2   27426   27429   27441   27450       2
   27426   27429   27441   27453       2   27423   27411   27426   27429       2
   27423   27411   27426   27432       1   27423   27411   27426   27435       1
   27420   27411   27426   27429       2   27420   27411   27426   27432       1
   27420   27411   27426   27435       1   27417   27402   27411   27420       1
   27417   27402   27411   27423       1   27417   27402   27411   27426       2
   27414   27402   27411   27420       1   27414   27402   27411   27423       1
   27414   27402   27411   27426       2   27411   27426   27429   27438       2
   27411   27426   27429   27444       2   27408   27393   27402   27411       2
   27408   27393   27402   27414       1   27408   27393   27402   27417       1
   27405   27393   27402   27411       2   27405   27393   27402   27414       1
   27405   27393   27402   27417       1   27402   27411   27426   27432       2
   27402   27411   27426   27435       2   27399   27384   27393   27402       2
   27399   27384   27393   27405       1   27399   27384   27393   27408       1
   27396   27384   27393   27402       2   27396   27384   27393   27405       1
   27396   27384   27393   27408       1   27393   27402   27411   27420       2
   27393   27402   27411   27423       2   27390   27372   27384   27393       2
   27390   27372   27384   27396       1   27390   27372   27384   27399       1
   27387   27372   27384   27393       2   27387   27372   27384   27396       1
   27387   27372   27384   27399       1   27384   27393   27402   27414       2
   27384   27393   27402   27417       2   27378   27354   27372   27384       2
   27378   27354   27372   27387       1   27378   27354   27372   27390       1
   27375   27354   27372   27384       2   27375   27354   27372   27387       1
   27375   27354   27372   27390       1   27372   27384   27393   27405       2
   27372   27384   27393   27408       2   27369   27348   27363   27381       4
   27366   27342   27363   27381       4   27360   27339   27354   27372       2
   27360   27339   27354   27375       1   27360   27339   27354   27378       1
   27357   27339   27354   27372       2   27357   27339   27354   27375       1
   27357   27339   27354   27378       1   27354   27372   27384   27396       2
   27354   27372   27384   27399       2   27351   27336   27348   27363       4
   27351   27336   27348   27369       4   27348   27363   27342   27366       4
   27345   27333   27342   27363       4   27345   27333   27342   27366       4
   27342   27363   27348   27369       4   27339   27354   27372   27387       2
   27339   27354   27372   27390       2   27336   27315   27333   27345       4
   27336   27348   27363   27381       4   27333   27315   27336   27351       4
   27333   27342   27363   27381       4   27327   27309   27321   27339       4
   27324   27303   27321   27339       4   27321   27339   27354   27375       5
   27321   27339   27354   27378       5   27318   27300   27312   27330       4
   27315   27294   27312   27330       4   27315   27333   27342   27366       4
   27315   27336   27348   27369       4   27309   27321   27303   27324       4
   27309   27321   27339   27357       8   27309   27321   27339   27360       8
   27306   27285   27303   27321       4   27306   27285   27303   27324       4
   27303   27321   27309   27327       4   27303   27321   27339   27357       8
   27303   27321   27339   27360       8   27297   27279   27294   27312       4
   27297   27279   27294   27315       4   27294   27312   27300   27318       4
   27294   27315   27333   27345       4   27294   27315   27336   27351       4
   27291   27288   27309   27327       4   27288   27273   27285   27306       4
   27282   27270   27279   27297       4   27282   27300   27312   27330       4
   27279   27294   27312   27330       4   27276   27282   27300   27318       4
   27273   27285   27303   27324       4   27273   27288   27309   27327       4
   27270   27282   27300   27318       4   27267   27273   27285   27306       4
   27264   27270   27279   27297       4   27636   27621   27633   27639       1
   27636   27621   27633   27642       1   27636   27621   27633   27645       1
   27630   27621   27633   27639       1   27630   27621   27633   27642       1
   27630   27621   27633   27645       1   27627   27618   27621   27630       1
   27627   27618   27621   27633       2   27627   27618   27621   27636       1
   27624   27618   27621   27630       1   27624   27618   27621   27633       2
   27624   27618   27621   27636       1   27618   27621   27633   27639       2
   27618   27621   27633   27642       2   27618   27621   27633   27645       2
   27615   27603   27618   27621       2   27615   27603   27618   27624       1
   27615   27603   27618   27627       1   27612   27603   27618   27621       2
   27612   27603   27618   27624       1   27612   27603   27618   27627       1
   27609   27594   27603   27612       1   27609   27594   27603   27615       1
   27609   27594   27603   27618       2   27606   27594   27603   27612       1
   27606   27594   27603   27615       1   27606   27594   27603   27618       2
   27603   27618   27621   27630       2   27603   27618   27621   27636       2
   27600   27585   27594   27603       2   27600   27585   27594   27606       1
   27600   27585   27594   27609       1   27597   27585   27594   27603       2
   27597   27585   27594   27606       1   27597   27585   27594   27609       1
   27594   27603   27618   27624       2   27594   27603   27618   27627       2
   27591   27576   27585   27594       2   27591   27576   27585   27597       1
   27591   27576   27585   27600       1   27588   27576   27585   27594       2
   27588   27576   27585   27597       1   27588   27576   27585   27600       1
   27585   27594   27603   27612       2   27585   27594   27603   27615       2
   27582   27564   27576   27585       2   27582   27564   27576   27588       1
   27582   27564   27576   27591       1   27579   27564   27576   27585       2
   27579   27564   27576   27588       1   27579   27564   27576   27591       1
   27576   27585   27594   27606       2   27576   27585   27594   27609       2
   27570   27546   27564   27576       2   27570   27546   27564   27579       1
   27570   27546   27564   27582       1   27567   27546   27564   27576       2
   27567   27546   27564   27579       1   27567   27546   27564   27582       1
   27564   27576   27585   27597       2   27564   27576   27585   27600       2
   27561   27540   27555   27573       4   27558   27534   27555   27573       4
   27552   27531   27546   27564       2   27552   27531   27546   27567       1
   27552   27531   27546   27570       1   27549   27531   27546   27564       2
   27549   27531   27546   27567       1   27549   27531   27546   27570       1
   27546   27564   27576   27588       2   27546   27564   27576   27591       2
   27543   27528   27540   27555       4   27543   27528   27540   27561       4
   27540   27555   27534   27558       4   27537   27525   27534   27555       4
   27537   27525   27534   27558       4   27534   27555   27540   27561       4
   27531   27546   27564   27579       2   27531   27546   27564   27582       2
   27528   27507   27525   27537       4   27528   27540   27555   27573       4
   27525   27507   27528   27543       4   27525   27534   27555   27573       4
   27519   27501   27513   27531       4   27516   27495   27513   27531       4
   27513   27531   27546   27567       5   27513   27531   27546   27570       5
   27510   27492   27504   27522       4   27507   27486   27504   27522       4
   27507   27525   27534   27558       4   27507   27528   27540   27561       4
   27501   27513   27495   27516       4   27501   27513   27531   27549       8
   27501   27513   27531   27552       8   27498   27477   27495   27513       4
   27498   27477   27495   27516       4   27495   27513   27501   27519       4
   27495   27513   27531   27549       8   27495   27513   27531   27552       8
   27489   27471   27486   27504       4   27489   27471   27486   27507       4
   27486   27504   27492   27510       4   27486   27507   27525   27537       4
   27486   27507   27528   27543       4   27483   27480   27501   27519       4
   27480   27465   27477   27498       4   27474   27462   27471   27489       4
   27474   27492   27504   27522       4   27471   27486   27504   27522       4
   27468   27474   27492   27510       4   27465   27477   27495   27516       4
   27465   27480   27501   27519       4   27462   27474   27492   27510       4
   27459   27465   27477   27498       4   27456   27462   27471   27489       4
   27828   27813   27825   27831       1   27828   27813   27825   27834       1
   27828   27813   27825   27837       1   27822   27813   27825   27831       1
   27822   27813   27825   27834       1   27822   27813   27825   27837       1
   27819   27810   27813   27822       1   27819   27810   27813   27825       2
   27819   27810   27813   27828       1   27816   27810   27813   27822       1
   27816   27810   27813   27825       2   27816   27810   27813   27828       1
   27810   27813   27825   27831       2   27810   27813   27825   27834       2
   27810   27813   27825   27837       2   27807   27795   27810   27813       2
   27807   27795   27810   27816       1   27807   27795   27810   27819       1
   27804   27795   27810   27813       2   27804   27795   27810   27816       1
   27804   27795   27810   27819       1   27801   27786   27795   27804       1
   27801   27786   27795   27807       1   27801   27786   27795   27810       2
   27798   27786   27795   27804       1   27798   27786   27795   27807       1
   27798   27786   27795   27810       2   27795   27810   27813   27822       2
   27795   27810   27813   27828       2   27792   27777   27786   27795       2
   27792   27777   27786   27798       1   27792   27777   27786   27801       1
   27789   27777   27786   27795       2   27789   27777   27786   27798       1
   27789   27777   27786   27801       1   27786   27795   27810   27816       2
   27786   27795   27810   27819       2   27783   27768   27777   27786       2
   27783   27768   27777   27789       1   27783   27768   27777   27792       1
   27780   27768   27777   27786       2   27780   27768   27777   27789       1
   27780   27768   27777   27792       1   27777   27786   27795   27804       2
   27777   27786   27795   27807       2   27774   27756   27768   27777       2
   27774   27756   27768   27780       1   27774   27756   27768   27783       1
   27771   27756   27768   27777       2   27771   27756   27768   27780       1
   27771   27756   27768   27783       1   27768   27777   27786   27798       2
   27768   27777   27786   27801       2   27762   27738   27756   27768       2
   27762   27738   27756   27771       1   27762   27738   27756   27774       1
   27759   27738   27756   27768       2   27759   27738   27756   27771       1
   27759   27738   27756   27774       1   27756   27768   27777   27789       2
   27756   27768   27777   27792       2   27753   27732   27747   27765       4
   27750   27726   27747   27765       4   27744   27723   27738   27756       2
   27744   27723   27738   27759       1   27744   27723   27738   27762       1
   27741   27723   27738   27756       2   27741   27723   27738   27759       1
   27741   27723   27738   27762       1   27738   27756   27768   27780       2
   27738   27756   27768   27783       2   27735   27720   27732   27747       4
   27735   27720   27732   27753       4   27732   27747   27726   27750       4
   27729   27717   27726   27747       4   27729   27717   27726   27750       4
   27726   27747   27732   27753       4   27723   27738   27756   27771       2
   27723   27738   27756   27774       2   27720   27699   27717   27729       4
   27720   27732   27747   27765       4   27717   27699   27720   27735       4
   27717   27726   27747   27765       4   27711   27693   27705   27723       4
   27708   27687   27705   27723       4   27705   27723   27738   27759       5
   27705   27723   27738   27762       5   27702   27684   27696   27714       4
   27699   27678   27696   27714       4   27699   27717   27726   27750       4
   27699   27720   27732   27753       4   27693   27705   27687   27708       4
   27693   27705   27723   27741       8   27693   27705   27723   27744       8
   27690   27669   27687   27705       4   27690   27669   27687   27708       4
   27687   27705   27693   27711       4   27687   27705   27723   27741       8
   27687   27705   27723   27744       8   27681   27663   27678   27696       4
   27681   27663   27678   27699       4   27678   27696   27684   27702       4
   27678   27699   27717   27729       4   27678   27699   27720   27735       4
   27675   27672   27693   27711       4   27672   27657   27669   27690       4
   27666   27654   27663   27681       4   27666   27684   27696   27714       4
   27663   27678   27696   27714       4   27660   27666   27684   27702       4
   27657   27669   27687   27708       4   27657   27672   27693   27711       4
   27654   27666   27684   27702       4   27651   27657   27669   27690       4
   27648   27654   27663   27681       4   28020   28005   28017   28023       1
   28020   28005   28017   28026       1   28020   28005   28017   28029       1
   28014   28005   28017   28023       1   28014   28005   28017   28026       1
   28014   28005   28017   28029       1   28011   28002   28005   28014       1
   28011   28002   28005   28017       2   28011   28002   28005   28020       1
   28008   28002   28005   28014       1   28008   28002   28005   28017       2
   28008   28002   28005   28020       1   28002   28005   28017   28023       2
   28002   28005   28017   28026       2   28002   28005   28017   28029       2
   27999   27987   28002   28005       2   27999   27987   28002   28008       1
   27999   27987   28002   28011       1   27996   27987   28002   28005       2
   27996   27987   28002   28008       1   27996   27987   28002   28011       1
   27993   27978   27987   27996       1   27993   27978   27987   27999       1
   27993   27978   27987   28002       2   27990   27978   27987   27996       1
   27990   27978   27987   27999       1   27990   27978   27987   28002       2
   27987   28002   28005   28014       2   27987   28002   28005   28020       2
   27984   27969   27978   27987       2   27984   27969   27978   27990       1
   27984   27969   27978   27993       1   27981   27969   27978   27987       2
   27981   27969   27978   27990       1   27981   27969   27978   27993       1
   27978   27987   28002   28008       2   27978   27987   28002   28011       2
   27975   27960   27969   27978       2   27975   27960   27969   27981       1
   27975   27960   27969   27984       1   27972   27960   27969   27978       2
   27972   27960   27969   27981       1   27972   27960   27969   27984       1
   27969   27978   27987   27996       2   27969   27978   27987   27999       2
   27966   27948   27960   27969       2   27966   27948   27960   27972       1
   27966   27948   27960   27975       1   27963   27948   27960   27969       2
   27963   27948   27960   27972       1   27963   27948   27960   27975       1
   27960   27969   27978   27990       2   27960   27969   27978   27993       2
   27954   27930   27948   27960       2   27954   27930   27948   27963       1
   27954   27930   27948   27966       1   27951   27930   27948   27960       2
   27951   27930   27948   27963       1   27951   27930   27948   27966       1
   27948   27960   27969   27981       2   27948   27960   27969   27984       2
   27945   27924   27939   27957       4   27942   27918   27939   27957       4
   27936   27915   27930   27948       2   27936   27915   27930   27951       1
   27936   27915   27930   27954       1   27933   27915   27930   27948       2
   27933   27915   27930   27951       1   27933   27915   27930   27954       1
   27930   27948   27960   27972       2   27930   27948   27960   27975       2
   27927   27912   27924   27939       4   27927   27912   27924   27945       4
   27924   27939   27918   27942       4   27921   27909   27918   27939       4
   27921   27909   27918   27942       4   27918   27939   27924   27945       4
   27915   27930   27948   27963       2   27915   27930   27948   27966       2
   27912   27891   27909   27921       4   27912   27924   27939   27957       4
   27909   27891   27912   27927       4   27909   27918   27939   27957       4
   27903   27885   27897   27915       4   27900   27879   27897   27915       4
   27897   27915   27930   27951       5   27897   27915   27930   27954       5
   27894   27876   27888   27906       4   27891   27870   27888   27906       4
   27891   27909   27918   27942       4   27891   27912   27924   27945       4
   27885   27897   27879   27900       4   27885   27897   27915   27933       8
   27885   27897   27915   27936       8   27882   27861   27879   27897       4
   27882   27861   27879   27900       4   27879   27897   27885   27903       4
   27879   27897   27915   27933       8   27879   27897   27915   27936       8
   27873   27855   27870   27888       4   27873   27855   27870   27891       4
   27870   27888   27876   27894       4   27870   27891   27909   27921       4
   27870   27891   27912   27927       4   27867   27864   27885   27903       4
   27864   27849   27861   27882       4   27858   27846   27855   27873       4
   27858   27876   27888   27906       4   27855   27870   27888   27906       4
   27852   27858   27876   27894       4   27849   27861   27879   27900       4
   27849   27864   27885   27903       4   27846   27858   27876   27894       4
   27843   27849   27861   27882       4   27840   27846   27855   27873       4
   28212   28197   28209   28215       1   28212   28197   28209   28218       1
   28212   28197   28209   28221       1   28206   28197   28209   28215       1
   28206   28197   28209   28218       1   28206   28197   28209   28221       1
   28203   28194   28197   28206       1   28203   28194   28197   28209       2
   28203   28194   28197   28212       1   28200   28194   28197   28206       1
   28200   28194   28197   28209       2   28200   28194   28197   28212       1
   28194   28197   28209   28215       2   28194   28197   28209   28218       2
   28194   28197   28209   28221       2   28191   28179   28194   28197       2
   28191   28179   28194   28200       1   28191   28179   28194   28203       1
   28188   28179   28194   28197       2   28188   28179   28194   28200       1
   28188   28179   28194   28203       1   28185   28170   28179   28188       1
   28185   28170   28179   28191       1   28185   28170   28179   28194       2
   28182   28170   28179   28188       1   28182   28170   28179   28191       1
   28182   28170   28179   28194       2   28179   28194   28197   28206       2
   28179   28194   28197   28212       2   28176   28161   28170   28179       2
   28176   28161   28170   28182       1   28176   28161   28170   28185       1
   28173   28161   28170   28179       2   28173   28161   28170   28182       1
   28173   28161   28170   28185       1   28170   28179   28194   28200       2
   28170   28179   28194   28203       2   28167   28152   28161   28170       2
   28167   28152   28161   28173       1   28167   28152   28161   28176       1
   28164   28152   28161   28170       2   28164   28152   28161   28173       1
   28164   28152   28161   28176       1   28161   28170   28179   28188       2
   28161   28170   28179   28191       2   28158   28140   28152   28161       2
   28158   28140   28152   28164       1   28158   28140   28152   28167       1
   28155   28140   28152   28161       2   28155   28140   28152   28164       1
   28155   28140   28152   28167       1   28152   28161   28170   28182       2
   28152   28161   28170   28185       2   28146   28122   28140   28152       2
   28146   28122   28140   28155       1   28146   28122   28140   28158       1
   28143   28122   28140   28152       2   28143   28122   28140   28155       1
   28143   28122   28140   28158       1   28140   28152   28161   28173       2
   28140   28152   28161   28176       2   28137   28116   28131   28149       4
   28134   28110   28131   28149       4   28128   28107   28122   28140       2
   28128   28107   28122   28143       1   28128   28107   28122   28146       1
   28125   28107   28122   28140       2   28125   28107   28122   28143       1
   28125   28107   28122   28146       1   28122   28140   28152   28164       2
   28122   28140   28152   28167       2   28119   28104   28116   28131       4
   28119   28104   28116   28137       4   28116   28131   28110   28134       4
   28113   28101   28110   28131       4   28113   28101   28110   28134       4
   28110   28131   28116   28137       4   28107   28122   28140   28155       2
   28107   28122   28140   28158       2   28104   28083   28101   28113       4
   28104   28116   28131   28149       4   28101   28083   28104   28119       4
   28101   28110   28131   28149       4   28095   28077   28089   28107       4
   28092   28071   28089   28107       4   28089   28107   28122   28143       5
   28089   28107   28122   28146       5   28086   28068   28080   28098       4
   28083   28062   28080   28098       4   28083   28101   28110   28134       4
   28083   28104   28116   28137       4   28077   28089   28071   28092       4
   28077   28089   28107   28125       8   28077   28089   28107   28128       8
   28074   28053   28071   28089       4   28074   28053   28071   28092       4
   28071   28089   28077   28095       4   28071   28089   28107   28125       8
   28071   28089   28107   28128       8   28065   28047   28062   28080       4
   28065   28047   28062   28083       4   28062   28080   28068   28086       4
   28062   28083   28101   28113       4   28062   28083   28104   28119       4
   28059   28056   28077   28095       4   28056   28041   28053   28074       4
   28050   28038   28047   28065       4   28050   28068   28080   28098       4
   28047   28062   28080   28098       4   28044   28050   28068   28086       4
   28041   28053   28071   28092       4   28041   28056   28077   28095       4
   28038   28050   28068   28086       4   28035   28041   28053   28074       4
   28032   28038   28047   28065       4   28404   28389   28401   28407       1
   28404   28389   28401   28410       1   28404   28389   28401   28413       1
   28398   28389   28401   28407       1   28398   28389   28401   28410       1
   28398   28389   28401   28413       1   28395   28386   28389   28398       1
   28395   28386   28389   28401       2   28395   28386   28389   28404       1
   28392   28386   28389   28398       1   28392   28386   28389   28401       2
   28392   28386   28389   28404       1   28386   28389   28401   28407       2
   28386   28389   28401   28410       2   28386   28389   28401   28413       2
   28383   28371   28386   28389       2   28383   28371   28386   28392       1
   28383   28371   28386   28395       1   28380   28371   28386   28389       2
   28380   28371   28386   28392       1   28380   28371   28386   28395       1
   28377   28362   28371   28380       1   28377   28362   28371   28383       1
   28377   28362   28371   28386       2   28374   28362   28371   28380       1
   28374   28362   28371   28383       1   28374   28362   28371   28386       2
   28371   28386   28389   28398       2   28371   28386   28389   28404       2
   28368   28353   28362   28371       2   28368   28353   28362   28374       1
   28368   28353   28362   28377       1   28365   28353   28362   28371       2
   28365   28353   28362   28374       1   28365   28353   28362   28377       1
   28362   28371   28386   28392       2   28362   28371   28386   28395       2
   28359   28344   28353   28362       2   28359   28344   28353   28365       1
   28359   28344   28353   28368       1   28356   28344   28353   28362       2
   28356   28344   28353   28365       1   28356   28344   28353   28368       1
   28353   28362   28371   28380       2   28353   28362   28371   28383       2
   28350   28332   28344   28353       2   28350   28332   28344   28356       1
   28350   28332   28344   28359       1   28347   28332   28344   28353       2
   28347   28332   28344   28356       1   28347   28332   28344   28359       1
   28344   28353   28362   28374       2   28344   28353   28362   28377       2
   28338   28314   28332   28344       2   28338   28314   28332   28347       1
   28338   28314   28332   28350       1   28335   28314   28332   28344       2
   28335   28314   28332   28347       1   28335   28314   28332   28350       1
   28332   28344   28353   28365       2   28332   28344   28353   28368       2
   28329   28308   28323   28341       4   28326   28302   28323   28341       4
   28320   28299   28314   28332       2   28320   28299   28314   28335       1
   28320   28299   28314   28338       1   28317   28299   28314   28332       2
   28317   28299   28314   28335       1   28317   28299   28314   28338       1
   28314   28332   28344   28356       2   28314   28332   28344   28359       2
   28311   28296   28308   28323       4   28311   28296   28308   28329       4
   28308   28323   28302   28326       4   28305   28293   28302   28323       4
   28305   28293   28302   28326       4   28302   28323   28308   28329       4
   28299   28314   28332   28347       2   28299   28314   28332   28350       2
   28296   28275   28293   28305       4   28296   28308   28323   28341       4
   28293   28275   28296   28311       4   28293   28302   28323   28341       4
   28287   28269   28281   28299       4   28284   28263   28281   28299       4
   28281   28299   28314   28335       5   28281   28299   28314   28338       5
   28278   28260   28272   28290       4   28275   28254   28272   28290       4
   28275   28293   28302   28326       4   28275   28296   28308   28329       4
   28269   28281   28263   28284       4   28269   28281   28299   28317       8
   28269   28281   28299   28320       8   28266   28245   28263   28281       4
   28266   28245   28263   28284       4   28263   28281   28269   28287       4
   28263   28281   28299   28317       8   28263   28281   28299   28320       8
   28257   28239   28254   28272       4   28257   28239   28254   28275       4
   28254   28272   28260   28278       4   28254   28275   28293   28305       4
   28254   28275   28296   28311       4   28251   28248   28269   28287       4
   28248   28233   28245   28266       4   28242   28230   28239   28257       4
   28242   28260   28272   28290       4   28239   28254   28272   28290       4
   28236   28242   28260   28278       4   28233   28245   28263   28284       4
   28233   28248   28269   28287       4   28230   28242   28260   28278       4
   28227   28233   28245   28266       4   28224   28230   28239   28257       4
   28596   28581   28593   28599       1   28596   28581   28593   28602       1
   28596   28581   28593   28605       1   28590   28581   28593   28599       1
   28590   28581   28593   28602       1   28590   28581   28593   28605       1
   28587   28578   28581   28590       1   28587   28578   28581   28593       2
   28587   28578   28581   28596       1   28584   28578   28581   28590       1
   28584   28578   28581   28593       2   28584   28578   28581   28596       1
   28578   28581   28593   28599       2   28578   28581   28593   28602       2
   28578   28581   28593   28605       2   28575   28563   28578   28581       2
   28575   28563   28578   28584       1   28575   28563   28578   28587       1
   28572   28563   28578   28581       2   28572   28563   28578   28584       1
   28572   28563   28578   28587       1   28569   28554   28563   28572       1
   28569   28554   28563   28575       1   28569   28554   28563   28578       2
   28566   28554   28563   28572       1   28566   28554   28563   28575       1
   28566   28554   28563   28578       2   28563   28578   28581   28590       2
   28563   28578   28581   28596       2   28560   28545   28554   28563       2
   28560   28545   28554   28566       1   28560   28545   28554   28569       1
   28557   28545   28554   28563       2   28557   28545   28554   28566       1
   28557   28545   28554   28569       1   28554   28563   28578   28584       2
   28554   28563   28578   28587       2   28551   28536   28545   28554       2
   28551   28536   28545   28557       1   28551   28536   28545   28560       1
   28548   28536   28545   28554       2   28548   28536   28545   28557       1
   28548   28536   28545   28560       1   28545   28554   28563   28572       2
   28545   28554   28563   28575       2   28542   28524   28536   28545       2
   28542   28524   28536   28548       1   28542   28524   28536   28551       1
   28539   28524   28536   28545       2   28539   28524   28536   28548       1
   28539   28524   28536   28551       1   28536   28545   28554   28566       2
   28536   28545   28554   28569       2   28530   28506   28524   28536       2
   28530   28506   28524   28539       1   28530   28506   28524   28542       1
   28527   28506   28524   28536       2   28527   28506   28524   28539       1
   28527   28506   28524   28542       1   28524   28536   28545   28557       2
   28524   28536   28545   28560       2   28521   28500   28515   28533       4
   28518   28494   28515   28533       4   28512   28491   28506   28524       2
   28512   28491   28506   28527       1   28512   28491   28506   28530       1
   28509   28491   28506   28524       2   28509   28491   28506   28527       1
   28509   28491   28506   28530       1   28506   28524   28536   28548       2
   28506   28524   28536   28551       2   28503   28488   28500   28515       4
   28503   28488   28500   28521       4   28500   28515   28494   28518       4
   28497   28485   28494   28515       4   28497   28485   28494   28518       4
   28494   28515   28500   28521       4   28491   28506   28524   28539       2
   28491   28506   28524   28542       2   28488   28467   28485   28497       4
   28488   28500   28515   28533       4   28485   28467   28488   28503       4
   28485   28494   28515   28533       4   28479   28461   28473   28491       4
   28476   28455   28473   28491       4   28473   28491   28506   28527       5
   28473   28491   28506   28530       5   28470   28452   28464   28482       4
   28467   28446   28464   28482       4   28467   28485   28494   28518       4
   28467   28488   28500   28521       4   28461   28473   28455   28476       4
   28461   28473   28491   28509       8   28461   28473   28491   28512       8
   28458   28437   28455   28473       4   28458   28437   28455   28476       4
   28455   28473   28461   28479       4   28455   28473   28491   28509       8
   28455   28473   28491   28512       8   28449   28431   28446   28464       4
   28449   28431   28446   28467       4   28446   28464   28452   28470       4
   28446   28467   28485   28497       4   28446   28467   28488   28503       4
   28443   28440   28461   28479       4   28440   28425   28437   28458       4
   28434   28422   28431   28449       4   28434   28452   28464   28482       4
   28431   28446   28464   28482       4   28428   28434   28452   28470       4
   28425   28437   28455   28476       4   28425   28440   28461   28479       4
   28422   28434   28452   28470       4   28419   28425   28437   28458       4
   28416   28422   28431   28449       4   28788   28773   28785   28791       1
   28788   28773   28785   28794       1   28788   28773   28785   28797       1
   28782   28773   28785   28791       1   28782   28773   28785   28794       1
   28782   28773   28785   28797       1   28779   28770   28773   28782       1
   28779   28770   28773   28785       2   28779   28770   28773   28788       1
   28776   28770   28773   28782       1   28776   28770   28773   28785       2
   28776   28770   28773   28788       1   28770   28773   28785   28791       2
   28770   28773   28785   28794       2   28770   28773   28785   28797       2
   28767   28755   28770   28773       2   28767   28755   28770   28776       1
   28767   28755   28770   28779       1   28764   28755   28770   28773       2
   28764   28755   28770   28776       1   28764   28755   28770   28779       1
   28761   28746   28755   28764       1   28761   28746   28755   28767       1
   28761   28746   28755   28770       2   28758   28746   28755   28764       1
   28758   28746   28755   28767       1   28758   28746   28755   28770       2
   28755   28770   28773   28782       2   28755   28770   28773   28788       2
   28752   28737   28746   28755       2   28752   28737   28746   28758       1
   28752   28737   28746   28761       1   28749   28737   28746   28755       2
   28749   28737   28746   28758       1   28749   28737   28746   28761       1
   28746   28755   28770   28776       2   28746   28755   28770   28779       2
   28743   28728   28737   28746       2   28743   28728   28737   28749       1
   28743   28728   28737   28752       1   28740   28728   28737   28746       2
   28740   28728   28737   28749       1   28740   28728   28737   28752       1
   28737   28746   28755   28764       2   28737   28746   28755   28767       2
   28734   28716   28728   28737       2   28734   28716   28728   28740       1
   28734   28716   28728   28743       1   28731   28716   28728   28737       2
   28731   28716   28728   28740       1   28731   28716   28728   28743       1
   28728   28737   28746   28758       2   28728   28737   28746   28761       2
   28722   28698   28716   28728       2   28722   28698   28716   28731       1
   28722   28698   28716   28734       1   28719   28698   28716   28728       2
   28719   28698   28716   28731       1   28719   28698   28716   28734       1
   28716   28728   28737   28749       2   28716   28728   28737   28752       2
   28713   28692   28707   28725       4   28710   28686   28707   28725       4
   28704   28683   28698   28716       2   28704   28683   28698   28719       1
   28704   28683   28698   28722       1   28701   28683   28698   28716       2
   28701   28683   28698   28719       1   28701   28683   28698   28722       1
   28698   28716   28728   28740       2   28698   28716   28728   28743       2
   28695   28680   28692   28707       4   28695   28680   28692   28713       4
   28692   28707   28686   28710       4   28689   28677   28686   28707       4
   28689   28677   28686   28710       4   28686   28707   28692   28713       4
   28683   28698   28716   28731       2   28683   28698   28716   28734       2
   28680   28659   28677   28689       4   28680   28692   28707   28725       4
   28677   28659   28680   28695       4   28677   28686   28707   28725       4
   28671   28653   28665   28683       4   28668   28647   28665   28683       4
   28665   28683   28698   28719       5   28665   28683   28698   28722       5
   28662   28644   28656   28674       4   28659   28638   28656   28674       4
   28659   28677   28686   28710       4   28659   28680   28692   28713       4
   28653   28665   28647   28668       4   28653   28665   28683   28701       8
   28653   28665   28683   28704       8   28650   28629   28647   28665       4
   28650   28629   28647   28668       4   28647   28665   28653   28671       4
   28647   28665   28683   28701       8   28647   28665   28683   28704       8
   28641   28623   28638   28656       4   28641   28623   28638   28659       4
   28638   28656   28644   28662       4   28638   28659   28677   28689       4
   28638   28659   28680   28695       4   28635   28632   28653   28671       4
   28632   28617   28629   28650       4   28626   28614   28623   28641       4
   28626   28644   28656   28674       4   28623   28638   28656   28674       4
   28620   28626   28644   28662       4   28617   28629   28647   28668       4
   28617   28632   28653   28671       4   28614   28626   28644   28662       4
   28611   28617   28629   28650       4   28608   28614   28623   28641       4
   28980   28965   28977   28983       1   28980   28965   28977   28986       1
   28980   28965   28977   28989       1   28974   28965   28977   28983       1
   28974   28965   28977   28986       1   28974   28965   28977   28989       1
   28971   28962   28965   28974       1   28971   28962   28965   28977       2
   28971   28962   28965   28980       1   28968   28962   28965   28974       1
   28968   28962   28965   28977       2   28968   28962   28965   28980       1
   28962   28965   28977   28983       2   28962   28965   28977   28986       2
   28962   28965   28977   28989       2   28959   28947   28962   28965       2
   28959   28947   28962   28968       1   28959   28947   28962   28971       1
   28956   28947   28962   28965       2   28956   28947   28962   28968       1
   28956   28947   28962   28971       1   28953   28938   28947   28956       1
   28953   28938   28947   28959       1   28953   28938   28947   28962       2
   28950   28938   28947   28956       1   28950   28938   28947   28959       1
   28950   28938   28947   28962       2   28947   28962   28965   28974       2
   28947   28962   28965   28980       2   28944   28929   28938   28947       2
   28944   28929   28938   28950       1   28944   28929   28938   28953       1
   28941   28929   28938   28947       2   28941   28929   28938   28950       1
   28941   28929   28938   28953       1   28938   28947   28962   28968       2
   28938   28947   28962   28971       2   28935   28920   28929   28938       2
   28935   28920   28929   28941       1   28935   28920   28929   28944       1
   28932   28920   28929   28938       2   28932   28920   28929   28941       1
   28932   28920   28929   28944       1   28929   28938   28947   28956       2
   28929   28938   28947   28959       2   28926   28908   28920   28929       2
   28926   28908   28920   28932       1   28926   28908   28920   28935       1
   28923   28908   28920   28929       2   28923   28908   28920   28932       1
   28923   28908   28920   28935       1   28920   28929   28938   28950       2
   28920   28929   28938   28953       2   28914   28890   28908   28920       2
   28914   28890   28908   28923       1   28914   28890   28908   28926       1
   28911   28890   28908   28920       2   28911   28890   28908   28923       1
   28911   28890   28908   28926       1   28908   28920   28929   28941       2
   28908   28920   28929   28944       2   28905   28884   28899   28917       4
   28902   28878   28899   28917       4   28896   28875   28890   28908       2
   28896   28875   28890   28911       1   28896   28875   28890   28914       1
   28893   28875   28890   28908       2   28893   28875   28890   28911       1
   28893   28875   28890   28914       1   28890   28908   28920   28932       2
   28890   28908   28920   28935       2   28887   28872   28884   28899       4
   28887   28872   28884   28905       4   28884   28899   28878   28902       4
   28881   28869   28878   28899       4   28881   28869   28878   28902       4
   28878   28899   28884   28905       4   28875   28890   28908   28923       2
   28875   28890   28908   28926       2   28872   28851   28869   28881       4
   28872   28884   28899   28917       4   28869   28851   28872   28887       4
   28869   28878   28899   28917       4   28863   28845   28857   28875       4
   28860   28839   28857   28875       4   28857   28875   28890   28911       5
   28857   28875   28890   28914       5   28854   28836   28848   28866       4
   28851   28830   28848   28866       4   28851   28869   28878   28902       4
   28851   28872   28884   28905       4   28845   28857   28839   28860       4
   28845   28857   28875   28893       8   28845   28857   28875   28896       8
   28842   28821   28839   28857       4   28842   28821   28839   28860       4
   28839   28857   28845   28863       4   28839   28857   28875   28893       8
   28839   28857   28875   28896       8   28833   28815   28830   28848       4
   28833   28815   28830   28851       4   28830   28848   28836   28854       4
   28830   28851   28869   28881       4   28830   28851   28872   28887       4
   28827   28824   28845   28863       4   28824   28809   28821   28842       4
   28818   28806   28815   28833       4   28818   28836   28848   28866       4
   28815   28830   28848   28866       4   28812   28818   28836   28854       4
   28809   28821   28839   28860       4   28809   28824   28845   28863       4
   28806   28818   28836   28854       4   28803   28809   28821   28842       4
   28800   28806   28815   28833       4   29172   29157   29169   29175       1
   29172   29157   29169   29178       1   29172   29157   29169   29181       1
   29166   29157   29169   29175       1   29166   29157   29169   29178       1
   29166   29157   29169   29181       1   29163   29154   29157   29166       1
   29163   29154   29157   29169       2   29163   29154   29157   29172       1
   29160   29154   29157   29166       1   29160   29154   29157   29169       2
   29160   29154   29157   29172       1   29154   29157   29169   29175       2
   29154   29157   29169   29178       2   29154   29157   29169   29181       2
   29151   29139   29154   29157       2   29151   29139   29154   29160       1
   29151   29139   29154   29163       1   29148   29139   29154   29157       2
   29148   29139   29154   29160       1   29148   29139   29154   29163       1
   29145   29130   29139   29148       1   29145   29130   29139   29151       1
   29145   29130   29139   29154       2   29142   29130   29139   29148       1
   29142   29130   29139   29151       1   29142   29130   29139   29154       2
   29139   29154   29157   29166       2   29139   29154   29157   29172       2
   29136   29121   29130   29139       2   29136   29121   29130   29142       1
   29136   29121   29130   29145       1   29133   29121   29130   29139       2
   29133   29121   29130   29142       1   29133   29121   29130   29145       1
   29130   29139   29154   29160       2   29130   29139   29154   29163       2
   29127   29112   29121   29130       2   29127   29112   29121   29133       1
   29127   29112   29121   29136       1   29124   29112   29121   29130       2
   29124   29112   29121   29133       1   29124   29112   29121   29136       1
   29121   29130   29139   29148       2   29121   29130   29139   29151       2
   29118   29100   29112   29121       2   29118   29100   29112   29124       1
   29118   29100   29112   29127       1   29115   29100   29112   29121       2
   29115   29100   29112   29124       1   29115   29100   29112   29127       1
   29112   29121   29130   29142       2   29112   29121   29130   29145       2
   29106   29082   29100   29112       2   29106   29082   29100   29115       1
   29106   29082   29100   29118       1   29103   29082   29100   29112       2
   29103   29082   29100   29115       1   29103   29082   29100   29118       1
   29100   29112   29121   29133       2   29100   29112   29121   29136       2
   29097   29076   29091   29109       4   29094   29070   29091   29109       4
   29088   29067   29082   29100       2   29088   29067   29082   29103       1
   29088   29067   29082   29106       1   29085   29067   29082   29100       2
   29085   29067   29082   29103       1   29085   29067   29082   29106       1
   29082   29100   29112   29124       2   29082   29100   29112   29127       2
   29079   29064   29076   29091       4   29079   29064   29076   29097       4
   29076   29091   29070   29094       4   29073   29061   29070   29091       4
   29073   29061   29070   29094       4   29070   29091   29076   29097       4
   29067   29082   29100   29115       2   29067   29082   29100   29118       2
   29064   29043   29061   29073       4   29064   29076   29091   29109       4
   29061   29043   29064   29079       4   29061   29070   29091   29109       4
   29055   29037   29049   29067       4   29052   29031   29049   29067       4
   29049   29067   29082   29103       5   29049   29067   29082   29106       5
   29046   29028   29040   29058       4   29043   29022   29040   29058       4
   29043   29061   29070   29094       4   29043   29064   29076   29097       4
   29037   29049   29031   29052       4   29037   29049   29067   29085       8
   29037   29049   29067   29088       8   29034   29013   29031   29049       4
   29034   29013   29031   29052       4   29031   29049   29037   29055       4
   29031   29049   29067   29085       8   29031   29049   29067   29088       8
   29025   29007   29022   29040       4   29025   29007   29022   29043       4
   29022   29040   29028   29046       4   29022   29043   29061   29073       4
   29022   29043   29064   29079       4   29019   29016   29037   29055       4
   29016   29001   29013   29034       4   29010   28998   29007   29025       4
   29010   29028   29040   29058       4   29007   29022   29040   29058       4
   29004   29010   29028   29046       4   29001   29013   29031   29052       4
   29001   29016   29037   29055       4   28998   29010   29028   29046       4
   28995   29001   29013   29034       4   28992   28998   29007   29025       4
   29364   29349   29361   29367       1   29364   29349   29361   29370       1
   29364   29349   29361   29373       1   29358   29349   29361   29367       1
   29358   29349   29361   29370       1   29358   29349   29361   29373       1
   29355   29346   29349   29358       1   29355   29346   29349   29361       2
   29355   29346   29349   29364       1   29352   29346   29349   29358       1
   29352   29346   29349   29361       2   29352   29346   29349   29364       1
   29346   29349   29361   29367       2   29346   29349   29361   29370       2
   29346   29349   29361   29373       2   29343   29331   29346   29349       2
   29343   29331   29346   29352       1   29343   29331   29346   29355       1
   29340   29331   29346   29349       2   29340   29331   29346   29352       1
   29340   29331   29346   29355       1   29337   29322   29331   29340       1
   29337   29322   29331   29343       1   29337   29322   29331   29346       2
   29334   29322   29331   29340       1   29334   29322   29331   29343       1
   29334   29322   29331   29346       2   29331   29346   29349   29358       2
   29331   29346   29349   29364       2   29328   29313   29322   29331       2
   29328   29313   29322   29334       1   29328   29313   29322   29337       1
   29325   29313   29322   29331       2   29325   29313   29322   29334       1
   29325   29313   29322   29337       1   29322   29331   29346   29352       2
   29322   29331   29346   29355       2   29319   29304   29313   29322       2
   29319   29304   29313   29325       1   29319   29304   29313   29328       1
   29316   29304   29313   29322       2   29316   29304   29313   29325       1
   29316   29304   29313   29328       1   29313   29322   29331   29340       2
   29313   29322   29331   29343       2   29310   29292   29304   29313       2
   29310   29292   29304   29316       1   29310   29292   29304   29319       1
   29307   29292   29304   29313       2   29307   29292   29304   29316       1
   29307   29292   29304   29319       1   29304   29313   29322   29334       2
   29304   29313   29322   29337       2   29298   29274   29292   29304       2
   29298   29274   29292   29307       1   29298   29274   29292   29310       1
   29295   29274   29292   29304       2   29295   29274   29292   29307       1
   29295   29274   29292   29310       1   29292   29304   29313   29325       2
   29292   29304   29313   29328       2   29289   29268   29283   29301       4
   29286   29262   29283   29301       4   29280   29259   29274   29292       2
   29280   29259   29274   29295       1   29280   29259   29274   29298       1
   29277   29259   29274   29292       2   29277   29259   29274   29295       1
   29277   29259   29274   29298       1   29274   29292   29304   29316       2
   29274   29292   29304   29319       2   29271   29256   29268   29283       4
   29271   29256   29268   29289       4   29268   29283   29262   29286       4
   29265   29253   29262   29283       4   29265   29253   29262   29286       4
   29262   29283   29268   29289       4   29259   29274   29292   29307       2
   29259   29274   29292   29310       2   29256   29235   29253   29265       4
   29256   29268   29283   29301       4   29253   29235   29256   29271       4
   29253   29262   29283   29301       4   29247   29229   29241   29259       4
   29244   29223   29241   29259       4   29241   29259   29274   29295       5
   29241   29259   29274   29298       5   29238   29220   29232   29250       4
   29235   29214   29232   29250       4   29235   29253   29262   29286       4
   29235   29256   29268   29289       4   29229   29241   29223   29244       4
   29229   29241   29259   29277       8   29229   29241   29259   29280       8
   29226   29205   29223   29241       4   29226   29205   29223   29244       4
   29223   29241   29229   29247       4   29223   29241   29259   29277       8
   29223   29241   29259   29280       8   29217   29199   29214   29232       4
   29217   29199   29214   29235       4   29214   29232   29220   29238       4
   29214   29235   29253   29265       4   29214   29235   29256   29271       4
   29211   29208   29229   29247       4   29208   29193   29205   29226       4
   29202   29190   29199   29217       4   29202   29220   29232   29250       4
   29199   29214   29232   29250       4   29196   29202   29220   29238       4
   29193   29205   29223   29244       4   29193   29208   29229   29247       4
   29190   29202   29220   29238       4   29187   29193   29205   29226       4
   29184   29190   29199   29217       4   29556   29541   29553   29559       1
   29556   29541   29553   29562       1   29556   29541   29553   29565       1
   29550   29541   29553   29559       1   29550   29541   29553   29562       1
   29550   29541   29553   29565       1   29547   29538   29541   29550       1
   29547   29538   29541   29553       2   29547   29538   29541   29556       1
   29544   29538   29541   29550       1   29544   29538   29541   29553       2
   29544   29538   29541   29556       1   29538   29541   29553   29559       2
   29538   29541   29553   29562       2   29538   29541   29553   29565       2
   29535   29523   29538   29541       2   29535   29523   29538   29544       1
   29535   29523   29538   29547       1   29532   29523   29538   29541       2
   29532   29523   29538   29544       1   29532   29523   29538   29547       1
   29529   29514   29523   29532       1   29529   29514   29523   29535       1
   29529   29514   29523   29538       2   29526   29514   29523   29532       1
   29526   29514   29523   29535       1   29526   29514   29523   29538       2
   29523   29538   29541   29550       2   29523   29538   29541   29556       2
   29520   29505   29514   29523       2   29520   29505   29514   29526       1
   29520   29505   29514   29529       1   29517   29505   29514   29523       2
   29517   29505   29514   29526       1   29517   29505   29514   29529       1
   29514   29523   29538   29544       2   29514   29523   29538   29547       2
   29511   29496   29505   29514       2   29511   29496   29505   29517       1
   29511   29496   29505   29520       1   29508   29496   29505   29514       2
   29508   29496   29505   29517       1   29508   29496   29505   29520       1
   29505   29514   29523   29532       2   29505   29514   29523   29535       2
   29502   29484   29496   29505       2   29502   29484   29496   29508       1
   29502   29484   29496   29511       1   29499   29484   29496   29505       2
   29499   29484   29496   29508       1   29499   29484   29496   29511       1
   29496   29505   29514   29526       2   29496   29505   29514   29529       2
   29490   29466   29484   29496       2   29490   29466   29484   29499       1
   29490   29466   29484   29502       1   29487   29466   29484   29496       2
   29487   29466   29484   29499       1   29487   29466   29484   29502       1
   29484   29496   29505   29517       2   29484   29496   29505   29520       2
   29481   29460   29475   29493       4   29478   29454   29475   29493       4
   29472   29451   29466   29484       2   29472   29451   29466   29487       1
   29472   29451   29466   29490       1   29469   29451   29466   29484       2
   29469   29451   29466   29487       1   29469   29451   29466   29490       1
   29466   29484   29496   29508       2   29466   29484   29496   29511       2
   29463   29448   29460   29475       4   29463   29448   29460   29481       4
   29460   29475   29454   29478       4   29457   29445   29454   29475       4
   29457   29445   29454   29478       4   29454   29475   29460   29481       4
   29451   29466   29484   29499       2   29451   29466   29484   29502       2
   29448   29427   29445   29457       4   29448   29460   29475   29493       4
   29445   29427   29448   29463       4   29445   29454   29475   29493       4
   29439   29421   29433   29451       4   29436   29415   29433   29451       4
   29433   29451   29466   29487       5   29433   29451   29466   29490       5
   29430   29412   29424   29442       4   29427   29406   29424   29442       4
   29427   29445   29454   29478       4   29427   29448   29460   29481       4
   29421   29433   29415   29436       4   29421   29433   29451   29469       8
   29421   29433   29451   29472       8   29418   29397   29415   29433       4
   29418   29397   29415   29436       4   29415   29433   29421   29439       4
   29415   29433   29451   29469       8   29415   29433   29451   29472       8
   29409   29391   29406   29424       4   29409   29391   29406   29427       4
   29406   29424   29412   29430       4   29406   29427   29445   29457       4
   29406   29427   29448   29463       4   29403   29400   29421   29439       4
   29400   29385   29397   29418       4   29394   29382   29391   29409       4
   29394   29412   29424   29442       4   29391   29406   29424   29442       4
   29388   29394   29412   29430       4   29385   29397   29415   29436       4
   29385   29400   29421   29439       4   29382   29394   29412   29430       4
   29379   29385   29397   29418       4   29376   29382   29391   29409       4
   29748   29733   29745   29751       1   29748   29733   29745   29754       1
   29748   29733   29745   29757       1   29742   29733   29745   29751       1
   29742   29733   29745   29754       1   29742   29733   29745   29757       1
   29739   29730   29733   29742       1   29739   29730   29733   29745       2
   29739   29730   29733   29748       1   29736   29730   29733   29742       1
   29736   29730   29733   29745       2   29736   29730   29733   29748       1
   29730   29733   29745   29751       2   29730   29733   29745   29754       2
   29730   29733   29745   29757       2   29727   29715   29730   29733       2
   29727   29715   29730   29736       1   29727   29715   29730   29739       1
   29724   29715   29730   29733       2   29724   29715   29730   29736       1
   29724   29715   29730   29739       1   29721   29706   29715   29724       1
   29721   29706   29715   29727       1   29721   29706   29715   29730       2
   29718   29706   29715   29724       1   29718   29706   29715   29727       1
   29718   29706   29715   29730       2   29715   29730   29733   29742       2
   29715   29730   29733   29748       2   29712   29697   29706   29715       2
   29712   29697   29706   29718       1   29712   29697   29706   29721       1
   29709   29697   29706   29715       2   29709   29697   29706   29718       1
   29709   29697   29706   29721       1   29706   29715   29730   29736       2
   29706   29715   29730   29739       2   29703   29688   29697   29706       2
   29703   29688   29697   29709       1   29703   29688   29697   29712       1
   29700   29688   29697   29706       2   29700   29688   29697   29709       1
   29700   29688   29697   29712       1   29697   29706   29715   29724       2
   29697   29706   29715   29727       2   29694   29676   29688   29697       2
   29694   29676   29688   29700       1   29694   29676   29688   29703       1
   29691   29676   29688   29697       2   29691   29676   29688   29700       1
   29691   29676   29688   29703       1   29688   29697   29706   29718       2
   29688   29697   29706   29721       2   29682   29658   29676   29688       2
   29682   29658   29676   29691       1   29682   29658   29676   29694       1
   29679   29658   29676   29688       2   29679   29658   29676   29691       1
   29679   29658   29676   29694       1   29676   29688   29697   29709       2
   29676   29688   29697   29712       2   29673   29652   29667   29685       4
   29670   29646   29667   29685       4   29664   29643   29658   29676       2
   29664   29643   29658   29679       1   29664   29643   29658   29682       1
   29661   29643   29658   29676       2   29661   29643   29658   29679       1
   29661   29643   29658   29682       1   29658   29676   29688   29700       2
   29658   29676   29688   29703       2   29655   29640   29652   29667       4
   29655   29640   29652   29673       4   29652   29667   29646   29670       4
   29649   29637   29646   29667       4   29649   29637   29646   29670       4
   29646   29667   29652   29673       4   29643   29658   29676   29691       2
   29643   29658   29676   29694       2   29640   29619   29637   29649       4
   29640   29652   29667   29685       4   29637   29619   29640   29655       4
   29637   29646   29667   29685       4   29631   29613   29625   29643       4
   29628   29607   29625   29643       4   29625   29643   29658   29679       5
   29625   29643   29658   29682       5   29622   29604   29616   29634       4
   29619   29598   29616   29634       4   29619   29637   29646   29670       4
   29619   29640   29652   29673       4   29613   29625   29607   29628       4
   29613   29625   29643   29661       8   29613   29625   29643   29664       8
   29610   29589   29607   29625       4   29610   29589   29607   29628       4
   29607   29625   29613   29631       4   29607   29625   29643   29661       8
   29607   29625   29643   29664       8   29601   29583   29598   29616       4
   29601   29583   29598   29619       4   29598   29616   29604   29622       4
   29598   29619   29637   29649       4   29598   29619   29640   29655       4
   29595   29592   29613   29631       4   29592   29577   29589   29610       4
   29586   29574   29583   29601       4   29586   29604   29616   29634       4
   29583   29598   29616   29634       4   29580   29586   29604   29622       4
   29577   29589   29607   29628       4   29577   29592   29613   29631       4
   29574   29586   29604   29622       4   29571   29577   29589   29610       4
   29568   29574   29583   29601       4   29940   29925   29937   29943       1
   29940   29925   29937   29946       1   29940   29925   29937   29949       1
   29934   29925   29937   29943       1   29934   29925   29937   29946       1
   29934   29925   29937   29949       1   29931   29922   29925   29934       1
   29931   29922   29925   29937       2   29931   29922   29925   29940       1
   29928   29922   29925   29934       1   29928   29922   29925   29937       2
   29928   29922   29925   29940       1   29922   29925   29937   29943       2
   29922   29925   29937   29946       2   29922   29925   29937   29949       2
   29919   29907   29922   29925       2   29919   29907   29922   29928       1
   29919   29907   29922   29931       1   29916   29907   29922   29925       2
   29916   29907   29922   29928       1   29916   29907   29922   29931       1
   29913   29898   29907   29916       1   29913   29898   29907   29919       1
   29913   29898   29907   29922       2   29910   29898   29907   29916       1
   29910   29898   29907   29919       1   29910   29898   29907   29922       2
   29907   29922   29925   29934       2   29907   29922   29925   29940       2
   29904   29889   29898   29907       2   29904   29889   29898   29910       1
   29904   29889   29898   29913       1   29901   29889   29898   29907       2
   29901   29889   29898   29910       1   29901   29889   29898   29913       1
   29898   29907   29922   29928       2   29898   29907   29922   29931       2
   29895   29880   29889   29898       2   29895   29880   29889   29901       1
   29895   29880   29889   29904       1   29892   29880   29889   29898       2
   29892   29880   29889   29901       1   29892   29880   29889   29904       1
   29889   29898   29907   29916       2   29889   29898   29907   29919       2
   29886   29868   29880   29889       2   29886   29868   29880   29892       1
   29886   29868   29880   29895       1   29883   29868   29880   29889       2
   29883   29868   29880   29892       1   29883   29868   29880   29895       1
   29880   29889   29898   29910       2   29880   29889   29898   29913       2
   29874   29850   29868   29880       2   29874   29850   29868   29883       1
   29874   29850   29868   29886       1   29871   29850   29868   29880       2
   29871   29850   29868   29883       1   29871   29850   29868   29886       1
   29868   29880   29889   29901       2   29868   29880   29889   29904       2
   29865   29844   29859   29877       4   29862   29838   29859   29877       4
   29856   29835   29850   29868       2   29856   29835   29850   29871       1
   29856   29835   29850   29874       1   29853   29835   29850   29868       2
   29853   29835   29850   29871       1   29853   29835   29850   29874       1
   29850   29868   29880   29892       2   29850   29868   29880   29895       2
   29847   29832   29844   29859       4   29847   29832   29844   29865       4
   29844   29859   29838   29862       4   29841   29829   29838   29859       4
   29841   29829   29838   29862       4   29838   29859   29844   29865       4
   29835   29850   29868   29883       2   29835   29850   29868   29886       2
   29832   29811   29829   29841       4   29832   29844   29859   29877       4
   29829   29811   29832   29847       4   29829   29838   29859   29877       4
   29823   29805   29817   29835       4   29820   29799   29817   29835       4
   29817   29835   29850   29871       5   29817   29835   29850   29874       5
   29814   29796   29808   29826       4   29811   29790   29808   29826       4
   29811   29829   29838   29862       4   29811   29832   29844   29865       4
   29805   29817   29799   29820       4   29805   29817   29835   29853       8
   29805   29817   29835   29856       8   29802   29781   29799   29817       4
   29802   29781   29799   29820       4   29799   29817   29805   29823       4
   29799   29817   29835   29853       8   29799   29817   29835   29856       8
   29793   29775   29790   29808       4   29793   29775   29790   29811       4
   29790   29808   29796   29814       4   29790   29811   29829   29841       4
   29790   29811   29832   29847       4   29787   29784   29805   29823       4
   29784   29769   29781   29802       4   29778   29766   29775   29793       4
   29778   29796   29808   29826       4   29775   29790   29808   29826       4
   29772   29778   29796   29814       4   29769   29781   29799   29820       4
   29769   29784   29805   29823       4   29766   29778   29796   29814       4
   29763   29769   29781   29802       4   29760   29766   29775   29793       4
   30132   30117   30129   30135       1   30132   30117   30129   30138       1
   30132   30117   30129   30141       1   30126   30117   30129   30135       1
   30126   30117   30129   30138       1   30126   30117   30129   30141       1
   30123   30114   30117   30126       1   30123   30114   30117   30129       2
   30123   30114   30117   30132       1   30120   30114   30117   30126       1
   30120   30114   30117   30129       2   30120   30114   30117   30132       1
   30114   30117   30129   30135       2   30114   30117   30129   30138       2
   30114   30117   30129   30141       2   30111   30099   30114   30117       2
   30111   30099   30114   30120       1   30111   30099   30114   30123       1
   30108   30099   30114   30117       2   30108   30099   30114   30120       1
   30108   30099   30114   30123       1   30105   30090   30099   30108       1
   30105   30090   30099   30111       1   30105   30090   30099   30114       2
   30102   30090   30099   30108       1   30102   30090   30099   30111       1
   30102   30090   30099   30114       2   30099   30114   30117   30126       2
   30099   30114   30117   30132       2   30096   30081   30090   30099       2
   30096   30081   30090   30102       1   30096   30081   30090   30105       1
   30093   30081   30090   30099       2   30093   30081   30090   30102       1
   30093   30081   30090   30105       1   30090   30099   30114   30120       2
   30090   30099   30114   30123       2   30087   30072   30081   30090       2
   30087   30072   30081   30093       1   30087   30072   30081   30096       1
   30084   30072   30081   30090       2   30084   30072   30081   30093       1
   30084   30072   30081   30096       1   30081   30090   30099   30108       2
   30081   30090   30099   30111       2   30078   30060   30072   30081       2
   30078   30060   30072   30084       1   30078   30060   30072   30087       1
   30075   30060   30072   30081       2   30075   30060   30072   30084       1
   30075   30060   30072   30087       1   30072   30081   30090   30102       2
   30072   30081   30090   30105       2   30066   30042   30060   30072       2
   30066   30042   30060   30075       1   30066   30042   30060   30078       1
   30063   30042   30060   30072       2   30063   30042   30060   30075       1
   30063   30042   30060   30078       1   30060   30072   30081   30093       2
   30060   30072   30081   30096       2   30057   30036   30051   30069       4
   30054   30030   30051   30069       4   30048   30027   30042   30060       2
   30048   30027   30042   30063       1   30048   30027   30042   30066       1
   30045   30027   30042   30060       2   30045   30027   30042   30063       1
   30045   30027   30042   30066       1   30042   30060   30072   30084       2
   30042   30060   30072   30087       2   30039   30024   30036   30051       4
   30039   30024   30036   30057       4   30036   30051   30030   30054       4
   30033   30021   30030   30051       4   30033   30021   30030   30054       4
   30030   30051   30036   30057       4   30027   30042   30060   30075       2
   30027   30042   30060   30078       2   30024   30003   30021   30033       4
   30024   30036   30051   30069       4   30021   30003   30024   30039       4
   30021   30030   30051   30069       4   30015   29997   30009   30027       4
   30012   29991   30009   30027       4   30009   30027   30042   30063       5
   30009   30027   30042   30066       5   30006   29988   30000   30018       4
   30003   29982   30000   30018       4   30003   30021   30030   30054       4
   30003   30024   30036   30057       4   29997   30009   29991   30012       4
   29997   30009   30027   30045       8   29997   30009   30027   30048       8
   29994   29973   29991   30009       4   29994   29973   29991   30012       4
   29991   30009   29997   30015       4   29991   30009   30027   30045       8
   29991   30009   30027   30048       8   29985   29967   29982   30000       4
   29985   29967   29982   30003       4   29982   30000   29988   30006       4
   29982   30003   30021   30033       4   29982   30003   30024   30039       4
   29979   29976   29997   30015       4   29976   29961   29973   29994       4
   29970   29958   29967   29985       4   29970   29988   30000   30018       4
   29967   29982   30000   30018       4   29964   29970   29988   30006       4
   29961   29973   29991   30012       4   29961   29976   29997   30015       4
   29958   29970   29988   30006       4   29955   29961   29973   29994       4
   29952   29958   29967   29985       4   30324   30309   30321   30327       1
   30324   30309   30321   30330       1   30324   30309   30321   30333       1
   30318   30309   30321   30327       1   30318   30309   30321   30330       1
   30318   30309   30321   30333       1   30315   30306   30309   30318       1
   30315   30306   30309   30321       2   30315   30306   30309   30324       1
   30312   30306   30309   30318       1   30312   30306   30309   30321       2
   30312   30306   30309   30324       1   30306   30309   30321   30327       2
   30306   30309   30321   30330       2   30306   30309   30321   30333       2
   30303   30291   30306   30309       2   30303   30291   30306   30312       1
   30303   30291   30306   30315       1   30300   30291   30306   30309       2
   30300   30291   30306   30312       1   30300   30291   30306   30315       1
   30297   30282   30291   30300       1   30297   30282   30291   30303       1
   30297   30282   30291   30306       2   30294   30282   30291   30300       1
   30294   30282   30291   30303       1   30294   30282   30291   30306       2
   30291   30306   30309   30318       2   30291   30306   30309   30324       2
   30288   30273   30282   30291       2   30288   30273   30282   30294       1
   30288   30273   30282   30297       1   30285   30273   30282   30291       2
   30285   30273   30282   30294       1   30285   30273   30282   30297       1
   30282   30291   30306   30312       2   30282   30291   30306   30315       2
   30279   30264   30273   30282       2   30279   30264   30273   30285       1
   30279   30264   30273   30288       1   30276   30264   30273   30282       2
   30276   30264   30273   30285       1   30276   30264   30273   30288       1
   30273   30282   30291   30300       2   30273   30282   30291   30303       2
   30270   30252   30264   30273       2   30270   30252   30264   30276       1
   30270   30252   30264   30279       1   30267   30252   30264   30273       2
   30267   30252   30264   30276       1   30267   30252   30264   30279       1
   30264   30273   30282   30294       2   30264   30273   30282   30297       2
   30258   30234   30252   30264       2   30258   30234   30252   30267       1
   30258   30234   30252   30270       1   30255   30234   30252   30264       2
   30255   30234   30252   30267       1   30255   30234   30252   30270       1
   30252   30264   30273   30285       2   30252   30264   30273   30288       2
   30249   30228   30243   30261       4   30246   30222   30243   30261       4
   30240   30219   30234   30252       2   30240   30219   30234   30255       1
   30240   30219   30234   30258       1   30237   30219   30234   30252       2
   30237   30219   30234   30255       1   30237   30219   30234   30258       1
   30234   30252   30264   30276       2   30234   30252   30264   30279       2
   30231   30216   30228   30243       4   30231   30216   30228   30249       4
   30228   30243   30222   30246       4   30225   30213   30222   30243       4
   30225   30213   30222   30246       4   30222   30243   30228   30249       4
   30219   30234   30252   30267       2   30219   30234   30252   30270       2
   30216   30195   30213   30225       4   30216   30228   30243   30261       4
   30213   30195   30216   30231       4   30213   30222   30243   30261       4
   30207   30189   30201   30219       4   30204   30183   30201   30219       4
   30201   30219   30234   30255       5   30201   30219   30234   30258       5
   30198   30180   30192   30210       4   30195   30174   30192   30210       4
   30195   30213   30222   30246       4   30195   30216   30228   30249       4
   30189   30201   30183   30204       4   30189   30201   30219   30237       8
   30189   30201   30219   30240       8   30186   30165   30183   30201       4
   30186   30165   30183   30204       4   30183   30201   30189   30207       4
   30183   30201   30219   30237       8   30183   30201   30219   30240       8
   30177   30159   30174   30192       4   30177   30159   30174   30195       4
   30174   30192   30180   30198       4   30174   30195   30213   30225       4
   30174   30195   30216   30231       4   30171   30168   30189   30207       4
   30168   30153   30165   30186       4   30162   30150   30159   30177       4
   30162   30180   30192   30210       4   30159   30174   30192   30210       4
   30156   30162   30180   30198       4   30153   30165   30183   30204       4
   30153   30168   30189   30207       4   30150   30162   30180   30198       4
   30147   30153   30165   30186       4   30144   30150   30159   30177       4
   30516   30501   30513   30519       1   30516   30501   30513   30522       1
   30516   30501   30513   30525       1   30510   30501   30513   30519       1
   30510   30501   30513   30522       1   30510   30501   30513   30525       1
   30507   30498   30501   30510       1   30507   30498   30501   30513       2
   30507   30498   30501   30516       1   30504   30498   30501   30510       1
   30504   30498   30501   30513       2   30504   30498   30501   30516       1
   30498   30501   30513   30519       2   30498   30501   30513   30522       2
   30498   30501   30513   30525       2   30495   30483   30498   30501       2
   30495   30483   30498   30504       1   30495   30483   30498   30507       1
   30492   30483   30498   30501       2   30492   30483   30498   30504       1
   30492   30483   30498   30507       1   30489   30474   30483   30492       1
   30489   30474   30483   30495       1   30489   30474   30483   30498       2
   30486   30474   30483   30492       1   30486   30474   30483   30495       1
   30486   30474   30483   30498       2   30483   30498   30501   30510       2
   30483   30498   30501   30516       2   30480   30465   30474   30483       2
   30480   30465   30474   30486       1   30480   30465   30474   30489       1
   30477   30465   30474   30483       2   30477   30465   30474   30486       1
   30477   30465   30474   30489       1   30474   30483   30498   30504       2
   30474   30483   30498   30507       2   30471   30456   30465   30474       2
   30471   30456   30465   30477       1   30471   30456   30465   30480       1
   30468   30456   30465   30474       2   30468   30456   30465   30477       1
   30468   30456   30465   30480       1   30465   30474   30483   30492       2
   30465   30474   30483   30495       2   30462   30444   30456   30465       2
   30462   30444   30456   30468       1   30462   30444   30456   30471       1
   30459   30444   30456   30465       2   30459   30444   30456   30468       1
   30459   30444   30456   30471       1   30456   30465   30474   30486       2
   30456   30465   30474   30489       2   30450   30426   30444   30456       2
   30450   30426   30444   30459       1   30450   30426   30444   30462       1
   30447   30426   30444   30456       2   30447   30426   30444   30459       1
   30447   30426   30444   30462       1   30444   30456   30465   30477       2
   30444   30456   30465   30480       2   30441   30420   30435   30453       4
   30438   30414   30435   30453       4   30432   30411   30426   30444       2
   30432   30411   30426   30447       1   30432   30411   30426   30450       1
   30429   30411   30426   30444       2   30429   30411   30426   30447       1
   30429   30411   30426   30450       1   30426   30444   30456   30468       2
   30426   30444   30456   30471       2   30423   30408   30420   30435       4
   30423   30408   30420   30441       4   30420   30435   30414   30438       4
   30417   30405   30414   30435       4   30417   30405   30414   30438       4
   30414   30435   30420   30441       4   30411   30426   30444   30459       2
   30411   30426   30444   30462       2   30408   30387   30405   30417       4
   30408   30420   30435   30453       4   30405   30387   30408   30423       4
   30405   30414   30435   30453       4   30399   30381   30393   30411       4
   30396   30375   30393   30411       4   30393   30411   30426   30447       5
   30393   30411   30426   30450       5   30390   30372   30384   30402       4
   30387   30366   30384   30402       4   30387   30405   30414   30438       4
   30387   30408   30420   30441       4   30381   30393   30375   30396       4
   30381   30393   30411   30429       8   30381   30393   30411   30432       8
   30378   30357   30375   30393       4   30378   30357   30375   30396       4
   30375   30393   30381   30399       4   30375   30393   30411   30429       8
   30375   30393   30411   30432       8   30369   30351   30366   30384       4
   30369   30351   30366   30387       4   30366   30384   30372   30390       4
   30366   30387   30405   30417       4   30366   30387   30408   30423       4
   30363   30360   30381   30399       4   30360   30345   30357   30378       4
   30354   30342   30351   30369       4   30354   30372   30384   30402       4
   30351   30366   30384   30402       4   30348   30354   30372   30390       4
   30345   30357   30375   30396       4   30345   30360   30381   30399       4
   30342   30354   30372   30390       4   30339   30345   30357   30378       4
   30336   30342   30351   30369       4   30708   30693   30705   30711       1
   30708   30693   30705   30714       1   30708   30693   30705   30717       1
   30702   30693   30705   30711       1   30702   30693   30705   30714       1
   30702   30693   30705   30717       1   30699   30690   30693   30702       1
   30699   30690   30693   30705       2   30699   30690   30693   30708       1
   30696   30690   30693   30702       1   30696   30690   30693   30705       2
   30696   30690   30693   30708       1   30690   30693   30705   30711       2
   30690   30693   30705   30714       2   30690   30693   30705   30717       2
   30687   30675   30690   30693       2   30687   30675   30690   30696       1
   30687   30675   30690   30699       1   30684   30675   30690   30693       2
   30684   30675   30690   30696       1   30684   30675   30690   30699       1
   30681   30666   30675   30684       1   30681   30666   30675   30687       1
   30681   30666   30675   30690       2   30678   30666   30675   30684       1
   30678   30666   30675   30687       1   30678   30666   30675   30690       2
   30675   30690   30693   30702       2   30675   30690   30693   30708       2
   30672   30657   30666   30675       2   30672   30657   30666   30678       1
   30672   30657   30666   30681       1   30669   30657   30666   30675       2
   30669   30657   30666   30678       1   30669   30657   30666   30681       1
   30666   30675   30690   30696       2   30666   30675   30690   30699       2
   30663   30648   30657   30666       2   30663   30648   30657   30669       1
   30663   30648   30657   30672       1   30660   30648   30657   30666       2
   30660   30648   30657   30669       1   30660   30648   30657   30672       1
   30657   30666   30675   30684       2   30657   30666   30675   30687       2
   30654   30636   30648   30657       2   30654   30636   30648   30660       1
   30654   30636   30648   30663       1   30651   30636   30648   30657       2
   30651   30636   30648   30660       1   30651   30636   30648   30663       1
   30648   30657   30666   30678       2   30648   30657   30666   30681       2
   30642   30618   30636   30648       2   30642   30618   30636   30651       1
   30642   30618   30636   30654       1   30639   30618   30636   30648       2
   30639   30618   30636   30651       1   30639   30618   30636   30654       1
   30636   30648   30657   30669       2   30636   30648   30657   30672       2
   30633   30612   30627   30645       4   30630   30606   30627   30645       4
   30624   30603   30618   30636       2   30624   30603   30618   30639       1
   30624   30603   30618   30642       1   30621   30603   30618   30636       2
   30621   30603   30618   30639       1   30621   30603   30618   30642       1
   30618   30636   30648   30660       2   30618   30636   30648   30663       2
   30615   30600   30612   30627       4   30615   30600   30612   30633       4
   30612   30627   30606   30630       4   30609   30597   30606   30627       4
   30609   30597   30606   30630       4   30606   30627   30612   30633       4
   30603   30618   30636   30651       2   30603   30618   30636   30654       2
   30600   30579   30597   30609       4   30600   30612   30627   30645       4
   30597   30579   30600   30615       4   30597   30606   30627   30645       4
   30591   30573   30585   30603       4   30588   30567   30585   30603       4
   30585   30603   30618   30639       5   30585   30603   30618   30642       5
   30582   30564   30576   30594       4   30579   30558   30576   30594       4
   30579   30597   30606   30630       4   30579   30600   30612   30633       4
   30573   30585   30567   30588       4   30573   30585   30603   30621       8
   30573   30585   30603   30624       8   30570   30549   30567   30585       4
   30570   30549   30567   30588       4   30567   30585   30573   30591       4
   30567   30585   30603   30621       8   30567   30585   30603   30624       8
   30561   30543   30558   30576       4   30561   30543   30558   30579       4
   30558   30576   30564   30582       4   30558   30579   30597   30609       4
   30558   30579   30600   30615       4   30555   30552   30573   30591       4
   30552   30537   30549   30570       4   30546   30534   30543   30561       4
   30546   30564   30576   30594       4   30543   30558   30576   30594       4
   30540   30546   30564   30582       4   30537   30549   30567   30588       4
   30537   30552   30573   30591       4   30534   30546   30564   30582       4
   30531   30537   30549   30570       4   30528   30534   30543   30561       4
   30900   30885   30897   30903       1   30900   30885   30897   30906       1
   30900   30885   30897   30909       1   30894   30885   30897   30903       1
   30894   30885   30897   30906       1   30894   30885   30897   30909       1
   30891   30882   30885   30894       1   30891   30882   30885   30897       2
   30891   30882   30885   30900       1   30888   30882   30885   30894       1
   30888   30882   30885   30897       2   30888   30882   30885   30900       1
   30882   30885   30897   30903       2   30882   30885   30897   30906       2
   30882   30885   30897   30909       2   30879   30867   30882   30885       2
   30879   30867   30882   30888       1   30879   30867   30882   30891       1
   30876   30867   30882   30885       2   30876   30867   30882   30888       1
   30876   30867   30882   30891       1   30873   30858   30867   30876       1
   30873   30858   30867   30879       1   30873   30858   30867   30882       2
   30870   30858   30867   30876       1   30870   30858   30867   30879       1
   30870   30858   30867   30882       2   30867   30882   30885   30894       2
   30867   30882   30885   30900       2   30864   30849   30858   30867       2
   30864   30849   30858   30870       1   30864   30849   30858   30873       1
   30861   30849   30858   30867       2   30861   30849   30858   30870       1
   30861   30849   30858   30873       1   30858   30867   30882   30888       2
   30858   30867   30882   30891       2   30855   30840   30849   30858       2
   30855   30840   30849   30861       1   30855   30840   30849   30864       1
   30852   30840   30849   30858       2   30852   30840   30849   30861       1
   30852   30840   30849   30864       1   30849   30858   30867   30876       2
   30849   30858   30867   30879       2   30846   30828   30840   30849       2
   30846   30828   30840   30852       1   30846   30828   30840   30855       1
   30843   30828   30840   30849       2   30843   30828   30840   30852       1
   30843   30828   30840   30855       1   30840   30849   30858   30870       2
   30840   30849   30858   30873       2   30834   30810   30828   30840       2
   30834   30810   30828   30843       1   30834   30810   30828   30846       1
   30831   30810   30828   30840       2   30831   30810   30828   30843       1
   30831   30810   30828   30846       1   30828   30840   30849   30861       2
   30828   30840   30849   30864       2   30825   30804   30819   30837       4
   30822   30798   30819   30837       4   30816   30795   30810   30828       2
   30816   30795   30810   30831       1   30816   30795   30810   30834       1
   30813   30795   30810   30828       2   30813   30795   30810   30831       1
   30813   30795   30810   30834       1   30810   30828   30840   30852       2
   30810   30828   30840   30855       2   30807   30792   30804   30819       4
   30807   30792   30804   30825       4   30804   30819   30798   30822       4
   30801   30789   30798   30819       4   30801   30789   30798   30822       4
   30798   30819   30804   30825       4   30795   30810   30828   30843       2
   30795   30810   30828   30846       2   30792   30771   30789   30801       4
   30792   30804   30819   30837       4   30789   30771   30792   30807       4
   30789   30798   30819   30837       4   30783   30765   30777   30795       4
   30780   30759   30777   30795       4   30777   30795   30810   30831       5
   30777   30795   30810   30834       5   30774   30756   30768   30786       4
   30771   30750   30768   30786       4   30771   30789   30798   30822       4
   30771   30792   30804   30825       4   30765   30777   30759   30780       4
   30765   30777   30795   30813       8   30765   30777   30795   30816       8
   30762   30741   30759   30777       4   30762   30741   30759   30780       4
   30759   30777   30765   30783       4   30759   30777   30795   30813       8
   30759   30777   30795   30816       8   30753   30735   30750   30768       4
   30753   30735   30750   30771       4   30750   30768   30756   30774       4
   30750   30771   30789   30801       4   30750   30771   30792   30807       4
   30747   30744   30765   30783       4   30744   30729   30741   30762       4
   30738   30726   30735   30753       4   30738   30756   30768   30786       4
   30735   30750   30768   30786       4   30732   30738   30756   30774       4
   30729   30741   30759   30780       4   30729   30744   30765   30783       4
   30726   30738   30756   30774       4   30723   30729   30741   30762       4
   30720   30726   30735   30753       4   31092   31077   31089   31095       1
   31092   31077   31089   31098       1   31092   31077   31089   31101       1
   31086   31077   31089   31095       1   31086   31077   31089   31098       1
   31086   31077   31089   31101       1   31083   31074   31077   31086       1
   31083   31074   31077   31089       2   31083   31074   31077   31092       1
   31080   31074   31077   31086       1   31080   31074   31077   31089       2
   31080   31074   31077   31092       1   31074   31077   31089   31095       2
   31074   31077   31089   31098       2   31074   31077   31089   31101       2
   31071   31059   31074   31077       2   31071   31059   31074   31080       1
   31071   31059   31074   31083       1   31068   31059   31074   31077       2
   31068   31059   31074   31080       1   31068   31059   31074   31083       1
   31065   31050   31059   31068       1   31065   31050   31059   31071       1
   31065   31050   31059   31074       2   31062   31050   31059   31068       1
   31062   31050   31059   31071       1   31062   31050   31059   31074       2
   31059   31074   31077   31086       2   31059   31074   31077   31092       2
   31056   31041   31050   31059       2   31056   31041   31050   31062       1
   31056   31041   31050   31065       1   31053   31041   31050   31059       2
   31053   31041   31050   31062       1   31053   31041   31050   31065       1
   31050   31059   31074   31080       2   31050   31059   31074   31083       2
   31047   31032   31041   31050       2   31047   31032   31041   31053       1
   31047   31032   31041   31056       1   31044   31032   31041   31050       2
   31044   31032   31041   31053       1   31044   31032   31041   31056       1
   31041   31050   31059   31068       2   31041   31050   31059   31071       2
   31038   31020   31032   31041       2   31038   31020   31032   31044       1
   31038   31020   31032   31047       1   31035   31020   31032   31041       2
   31035   31020   31032   31044       1   31035   31020   31032   31047       1
   31032   31041   31050   31062       2   31032   31041   31050   31065       2
   31026   31002   31020   31032       2   31026   31002   31020   31035       1
   31026   31002   31020   31038       1   31023   31002   31020   31032       2
   31023   31002   31020   31035       1   31023   31002   31020   31038       1
   31020   31032   31041   31053       2   31020   31032   31041   31056       2
   31017   30996   31011   31029       4   31014   30990   31011   31029       4
   31008   30987   31002   31020       2   31008   30987   31002   31023       1
   31008   30987   31002   31026       1   31005   30987   31002   31020       2
   31005   30987   31002   31023       1   31005   30987   31002   31026       1
   31002   31020   31032   31044       2   31002   31020   31032   31047       2
   30999   30984   30996   31011       4   30999   30984   30996   31017       4
   30996   31011   30990   31014       4   30993   30981   30990   31011       4
   30993   30981   30990   31014       4   30990   31011   30996   31017       4
   30987   31002   31020   31035       2   30987   31002   31020   31038       2
   30984   30963   30981   30993       4   30984   30996   31011   31029       4
   30981   30963   30984   30999       4   30981   30990   31011   31029       4
   30975   30957   30969   30987       4   30972   30951   30969   30987       4
   30969   30987   31002   31023       5   30969   30987   31002   31026       5
   30966   30948   30960   30978       4   30963   30942   30960   30978       4
   30963   30981   30990   31014       4   30963   30984   30996   31017       4
   30957   30969   30951   30972       4   30957   30969   30987   31005       8
   30957   30969   30987   31008       8   30954   30933   30951   30969       4
   30954   30933   30951   30972       4   30951   30969   30957   30975       4
   30951   30969   30987   31005       8   30951   30969   30987   31008       8
   30945   30927   30942   30960       4   30945   30927   30942   30963       4
   30942   30960   30948   30966       4   30942   30963   30981   30993       4
   30942   30963   30984   30999       4   30939   30936   30957   30975       4
   30936   30921   30933   30954       4   30930   30918   30927   30945       4
   30930   30948   30960   30978       4   30927   30942   30960   30978       4
   30924   30930   30948   30966       4   30921   30933   30951   30972       4
   30921   30936   30957   30975       4   30918   30930   30948   30966       4
   30915   30921   30933   30954       4   30912   30918   30927   30945       4
   31284   31269   31281   31287       1   31284   31269   31281   31290       1
   31284   31269   31281   31293       1   31278   31269   31281   31287       1
   31278   31269   31281   31290       1   31278   31269   31281   31293       1
   31275   31266   31269   31278       1   31275   31266   31269   31281       2
   31275   31266   31269   31284       1   31272   31266   31269   31278       1
   31272   31266   31269   31281       2   31272   31266   31269   31284       1
   31266   31269   31281   31287       2   31266   31269   31281   31290       2
   31266   31269   31281   31293       2   31263   31251   31266   31269       2
   31263   31251   31266   31272       1   31263   31251   31266   31275       1
   31260   31251   31266   31269       2   31260   31251   31266   31272       1
   31260   31251   31266   31275       1   31257   31242   31251   31260       1
   31257   31242   31251   31263       1   31257   31242   31251   31266       2
   31254   31242   31251   31260       1   31254   31242   31251   31263       1
   31254   31242   31251   31266       2   31251   31266   31269   31278       2
   31251   31266   31269   31284       2   31248   31233   31242   31251       2
   31248   31233   31242   31254       1   31248   31233   31242   31257       1
   31245   31233   31242   31251       2   31245   31233   31242   31254       1
   31245   31233   31242   31257       1   31242   31251   31266   31272       2
   31242   31251   31266   31275       2   31239   31224   31233   31242       2
   31239   31224   31233   31245       1   31239   31224   31233   31248       1
   31236   31224   31233   31242       2   31236   31224   31233   31245       1
   31236   31224   31233   31248       1   31233   31242   31251   31260       2
   31233   31242   31251   31263       2   31230   31212   31224   31233       2
   31230   31212   31224   31236       1   31230   31212   31224   31239       1
   31227   31212   31224   31233       2   31227   31212   31224   31236       1
   31227   31212   31224   31239       1   31224   31233   31242   31254       2
   31224   31233   31242   31257       2   31218   31194   31212   31224       2
   31218   31194   31212   31227       1   31218   31194   31212   31230       1
   31215   31194   31212   31224       2   31215   31194   31212   31227       1
   31215   31194   31212   31230       1   31212   31224   31233   31245       2
   31212   31224   31233   31248       2   31209   31188   31203   31221       4
   31206   31182   31203   31221       4   31200   31179   31194   31212       2
   31200   31179   31194   31215       1   31200   31179   31194   31218       1
   31197   31179   31194   31212       2   31197   31179   31194   31215       1
   31197   31179   31194   31218       1   31194   31212   31224   31236       2
   31194   31212   31224   31239       2   31191   31176   31188   31203       4
   31191   31176   31188   31209       4   31188   31203   31182   31206       4
   31185   31173   31182   31203       4   31185   31173   31182   31206       4
   31182   31203   31188   31209       4   31179   31194   31212   31227       2
   31179   31194   31212   31230       2   31176   31155   31173   31185       4
   31176   31188   31203   31221       4   31173   31155   31176   31191       4
   31173   31182   31203   31221       4   31167   31149   31161   31179       4
   31164   31143   31161   31179       4   31161   31179   31194   31215       5
   31161   31179   31194   31218       5   31158   31140   31152   31170       4
   31155   31134   31152   31170       4   31155   31173   31182   31206       4
   31155   31176   31188   31209       4   31149   31161   31143   31164       4
   31149   31161   31179   31197       8   31149   31161   31179   31200       8
   31146   31125   31143   31161       4   31146   31125   31143   31164       4
   31143   31161   31149   31167       4   31143   31161   31179   31197       8
   31143   31161   31179   31200       8   31137   31119   31134   31152       4
   31137   31119   31134   31155       4   31134   31152   31140   31158       4
   31134   31155   31173   31185       4   31134   31155   31176   31191       4
   31131   31128   31149   31167       4   31128   31113   31125   31146       4
   31122   31110   31119   31137       4   31122   31140   31152   31170       4
   31119   31134   31152   31170       4   31116   31122   31140   31158       4
   31113   31125   31143   31164       4   31113   31128   31149   31167       4
   31110   31122   31140   31158       4   31107   31113   31125   31146       4
   31104   31110   31119   31137       4   31476   31461   31473   31479       1
   31476   31461   31473   31482       1   31476   31461   31473   31485       1
   31470   31461   31473   31479       1   31470   31461   31473   31482       1
   31470   31461   31473   31485       1   31467   31458   31461   31470       1
   31467   31458   31461   31473       2   31467   31458   31461   31476       1
   31464   31458   31461   31470       1   31464   31458   31461   31473       2
   31464   31458   31461   31476       1   31458   31461   31473   31479       2
   31458   31461   31473   31482       2   31458   31461   31473   31485       2
   31455   31443   31458   31461       2   31455   31443   31458   31464       1
   31455   31443   31458   31467       1   31452   31443   31458   31461       2
   31452   31443   31458   31464       1   31452   31443   31458   31467       1
   31449   31434   31443   31452       1   31449   31434   31443   31455       1
   31449   31434   31443   31458       2   31446   31434   31443   31452       1
   31446   31434   31443   31455       1   31446   31434   31443   31458       2
   31443   31458   31461   31470       2   31443   31458   31461   31476       2
   31440   31425   31434   31443       2   31440   31425   31434   31446       1
   31440   31425   31434   31449       1   31437   31425   31434   31443       2
   31437   31425   31434   31446       1   31437   31425   31434   31449       1
   31434   31443   31458   31464       2   31434   31443   31458   31467       2
   31431   31416   31425   31434       2   31431   31416   31425   31437       1
   31431   31416   31425   31440       1   31428   31416   31425   31434       2
   31428   31416   31425   31437       1   31428   31416   31425   31440       1
   31425   31434   31443   31452       2   31425   31434   31443   31455       2
   31422   31404   31416   31425       2   31422   31404   31416   31428       1
   31422   31404   31416   31431       1   31419   31404   31416   31425       2
   31419   31404   31416   31428       1   31419   31404   31416   31431       1
   31416   31425   31434   31446       2   31416   31425   31434   31449       2
   31410   31386   31404   31416       2   31410   31386   31404   31419       1
   31410   31386   31404   31422       1   31407   31386   31404   31416       2
   31407   31386   31404   31419       1   31407   31386   31404   31422       1
   31404   31416   31425   31437       2   31404   31416   31425   31440       2
   31401   31380   31395   31413       4   31398   31374   31395   31413       4
   31392   31371   31386   31404       2   31392   31371   31386   31407       1
   31392   31371   31386   31410       1   31389   31371   31386   31404       2
   31389   31371   31386   31407       1   31389   31371   31386   31410       1
   31386   31404   31416   31428       2   31386   31404   31416   31431       2
   31383   31368   31380   31395       4   31383   31368   31380   31401       4
   31380   31395   31374   31398       4   31377   31365   31374   31395       4
   31377   31365   31374   31398       4   31374   31395   31380   31401       4
   31371   31386   31404   31419       2   31371   31386   31404   31422       2
   31368   31347   31365   31377       4   31368   31380   31395   31413       4
   31365   31347   31368   31383       4   31365   31374   31395   31413       4
   31359   31341   31353   31371       4   31356   31335   31353   31371       4
   31353   31371   31386   31407       5   31353   31371   31386   31410       5
   31350   31332   31344   31362       4   31347   31326   31344   31362       4
   31347   31365   31374   31398       4   31347   31368   31380   31401       4
   31341   31353   31335   31356       4   31341   31353   31371   31389       8
   31341   31353   31371   31392       8   31338   31317   31335   31353       4
   31338   31317   31335   31356       4   31335   31353   31341   31359       4
   31335   31353   31371   31389       8   31335   31353   31371   31392       8
   31329   31311   31326   31344       4   31329   31311   31326   31347       4
   31326   31344   31332   31350       4   31326   31347   31365   31377       4
   31326   31347   31368   31383       4   31323   31320   31341   31359       4
   31320   31305   31317   31338       4   31314   31302   31311   31329       4
   31314   31332   31344   31362       4   31311   31326   31344   31362       4
   31308   31314   31332   31350       4   31305   31317   31335   31356       4
   31305   31320   31341   31359       4   31302   31314   31332   31350       4
   31299   31305   31317   31338       4   31296   31302   31311   31329       4
   31668   31653   31665   31671       1   31668   31653   31665   31674       1
   31668   31653   31665   31677       1   31662   31653   31665   31671       1
   31662   31653   31665   31674       1   31662   31653   31665   31677       1
   31659   31650   31653   31662       1   31659   31650   31653   31665       2
   31659   31650   31653   31668       1   31656   31650   31653   31662       1
   31656   31650   31653   31665       2   31656   31650   31653   31668       1
   31650   31653   31665   31671       2   31650   31653   31665   31674       2
   31650   31653   31665   31677       2   31647   31635   31650   31653       2
   31647   31635   31650   31656       1   31647   31635   31650   31659       1
   31644   31635   31650   31653       2   31644   31635   31650   31656       1
   31644   31635   31650   31659       1   31641   31626   31635   31644       1
   31641   31626   31635   31647       1   31641   31626   31635   31650       2
   31638   31626   31635   31644       1   31638   31626   31635   31647       1
   31638   31626   31635   31650       2   31635   31650   31653   31662       2
   31635   31650   31653   31668       2   31632   31617   31626   31635       2
   31632   31617   31626   31638       1   31632   31617   31626   31641       1
   31629   31617   31626   31635       2   31629   31617   31626   31638       1
   31629   31617   31626   31641       1   31626   31635   31650   31656       2
   31626   31635   31650   31659       2   31623   31608   31617   31626       2
   31623   31608   31617   31629       1   31623   31608   31617   31632       1
   31620   31608   31617   31626       2   31620   31608   31617   31629       1
   31620   31608   31617   31632       1   31617   31626   31635   31644       2
   31617   31626   31635   31647       2   31614   31596   31608   31617       2
   31614   31596   31608   31620       1   31614   31596   31608   31623       1
   31611   31596   31608   31617       2   31611   31596   31608   31620       1
   31611   31596   31608   31623       1   31608   31617   31626   31638       2
   31608   31617   31626   31641       2   31602   31578   31596   31608       2
   31602   31578   31596   31611       1   31602   31578   31596   31614       1
   31599   31578   31596   31608       2   31599   31578   31596   31611       1
   31599   31578   31596   31614       1   31596   31608   31617   31629       2
   31596   31608   31617   31632       2   31593   31572   31587   31605       4
   31590   31566   31587   31605       4   31584   31563   31578   31596       2
   31584   31563   31578   31599       1   31584   31563   31578   31602       1
   31581   31563   31578   31596       2   31581   31563   31578   31599       1
   31581   31563   31578   31602       1   31578   31596   31608   31620       2
   31578   31596   31608   31623       2   31575   31560   31572   31587       4
   31575   31560   31572   31593       4   31572   31587   31566   31590       4
   31569   31557   31566   31587       4   31569   31557   31566   31590       4
   31566   31587   31572   31593       4   31563   31578   31596   31611       2
   31563   31578   31596   31614       2   31560   31539   31557   31569       4
   31560   31572   31587   31605       4   31557   31539   31560   31575       4
   31557   31566   31587   31605       4   31551   31533   31545   31563       4
   31548   31527   31545   31563       4   31545   31563   31578   31599       5
   31545   31563   31578   31602       5   31542   31524   31536   31554       4
   31539   31518   31536   31554       4   31539   31557   31566   31590       4
   31539   31560   31572   31593       4   31533   31545   31527   31548       4
   31533   31545   31563   31581       8   31533   31545   31563   31584       8
   31530   31509   31527   31545       4   31530   31509   31527   31548       4
   31527   31545   31533   31551       4   31527   31545   31563   31581       8
   31527   31545   31563   31584       8   31521   31503   31518   31536       4
   31521   31503   31518   31539       4   31518   31536   31524   31542       4
   31518   31539   31557   31569       4   31518   31539   31560   31575       4
   31515   31512   31533   31551       4   31512   31497   31509   31530       4
   31506   31494   31503   31521       4   31506   31524   31536   31554       4
   31503   31518   31536   31554       4   31500   31506   31524   31542       4
   31497   31509   31527   31548       4   31497   31512   31533   31551       4
   31494   31506   31524   31542       4   31491   31497   31509   31530       4
   31488   31494   31503   31521       4   31860   31845   31857   31863       1
   31860   31845   31857   31866       1   31860   31845   31857   31869       1
   31854   31845   31857   31863       1   31854   31845   31857   31866       1
   31854   31845   31857   31869       1   31851   31842   31845   31854       1
   31851   31842   31845   31857       2   31851   31842   31845   31860       1
   31848   31842   31845   31854       1   31848   31842   31845   31857       2
   31848   31842   31845   31860       1   31842   31845   31857   31863       2
   31842   31845   31857   31866       2   31842   31845   31857   31869       2
   31839   31827   31842   31845       2   31839   31827   31842   31848       1
   31839   31827   31842   31851       1   31836   31827   31842   31845       2
   31836   31827   31842   31848       1   31836   31827   31842   31851       1
   31833   31818   31827   31836       1   31833   31818   31827   31839       1
   31833   31818   31827   31842       2   31830   31818   31827   31836       1
   31830   31818   31827   31839       1   31830   31818   31827   31842       2
   31827   31842   31845   31854       2   31827   31842   31845   31860       2
   31824   31809   31818   31827       2   31824   31809   31818   31830       1
   31824   31809   31818   31833       1   31821   31809   31818   31827       2
   31821   31809   31818   31830       1   31821   31809   31818   31833       1
   31818   31827   31842   31848       2   31818   31827   31842   31851       2
   31815   31800   31809   31818       2   31815   31800   31809   31821       1
   31815   31800   31809   31824       1   31812   31800   31809   31818       2
   31812   31800   31809   31821       1   31812   31800   31809   31824       1
   31809   31818   31827   31836       2   31809   31818   31827   31839       2
   31806   31788   31800   31809       2   31806   31788   31800   31812       1
   31806   31788   31800   31815       1   31803   31788   31800   31809       2
   31803   31788   31800   31812       1   31803   31788   31800   31815       1
   31800   31809   31818   31830       2   31800   31809   31818   31833       2
   31794   31770   31788   31800       2   31794   31770   31788   31803       1
   31794   31770   31788   31806       1   31791   31770   31788   31800       2
   31791   31770   31788   31803       1   31791   31770   31788   31806       1
   31788   31800   31809   31821       2   31788   31800   31809   31824       2
   31785   31764   31779   31797       4   31782   31758   31779   31797       4
   31776   31755   31770   31788       2   31776   31755   31770   31791       1
   31776   31755   31770   31794       1   31773   31755   31770   31788       2
   31773   31755   31770   31791       1   31773   31755   31770   31794       1
   31770   31788   31800   31812       2   31770   31788   31800   31815       2
   31767   31752   31764   31779       4   31767   31752   31764   31785       4
   31764   31779   31758   31782       4   31761   31749   31758   31779       4
   31761   31749   31758   31782       4   31758   31779   31764   31785       4
   31755   31770   31788   31803       2   31755   31770   31788   31806       2
   31752   31731   31749   31761       4   31752   31764   31779   31797       4
   31749   31731   31752   31767       4   31749   31758   31779   31797       4
   31743   31725   31737   31755       4   31740   31719   31737   31755       4
   31737   31755   31770   31791       5   31737   31755   31770   31794       5
   31734   31716   31728   31746       4   31731   31710   31728   31746       4
   31731   31749   31758   31782       4   31731   31752   31764   31785       4
   31725   31737   31719   31740       4   31725   31737   31755   31773       8
   31725   31737   31755   31776       8   31722   31701   31719   31737       4
   31722   31701   31719   31740       4   31719   31737   31725   31743       4
   31719   31737   31755   31773       8   31719   31737   31755   31776       8
   31713   31695   31710   31728       4   31713   31695   31710   31731       4
   31710   31728   31716   31734       4   31710   31731   31749   31761       4
   31710   31731   31752   31767       4   31707   31704   31725   31743       4
   31704   31689   31701   31722       4   31698   31686   31695   31713       4
   31698   31716   31728   31746       4   31695   31710   31728   31746       4
   31692   31698   31716   31734       4   31689   31701   31719   31740       4
   31689   31704   31725   31743       4   31686   31698   31716   31734       4
   31683   31689   31701   31722       4   31680   31686   31695   31713       4
   32052   32037   32049   32055       1   32052   32037   32049   32058       1
   32052   32037   32049   32061       1   32046   32037   32049   32055       1
   32046   32037   32049   32058       1   32046   32037   32049   32061       1
   32043   32034   32037   32046       1   32043   32034   32037   32049       2
   32043   32034   32037   32052       1   32040   32034   32037   32046       1
   32040   32034   32037   32049       2   32040   32034   32037   32052       1
   32034   32037   32049   32055       2   32034   32037   32049   32058       2
   32034   32037   32049   32061       2   32031   32019   32034   32037       2
   32031   32019   32034   32040       1   32031   32019   32034   32043       1
   32028   32019   32034   32037       2   32028   32019   32034   32040       1
   32028   32019   32034   32043       1   32025   32010   32019   32028       1
   32025   32010   32019   32031       1   32025   32010   32019   32034       2
   32022   32010   32019   32028       1   32022   32010   32019   32031       1
   32022   32010   32019   32034       2   32019   32034   32037   32046       2
   32019   32034   32037   32052       2   32016   32001   32010   32019       2
   32016   32001   32010   32022       1   32016   32001   32010   32025       1
   32013   32001   32010   32019       2   32013   32001   32010   32022       1
   32013   32001   32010   32025       1   32010   32019   32034   32040       2
   32010   32019   32034   32043       2   32007   31992   32001   32010       2
   32007   31992   32001   32013       1   32007   31992   32001   32016       1
   32004   31992   32001   32010       2   32004   31992   32001   32013       1
   32004   31992   32001   32016       1   32001   32010   32019   32028       2
   32001   32010   32019   32031       2   31998   31980   31992   32001       2
   31998   31980   31992   32004       1   31998   31980   31992   32007       1
   31995   31980   31992   32001       2   31995   31980   31992   32004       1
   31995   31980   31992   32007       1   31992   32001   32010   32022       2
   31992   32001   32010   32025       2   31986   31962   31980   31992       2
   31986   31962   31980   31995       1   31986   31962   31980   31998       1
   31983   31962   31980   31992       2   31983   31962   31980   31995       1
   31983   31962   31980   31998       1   31980   31992   32001   32013       2
   31980   31992   32001   32016       2   31977   31956   31971   31989       4
   31974   31950   31971   31989       4   31968   31947   31962   31980       2
   31968   31947   31962   31983       1   31968   31947   31962   31986       1
   31965   31947   31962   31980       2   31965   31947   31962   31983       1
   31965   31947   31962   31986       1   31962   31980   31992   32004       2
   31962   31980   31992   32007       2   31959   31944   31956   31971       4
   31959   31944   31956   31977       4   31956   31971   31950   31974       4
   31953   31941   31950   31971       4   31953   31941   31950   31974       4
   31950   31971   31956   31977       4   31947   31962   31980   31995       2
   31947   31962   31980   31998       2   31944   31923   31941   31953       4
   31944   31956   31971   31989       4   31941   31923   31944   31959       4
   31941   31950   31971   31989       4   31935   31917   31929   31947       4
   31932   31911   31929   31947       4   31929   31947   31962   31983       5
   31929   31947   31962   31986       5   31926   31908   31920   31938       4
   31923   31902   31920   31938       4   31923   31941   31950   31974       4
   31923   31944   31956   31977       4   31917   31929   31911   31932       4
   31917   31929   31947   31965       8   31917   31929   31947   31968       8
   31914   31893   31911   31929       4   31914   31893   31911   31932       4
   31911   31929   31917   31935       4   31911   31929   31947   31965       8
   31911   31929   31947   31968       8   31905   31887   31902   31920       4
   31905   31887   31902   31923       4   31902   31920   31908   31926       4
   31902   31923   31941   31953       4   31902   31923   31944   31959       4
   31899   31896   31917   31935       4   31896   31881   31893   31914       4
   31890   31878   31887   31905       4   31890   31908   31920   31938       4
   31887   31902   31920   31938       4   31884   31890   31908   31926       4
   31881   31893   31911   31932       4   31881   31896   31917   31935       4
   31878   31890   31908   31926       4   31875   31881   31893   31914       4
   31872   31878   31887   31905       4   32244   32229   32241   32247       1
   32244   32229   32241   32250       1   32244   32229   32241   32253       1
   32238   32229   32241   32247       1   32238   32229   32241   32250       1
   32238   32229   32241   32253       1   32235   32226   32229   32238       1
   32235   32226   32229   32241       2   32235   32226   32229   32244       1
   32232   32226   32229   32238       1   32232   32226   32229   32241       2
   32232   32226   32229   32244       1   32226   32229   32241   32247       2
   32226   32229   32241   32250       2   32226   32229   32241   32253       2
   32223   32211   32226   32229       2   32223   32211   32226   32232       1
   32223   32211   32226   32235       1   32220   32211   32226   32229       2
   32220   32211   32226   32232       1   32220   32211   32226   32235       1
   32217   32202   32211   32220       1   32217   32202   32211   32223       1
   32217   32202   32211   32226       2   32214   32202   32211   32220       1
   32214   32202   32211   32223       1   32214   32202   32211   32226       2
   32211   32226   32229   32238       2   32211   32226   32229   32244       2
   32208   32193   32202   32211       2   32208   32193   32202   32214       1
   32208   32193   32202   32217       1   32205   32193   32202   32211       2
   32205   32193   32202   32214       1   32205   32193   32202   32217       1
   32202   32211   32226   32232       2   32202   32211   32226   32235       2
   32199   32184   32193   32202       2   32199   32184   32193   32205       1
   32199   32184   32193   32208       1   32196   32184   32193   32202       2
   32196   32184   32193   32205       1   32196   32184   32193   32208       1
   32193   32202   32211   32220       2   32193   32202   32211   32223       2
   32190   32172   32184   32193       2   32190   32172   32184   32196       1
   32190   32172   32184   32199       1   32187   32172   32184   32193       2
   32187   32172   32184   32196       1   32187   32172   32184   32199       1
   32184   32193   32202   32214       2   32184   32193   32202   32217       2
   32178   32154   32172   32184       2   32178   32154   32172   32187       1
   32178   32154   32172   32190       1   32175   32154   32172   32184       2
   32175   32154   32172   32187       1   32175   32154   32172   32190       1
   32172   32184   32193   32205       2   32172   32184   32193   32208       2
   32169   32148   32163   32181       4   32166   32142   32163   32181       4
   32160   32139   32154   32172       2   32160   32139   32154   32175       1
   32160   32139   32154   32178       1   32157   32139   32154   32172       2
   32157   32139   32154   32175       1   32157   32139   32154   32178       1
   32154   32172   32184   32196       2   32154   32172   32184   32199       2
   32151   32136   32148   32163       4   32151   32136   32148   32169       4
   32148   32163   32142   32166       4   32145   32133   32142   32163       4
   32145   32133   32142   32166       4   32142   32163   32148   32169       4
   32139   32154   32172   32187       2   32139   32154   32172   32190       2
   32136   32115   32133   32145       4   32136   32148   32163   32181       4
   32133   32115   32136   32151       4   32133   32142   32163   32181       4
   32127   32109   32121   32139       4   32124   32103   32121   32139       4
   32121   32139   32154   32175       5   32121   32139   32154   32178       5
   32118   32100   32112   32130       4   32115   32094   32112   32130       4
   32115   32133   32142   32166       4   32115   32136   32148   32169       4
   32109   32121   32103   32124       4   32109   32121   32139   32157       8
   32109   32121   32139   32160       8   32106   32085   32103   32121       4
   32106   32085   32103   32124       4   32103   32121   32109   32127       4
   32103   32121   32139   32157       8   32103   32121   32139   32160       8
   32097   32079   32094   32112       4   32097   32079   32094   32115       4
   32094   32112   32100   32118       4   32094   32115   32133   32145       4
   32094   32115   32136   32151       4   32091   32088   32109   32127       4
   32088   32073   32085   32106       4   32082   32070   32079   32097       4
   32082   32100   32112   32130       4   32079   32094   32112   32130       4
   32076   32082   32100   32118       4   32073   32085   32103   32124       4
   32073   32088   32109   32127       4   32070   32082   32100   32118       4
   32067   32073   32085   32106       4   32064   32070   32079   32097       4
   32436   32421   32433   32439       1   32436   32421   32433   32442       1
   32436   32421   32433   32445       1   32430   32421   32433   32439       1
   32430   32421   32433   32442       1   32430   32421   32433   32445       1
   32427   32418   32421   32430       1   32427   32418   32421   32433       2
   32427   32418   32421   32436       1   32424   32418   32421   32430       1
   32424   32418   32421   32433       2   32424   32418   32421   32436       1
   32418   32421   32433   32439       2   32418   32421   32433   32442       2
   32418   32421   32433   32445       2   32415   32403   32418   32421       2
   32415   32403   32418   32424       1   32415   32403   32418   32427       1
   32412   32403   32418   32421       2   32412   32403   32418   32424       1
   32412   32403   32418   32427       1   32409   32394   32403   32412       1
   32409   32394   32403   32415       1   32409   32394   32403   32418       2
   32406   32394   32403   32412       1   32406   32394   32403   32415       1
   32406   32394   32403   32418       2   32403   32418   32421   32430       2
   32403   32418   32421   32436       2   32400   32385   32394   32403       2
   32400   32385   32394   32406       1   32400   32385   32394   32409       1
   32397   32385   32394   32403       2   32397   32385   32394   32406       1
   32397   32385   32394   32409       1   32394   32403   32418   32424       2
   32394   32403   32418   32427       2   32391   32376   32385   32394       2
   32391   32376   32385   32397       1   32391   32376   32385   32400       1
   32388   32376   32385   32394       2   32388   32376   32385   32397       1
   32388   32376   32385   32400       1   32385   32394   32403   32412       2
   32385   32394   32403   32415       2   32382   32364   32376   32385       2
   32382   32364   32376   32388       1   32382   32364   32376   32391       1
   32379   32364   32376   32385       2   32379   32364   32376   32388       1
   32379   32364   32376   32391       1   32376   32385   32394   32406       2
   32376   32385   32394   32409       2   32370   32346   32364   32376       2
   32370   32346   32364   32379       1   32370   32346   32364   32382       1
   32367   32346   32364   32376       2   32367   32346   32364   32379       1
   32367   32346   32364   32382       1   32364   32376   32385   32397       2
   32364   32376   32385   32400       2   32361   32340   32355   32373       4
   32358   32334   32355   32373       4   32352   32331   32346   32364       2
   32352   32331   32346   32367       1   32352   32331   32346   32370       1
   32349   32331   32346   32364       2   32349   32331   32346   32367       1
   32349   32331   32346   32370       1   32346   32364   32376   32388       2
   32346   32364   32376   32391       2   32343   32328   32340   32355       4
   32343   32328   32340   32361       4   32340   32355   32334   32358       4
   32337   32325   32334   32355       4   32337   32325   32334   32358       4
   32334   32355   32340   32361       4   32331   32346   32364   32379       2
   32331   32346   32364   32382       2   32328   32307   32325   32337       4
   32328   32340   32355   32373       4   32325   32307   32328   32343       4
   32325   32334   32355   32373       4   32319   32301   32313   32331       4
   32316   32295   32313   32331       4   32313   32331   32346   32367       5
   32313   32331   32346   32370       5   32310   32292   32304   32322       4
   32307   32286   32304   32322       4   32307   32325   32334   32358       4
   32307   32328   32340   32361       4   32301   32313   32295   32316       4
   32301   32313   32331   32349       8   32301   32313   32331   32352       8
   32298   32277   32295   32313       4   32298   32277   32295   32316       4
   32295   32313   32301   32319       4   32295   32313   32331   32349       8
   32295   32313   32331   32352       8   32289   32271   32286   32304       4
   32289   32271   32286   32307       4   32286   32304   32292   32310       4
   32286   32307   32325   32337       4   32286   32307   32328   32343       4
   32283   32280   32301   32319       4   32280   32265   32277   32298       4
   32274   32262   32271   32289       4   32274   32292   32304   32322       4
   32271   32286   32304   32322       4   32268   32274   32292   32310       4
   32265   32277   32295   32316       4   32265   32280   32301   32319       4
   32262   32274   32292   32310       4   32259   32265   32277   32298       4
   32256   32262   32271   32289       4   32628   32613   32625   32631       1
   32628   32613   32625   32634       1   32628   32613   32625   32637       1
   32622   32613   32625   32631       1   32622   32613   32625   32634       1
   32622   32613   32625   32637       1   32619   32610   32613   32622       1
   32619   32610   32613   32625       2   32619   32610   32613   32628       1
   32616   32610   32613   32622       1   32616   32610   32613   32625       2
   32616   32610   32613   32628       1   32610   32613   32625   32631       2
   32610   32613   32625   32634       2   32610   32613   32625   32637       2
   32607   32595   32610   32613       2   32607   32595   32610   32616       1
   32607   32595   32610   32619       1   32604   32595   32610   32613       2
   32604   32595   32610   32616       1   32604   32595   32610   32619       1
   32601   32586   32595   32604       1   32601   32586   32595   32607       1
   32601   32586   32595   32610       2   32598   32586   32595   32604       1
   32598   32586   32595   32607       1   32598   32586   32595   32610       2
   32595   32610   32613   32622       2   32595   32610   32613   32628       2
   32592   32577   32586   32595       2   32592   32577   32586   32598       1
   32592   32577   32586   32601       1   32589   32577   32586   32595       2
   32589   32577   32586   32598       1   32589   32577   32586   32601       1
   32586   32595   32610   32616       2   32586   32595   32610   32619       2
   32583   32568   32577   32586       2   32583   32568   32577   32589       1
   32583   32568   32577   32592       1   32580   32568   32577   32586       2
   32580   32568   32577   32589       1   32580   32568   32577   32592       1
   32577   32586   32595   32604       2   32577   32586   32595   32607       2
   32574   32556   32568   32577       2   32574   32556   32568   32580       1
   32574   32556   32568   32583       1   32571   32556   32568   32577       2
   32571   32556   32568   32580       1   32571   32556   32568   32583       1
   32568   32577   32586   32598       2   32568   32577   32586   32601       2
   32562   32538   32556   32568       2   32562   32538   32556   32571       1
   32562   32538   32556   32574       1   32559   32538   32556   32568       2
   32559   32538   32556   32571       1   32559   32538   32556   32574       1
   32556   32568   32577   32589       2   32556   32568   32577   32592       2
   32553   32532   32547   32565       4   32550   32526   32547   32565       4
   32544   32523   32538   32556       2   32544   32523   32538   32559       1
   32544   32523   32538   32562       1   32541   32523   32538   32556       2
   32541   32523   32538   32559       1   32541   32523   32538   32562       1
   32538   32556   32568   32580       2   32538   32556   32568   32583       2
   32535   32520   32532   32547       4   32535   32520   32532   32553       4
   32532   32547   32526   32550       4   32529   32517   32526   32547       4
   32529   32517   32526   32550       4   32526   32547   32532   32553       4
   32523   32538   32556   32571       2   32523   32538   32556   32574       2
   32520   32499   32517   32529       4   32520   32532   32547   32565       4
   32517   32499   32520   32535       4   32517   32526   32547   32565       4
   32511   32493   32505   32523       4   32508   32487   32505   32523       4
   32505   32523   32538   32559       5   32505   32523   32538   32562       5
   32502   32484   32496   32514       4   32499   32478   32496   32514       4
   32499   32517   32526   32550       4   32499   32520   32532   32553       4
   32493   32505   32487   32508       4   32493   32505   32523   32541       8
   32493   32505   32523   32544       8   32490   32469   32487   32505       4
   32490   32469   32487   32508       4   32487   32505   32493   32511       4
   32487   32505   32523   32541       8   32487   32505   32523   32544       8
   32481   32463   32478   32496       4   32481   32463   32478   32499       4
   32478   32496   32484   32502       4   32478   32499   32517   32529       4
   32478   32499   32520   32535       4   32475   32472   32493   32511       4
   32472   32457   32469   32490       4   32466   32454   32463   32481       4
   32466   32484   32496   32514       4   32463   32478   32496   32514       4
   32460   32466   32484   32502       4   32457   32469   32487   32508       4
   32457   32472   32493   32511       4   32454   32466   32484   32502       4
   32451   32457   32469   32490       4   32448   32454   32463   32481       4
   32820   32805   32817   32823       1   32820   32805   32817   32826       1
   32820   32805   32817   32829       1   32814   32805   32817   32823       1
   32814   32805   32817   32826       1   32814   32805   32817   32829       1
   32811   32802   32805   32814       1   32811   32802   32805   32817       2
   32811   32802   32805   32820       1   32808   32802   32805   32814       1
   32808   32802   32805   32817       2   32808   32802   32805   32820       1
   32802   32805   32817   32823       2   32802   32805   32817   32826       2
   32802   32805   32817   32829       2   32799   32787   32802   32805       2
   32799   32787   32802   32808       1   32799   32787   32802   32811       1
   32796   32787   32802   32805       2   32796   32787   32802   32808       1
   32796   32787   32802   32811       1   32793   32778   32787   32796       1
   32793   32778   32787   32799       1   32793   32778   32787   32802       2
   32790   32778   32787   32796       1   32790   32778   32787   32799       1
   32790   32778   32787   32802       2   32787   32802   32805   32814       2
   32787   32802   32805   32820       2   32784   32769   32778   32787       2
   32784   32769   32778   32790       1   32784   32769   32778   32793       1
   32781   32769   32778   32787       2   32781   32769   32778   32790       1
   32781   32769   32778   32793       1   32778   32787   32802   32808       2
   32778   32787   32802   32811       2   32775   32760   32769   32778       2
   32775   32760   32769   32781       1   32775   32760   32769   32784       1
   32772   32760   32769   32778       2   32772   32760   32769   32781       1
   32772   32760   32769   32784       1   32769   32778   32787   32796       2
   32769   32778   32787   32799       2   32766   32748   32760   32769       2
   32766   32748   32760   32772       1   32766   32748   32760   32775       1
   32763   32748   32760   32769       2   32763   32748   32760   32772       1
   32763   32748   32760   32775       1   32760   32769   32778   32790       2
   32760   32769   32778   32793       2   32754   32730   32748   32760       2
   32754   32730   32748   32763       1   32754   32730   32748   32766       1
   32751   32730   32748   32760       2   32751   32730   32748   32763       1
   32751   32730   32748   32766       1   32748   32760   32769   32781       2
   32748   32760   32769   32784       2   32745   32724   32739   32757       4
   32742   32718   32739   32757       4   32736   32715   32730   32748       2
   32736   32715   32730   32751       1   32736   32715   32730   32754       1
   32733   32715   32730   32748       2   32733   32715   32730   32751       1
   32733   32715   32730   32754       1   32730   32748   32760   32772       2
   32730   32748   32760   32775       2   32727   32712   32724   32739       4
   32727   32712   32724   32745       4   32724   32739   32718   32742       4
   32721   32709   32718   32739       4   32721   32709   32718   32742       4
   32718   32739   32724   32745       4   32715   32730   32748   32763       2
   32715   32730   32748   32766       2   32712   32691   32709   32721       4
   32712   32724   32739   32757       4   32709   32691   32712   32727       4
   32709   32718   32739   32757       4   32703   32685   32697   32715       4
   32700   32679   32697   32715       4   32697   32715   32730   32751       5
   32697   32715   32730   32754       5   32694   32676   32688   32706       4
   32691   32670   32688   32706       4   32691   32709   32718   32742       4
   32691   32712   32724   32745       4   32685   32697   32679   32700       4
   32685   32697   32715   32733       8   32685   32697   32715   32736       8
   32682   32661   32679   32697       4   32682   32661   32679   32700       4
   32679   32697   32685   32703       4   32679   32697   32715   32733       8
   32679   32697   32715   32736       8   32673   32655   32670   32688       4
   32673   32655   32670   32691       4   32670   32688   32676   32694       4
   32670   32691   32709   32721       4   32670   32691   32712   32727       4
   32667   32664   32685   32703       4   32664   32649   32661   32682       4
   32658   32646   32655   32673       4   32658   32676   32688   32706       4
   32655   32670   32688   32706       4   32652   32658   32676   32694       4
   32649   32661   32679   32700       4   32649   32664   32685   32703       4
   32646   32658   32676   32694       4   32643   32649   32661   32682       4
   32640   32646   32655   32673       4   33012   32997   33009   33015       1
   33012   32997   33009   33018       1   33012   32997   33009   33021       1
   33006   32997   33009   33015       1   33006   32997   33009   33018       1
   33006   32997   33009   33021       1   33003   32994   32997   33006       1
   33003   32994   32997   33009       2   33003   32994   32997   33012       1
   33000   32994   32997   33006       1   33000   32994   32997   33009       2
   33000   32994   32997   33012       1   32994   32997   33009   33015       2
   32994   32997   33009   33018       2   32994   32997   33009   33021       2
   32991   32979   32994   32997       2   32991   32979   32994   33000       1
   32991   32979   32994   33003       1   32988   32979   32994   32997       2
   32988   32979   32994   33000       1   32988   32979   32994   33003       1
   32985   32970   32979   32988       1   32985   32970   32979   32991       1
   32985   32970   32979   32994       2   32982   32970   32979   32988       1
   32982   32970   32979   32991       1   32982   32970   32979   32994       2
   32979   32994   32997   33006       2   32979   32994   32997   33012       2
   32976   32961   32970   32979       2   32976   32961   32970   32982       1
   32976   32961   32970   32985       1   32973   32961   32970   32979       2
   32973   32961   32970   32982       1   32973   32961   32970   32985       1
   32970   32979   32994   33000       2   32970   32979   32994   33003       2
   32967   32952   32961   32970       2   32967   32952   32961   32973       1
   32967   32952   32961   32976       1   32964   32952   32961   32970       2
   32964   32952   32961   32973       1   32964   32952   32961   32976       1
   32961   32970   32979   32988       2   32961   32970   32979   32991       2
   32958   32940   32952   32961       2   32958   32940   32952   32964       1
   32958   32940   32952   32967       1   32955   32940   32952   32961       2
   32955   32940   32952   32964       1   32955   32940   32952   32967       1
   32952   32961   32970   32982       2   32952   32961   32970   32985       2
   32946   32922   32940   32952       2   32946   32922   32940   32955       1
   32946   32922   32940   32958       1   32943   32922   32940   32952       2
   32943   32922   32940   32955       1   32943   32922   32940   32958       1
   32940   32952   32961   32973       2   32940   32952   32961   32976       2
   32937   32916   32931   32949       4   32934   32910   32931   32949       4
   32928   32907   32922   32940       2   32928   32907   32922   32943       1
   32928   32907   32922   32946       1   32925   32907   32922   32940       2
   32925   32907   32922   32943       1   32925   32907   32922   32946       1
   32922   32940   32952   32964       2   32922   32940   32952   32967       2
   32919   32904   32916   32931       4   32919   32904   32916   32937       4
   32916   32931   32910   32934       4   32913   32901   32910   32931       4
   32913   32901   32910   32934       4   32910   32931   32916   32937       4
   32907   32922   32940   32955       2   32907   32922   32940   32958       2
   32904   32883   32901   32913       4   32904   32916   32931   32949       4
   32901   32883   32904   32919       4   32901   32910   32931   32949       4
   32895   32877   32889   32907       4   32892   32871   32889   32907       4
   32889   32907   32922   32943       5   32889   32907   32922   32946       5
   32886   32868   32880   32898       4   32883   32862   32880   32898       4
   32883   32901   32910   32934       4   32883   32904   32916   32937       4
   32877   32889   32871   32892       4   32877   32889   32907   32925       8
   32877   32889   32907   32928       8   32874   32853   32871   32889       4
   32874   32853   32871   32892       4   32871   32889   32877   32895       4
   32871   32889   32907   32925       8   32871   32889   32907   32928       8
   32865   32847   32862   32880       4   32865   32847   32862   32883       4
   32862   32880   32868   32886       4   32862   32883   32901   32913       4
   32862   32883   32904   32919       4   32859   32856   32877   32895       4
   32856   32841   32853   32874       4   32850   32838   32847   32865       4
   32850   32868   32880   32898       4   32847   32862   32880   32898       4
   32844   32850   32868   32886       4   32841   32853   32871   32892       4
   32841   32856   32877   32895       4   32838   32850   32868   32886       4
   32835   32841   32853   32874       4   32832   32838   32847   32865       4
   33204   33189   33201   33207       1   33204   33189   33201   33210       1
   33204   33189   33201   33213       1   33198   33189   33201   33207       1
   33198   33189   33201   33210       1   33198   33189   33201   33213       1
   33195   33186   33189   33198       1   33195   33186   33189   33201       2
   33195   33186   33189   33204       1   33192   33186   33189   33198       1
   33192   33186   33189   33201       2   33192   33186   33189   33204       1
   33186   33189   33201   33207       2   33186   33189   33201   33210       2
   33186   33189   33201   33213       2   33183   33171   33186   33189       2
   33183   33171   33186   33192       1   33183   33171   33186   33195       1
   33180   33171   33186   33189       2   33180   33171   33186   33192       1
   33180   33171   33186   33195       1   33177   33162   33171   33180       1
   33177   33162   33171   33183       1   33177   33162   33171   33186       2
   33174   33162   33171   33180       1   33174   33162   33171   33183       1
   33174   33162   33171   33186       2   33171   33186   33189   33198       2
   33171   33186   33189   33204       2   33168   33153   33162   33171       2
   33168   33153   33162   33174       1   33168   33153   33162   33177       1
   33165   33153   33162   33171       2   33165   33153   33162   33174       1
   33165   33153   33162   33177       1   33162   33171   33186   33192       2
   33162   33171   33186   33195       2   33159   33144   33153   33162       2
   33159   33144   33153   33165       1   33159   33144   33153   33168       1
   33156   33144   33153   33162       2   33156   33144   33153   33165       1
   33156   33144   33153   33168       1   33153   33162   33171   33180       2
   33153   33162   33171   33183       2   33150   33132   33144   33153       2
   33150   33132   33144   33156       1   33150   33132   33144   33159       1
   33147   33132   33144   33153       2   33147   33132   33144   33156       1
   33147   33132   33144   33159       1   33144   33153   33162   33174       2
   33144   33153   33162   33177       2   33138   33114   33132   33144       2
   33138   33114   33132   33147       1   33138   33114   33132   33150       1
   33135   33114   33132   33144       2   33135   33114   33132   33147       1
   33135   33114   33132   33150       1   33132   33144   33153   33165       2
   33132   33144   33153   33168       2   33129   33108   33123   33141       4
   33126   33102   33123   33141       4   33120   33099   33114   33132       2
   33120   33099   33114   33135       1   33120   33099   33114   33138       1
   33117   33099   33114   33132       2   33117   33099   33114   33135       1
   33117   33099   33114   33138       1   33114   33132   33144   33156       2
   33114   33132   33144   33159       2   33111   33096   33108   33123       4
   33111   33096   33108   33129       4   33108   33123   33102   33126       4
   33105   33093   33102   33123       4   33105   33093   33102   33126       4
   33102   33123   33108   33129       4   33099   33114   33132   33147       2
   33099   33114   33132   33150       2   33096   33075   33093   33105       4
   33096   33108   33123   33141       4   33093   33075   33096   33111       4
   33093   33102   33123   33141       4   33087   33069   33081   33099       4
   33084   33063   33081   33099       4   33081   33099   33114   33135       5
   33081   33099   33114   33138       5   33078   33060   33072   33090       4
   33075   33054   33072   33090       4   33075   33093   33102   33126       4
   33075   33096   33108   33129       4   33069   33081   33063   33084       4
   33069   33081   33099   33117       8   33069   33081   33099   33120       8
   33066   33045   33063   33081       4   33066   33045   33063   33084       4
   33063   33081   33069   33087       4   33063   33081   33099   33117       8
   33063   33081   33099   33120       8   33057   33039   33054   33072       4
   33057   33039   33054   33075       4   33054   33072   33060   33078       4
   33054   33075   33093   33105       4   33054   33075   33096   33111       4
   33051   33048   33069   33087       4   33048   33033   33045   33066       4
   33042   33030   33039   33057       4   33042   33060   33072   33090       4
   33039   33054   33072   33090       4   33036   33042   33060   33078       4
   33033   33045   33063   33084       4   33033   33048   33069   33087       4
   33030   33042   33060   33078       4   33027   33033   33045   33066       4
   33024   33030   33039   33057       4   33396   33381   33393   33399       1
   33396   33381   33393   33402       1   33396   33381   33393   33405       1
   33390   33381   33393   33399       1   33390   33381   33393   33402       1
   33390   33381   33393   33405       1   33387   33378   33381   33390       1
   33387   33378   33381   33393       2   33387   33378   33381   33396       1
   33384   33378   33381   33390       1   33384   33378   33381   33393       2
   33384   33378   33381   33396       1   33378   33381   33393   33399       2
   33378   33381   33393   33402       2   33378   33381   33393   33405       2
   33375   33363   33378   33381       2   33375   33363   33378   33384       1
   33375   33363   33378   33387       1   33372   33363   33378   33381       2
   33372   33363   33378   33384       1   33372   33363   33378   33387       1
   33369   33354   33363   33372       1   33369   33354   33363   33375       1
   33369   33354   33363   33378       2   33366   33354   33363   33372       1
   33366   33354   33363   33375       1   33366   33354   33363   33378       2
   33363   33378   33381   33390       2   33363   33378   33381   33396       2
   33360   33345   33354   33363       2   33360   33345   33354   33366       1
   33360   33345   33354   33369       1   33357   33345   33354   33363       2
   33357   33345   33354   33366       1   33357   33345   33354   33369       1
   33354   33363   33378   33384       2   33354   33363   33378   33387       2
   33351   33336   33345   33354       2   33351   33336   33345   33357       1
   33351   33336   33345   33360       1   33348   33336   33345   33354       2
   33348   33336   33345   33357       1   33348   33336   33345   33360       1
   33345   33354   33363   33372       2   33345   33354   33363   33375       2
   33342   33324   33336   33345       2   33342   33324   33336   33348       1
   33342   33324   33336   33351       1   33339   33324   33336   33345       2
   33339   33324   33336   33348       1   33339   33324   33336   33351       1
   33336   33345   33354   33366       2   33336   33345   33354   33369       2
   33330   33306   33324   33336       2   33330   33306   33324   33339       1
   33330   33306   33324   33342       1   33327   33306   33324   33336       2
   33327   33306   33324   33339       1   33327   33306   33324   33342       1
   33324   33336   33345   33357       2   33324   33336   33345   33360       2
   33321   33300   33315   33333       4   33318   33294   33315   33333       4
   33312   33291   33306   33324       2   33312   33291   33306   33327       1
   33312   33291   33306   33330       1   33309   33291   33306   33324       2
   33309   33291   33306   33327       1   33309   33291   33306   33330       1
   33306   33324   33336   33348       2   33306   33324   33336   33351       2
   33303   33288   33300   33315       4   33303   33288   33300   33321       4
   33300   33315   33294   33318       4   33297   33285   33294   33315       4
   33297   33285   33294   33318       4   33294   33315   33300   33321       4
   33291   33306   33324   33339       2   33291   33306   33324   33342       2
   33288   33267   33285   33297       4   33288   33300   33315   33333       4
   33285   33267   33288   33303       4   33285   33294   33315   33333       4
   33279   33261   33273   33291       4   33276   33255   33273   33291       4
   33273   33291   33306   33327       5   33273   33291   33306   33330       5
   33270   33252   33264   33282       4   33267   33246   33264   33282       4
   33267   33285   33294   33318       4   33267   33288   33300   33321       4
   33261   33273   33255   33276       4   33261   33273   33291   33309       8
   33261   33273   33291   33312       8   33258   33237   33255   33273       4
   33258   33237   33255   33276       4   33255   33273   33261   33279       4
   33255   33273   33291   33309       8   33255   33273   33291   33312       8
   33249   33231   33246   33264       4   33249   33231   33246   33267       4
   33246   33264   33252   33270       4   33246   33267   33285   33297       4
   33246   33267   33288   33303       4   33243   33240   33261   33279       4
   33240   33225   33237   33258       4   33234   33222   33231   33249       4
   33234   33252   33264   33282       4   33231   33246   33264   33282       4
   33228   33234   33252   33270       4   33225   33237   33255   33276       4
   33225   33240   33261   33279       4   33222   33234   33252   33270       4
   33219   33225   33237   33258       4   33216   33222   33231   33249       4
   33588   33573   33585   33591       1   33588   33573   33585   33594       1
   33588   33573   33585   33597       1   33582   33573   33585   33591       1
   33582   33573   33585   33594       1   33582   33573   33585   33597       1
   33579   33570   33573   33582       1   33579   33570   33573   33585       2
   33579   33570   33573   33588       1   33576   33570   33573   33582       1
   33576   33570   33573   33585       2   33576   33570   33573   33588       1
   33570   33573   33585   33591       2   33570   33573   33585   33594       2
   33570   33573   33585   33597       2   33567   33555   33570   33573       2
   33567   33555   33570   33576       1   33567   33555   33570   33579       1
   33564   33555   33570   33573       2   33564   33555   33570   33576       1
   33564   33555   33570   33579       1   33561   33546   33555   33564       1
   33561   33546   33555   33567       1   33561   33546   33555   33570       2
   33558   33546   33555   33564       1   33558   33546   33555   33567       1
   33558   33546   33555   33570       2   33555   33570   33573   33582       2
   33555   33570   33573   33588       2   33552   33537   33546   33555       2
   33552   33537   33546   33558       1   33552   33537   33546   33561       1
   33549   33537   33546   33555       2   33549   33537   33546   33558       1
   33549   33537   33546   33561       1   33546   33555   33570   33576       2
   33546   33555   33570   33579       2   33543   33528   33537   33546       2
   33543   33528   33537   33549       1   33543   33528   33537   33552       1
   33540   33528   33537   33546       2   33540   33528   33537   33549       1
   33540   33528   33537   33552       1   33537   33546   33555   33564       2
   33537   33546   33555   33567       2   33534   33516   33528   33537       2
   33534   33516   33528   33540       1   33534   33516   33528   33543       1
   33531   33516   33528   33537       2   33531   33516   33528   33540       1
   33531   33516   33528   33543       1   33528   33537   33546   33558       2
   33528   33537   33546   33561       2   33522   33498   33516   33528       2
   33522   33498   33516   33531       1   33522   33498   33516   33534       1
   33519   33498   33516   33528       2   33519   33498   33516   33531       1
   33519   33498   33516   33534       1   33516   33528   33537   33549       2
   33516   33528   33537   33552       2   33513   33492   33507   33525       4
   33510   33486   33507   33525       4   33504   33483   33498   33516       2
   33504   33483   33498   33519       1   33504   33483   33498   33522       1
   33501   33483   33498   33516       2   33501   33483   33498   33519       1
   33501   33483   33498   33522       1   33498   33516   33528   33540       2
   33498   33516   33528   33543       2   33495   33480   33492   33507       4
   33495   33480   33492   33513       4   33492   33507   33486   33510       4
   33489   33477   33486   33507       4   33489   33477   33486   33510       4
   33486   33507   33492   33513       4   33483   33498   33516   33531       2
   33483   33498   33516   33534       2   33480   33459   33477   33489       4
   33480   33492   33507   33525       4   33477   33459   33480   33495       4
   33477   33486   33507   33525       4   33471   33453   33465   33483       4
   33468   33447   33465   33483       4   33465   33483   33498   33519       5
   33465   33483   33498   33522       5   33462   33444   33456   33474       4
   33459   33438   33456   33474       4   33459   33477   33486   33510       4
   33459   33480   33492   33513       4   33453   33465   33447   33468       4
   33453   33465   33483   33501       8   33453   33465   33483   33504       8
   33450   33429   33447   33465       4   33450   33429   33447   33468       4
   33447   33465   33453   33471       4   33447   33465   33483   33501       8
   33447   33465   33483   33504       8   33441   33423   33438   33456       4
   33441   33423   33438   33459       4   33438   33456   33444   33462       4
   33438   33459   33477   33489       4   33438   33459   33480   33495       4
   33435   33432   33453   33471       4   33432   33417   33429   33450       4
   33426   33414   33423   33441       4   33426   33444   33456   33474       4
   33423   33438   33456   33474       4   33420   33426   33444   33462       4
   33417   33429   33447   33468       4   33417   33432   33453   33471       4
   33414   33426   33444   33462       4   33411   33417   33429   33450       4
   33408   33414   33423   33441       4   33780   33765   33777   33783       1
   33780   33765   33777   33786       1   33780   33765   33777   33789       1
   33774   33765   33777   33783       1   33774   33765   33777   33786       1
   33774   33765   33777   33789       1   33771   33762   33765   33774       1
   33771   33762   33765   33777       2   33771   33762   33765   33780       1
   33768   33762   33765   33774       1   33768   33762   33765   33777       2
   33768   33762   33765   33780       1   33762   33765   33777   33783       2
   33762   33765   33777   33786       2   33762   33765   33777   33789       2
   33759   33747   33762   33765       2   33759   33747   33762   33768       1
   33759   33747   33762   33771       1   33756   33747   33762   33765       2
   33756   33747   33762   33768       1   33756   33747   33762   33771       1
   33753   33738   33747   33756       1   33753   33738   33747   33759       1
   33753   33738   33747   33762       2   33750   33738   33747   33756       1
   33750   33738   33747   33759       1   33750   33738   33747   33762       2
   33747   33762   33765   33774       2   33747   33762   33765   33780       2
   33744   33729   33738   33747       2   33744   33729   33738   33750       1
   33744   33729   33738   33753       1   33741   33729   33738   33747       2
   33741   33729   33738   33750       1   33741   33729   33738   33753       1
   33738   33747   33762   33768       2   33738   33747   33762   33771       2
   33735   33720   33729   33738       2   33735   33720   33729   33741       1
   33735   33720   33729   33744       1   33732   33720   33729   33738       2
   33732   33720   33729   33741       1   33732   33720   33729   33744       1
   33729   33738   33747   33756       2   33729   33738   33747   33759       2
   33726   33708   33720   33729       2   33726   33708   33720   33732       1
   33726   33708   33720   33735       1   33723   33708   33720   33729       2
   33723   33708   33720   33732       1   33723   33708   33720   33735       1
   33720   33729   33738   33750       2   33720   33729   33738   33753       2
   33714   33690   33708   33720       2   33714   33690   33708   33723       1
   33714   33690   33708   33726       1   33711   33690   33708   33720       2
   33711   33690   33708   33723       1   33711   33690   33708   33726       1
   33708   33720   33729   33741       2   33708   33720   33729   33744       2
   33705   33684   33699   33717       4   33702   33678   33699   33717       4
   33696   33675   33690   33708       2   33696   33675   33690   33711       1
   33696   33675   33690   33714       1   33693   33675   33690   33708       2
   33693   33675   33690   33711       1   33693   33675   33690   33714       1
   33690   33708   33720   33732       2   33690   33708   33720   33735       2
   33687   33672   33684   33699       4   33687   33672   33684   33705       4
   33684   33699   33678   33702       4   33681   33669   33678   33699       4
   33681   33669   33678   33702       4   33678   33699   33684   33705       4
   33675   33690   33708   33723       2   33675   33690   33708   33726       2
   33672   33651   33669   33681       4   33672   33684   33699   33717       4
   33669   33651   33672   33687       4   33669   33678   33699   33717       4
   33663   33645   33657   33675       4   33660   33639   33657   33675       4
   33657   33675   33690   33711       5   33657   33675   33690   33714       5
   33654   33636   33648   33666       4   33651   33630   33648   33666       4
   33651   33669   33678   33702       4   33651   33672   33684   33705       4
   33645   33657   33639   33660       4   33645   33657   33675   33693       8
   33645   33657   33675   33696       8   33642   33621   33639   33657       4
   33642   33621   33639   33660       4   33639   33657   33645   33663       4
   33639   33657   33675   33693       8   33639   33657   33675   33696       8
   33633   33615   33630   33648       4   33633   33615   33630   33651       4
   33630   33648   33636   33654       4   33630   33651   33669   33681       4
   33630   33651   33672   33687       4   33627   33624   33645   33663       4
   33624   33609   33621   33642       4   33618   33606   33615   33633       4
   33618   33636   33648   33666       4   33615   33630   33648   33666       4
   33612   33618   33636   33654       4   33609   33621   33639   33660       4
   33609   33624   33645   33663       4   33606   33618   33636   33654       4
   33603   33609   33621   33642       4   33600   33606   33615   33633       4
   33972   33957   33969   33975       1   33972   33957   33969   33978       1
   33972   33957   33969   33981       1   33966   33957   33969   33975       1
   33966   33957   33969   33978       1   33966   33957   33969   33981       1
   33963   33954   33957   33966       1   33963   33954   33957   33969       2
   33963   33954   33957   33972       1   33960   33954   33957   33966       1
   33960   33954   33957   33969       2   33960   33954   33957   33972       1
   33954   33957   33969   33975       2   33954   33957   33969   33978       2
   33954   33957   33969   33981       2   33951   33939   33954   33957       2
   33951   33939   33954   33960       1   33951   33939   33954   33963       1
   33948   33939   33954   33957       2   33948   33939   33954   33960       1
   33948   33939   33954   33963       1   33945   33930   33939   33948       1
   33945   33930   33939   33951       1   33945   33930   33939   33954       2
   33942   33930   33939   33948       1   33942   33930   33939   33951       1
   33942   33930   33939   33954       2   33939   33954   33957   33966       2
   33939   33954   33957   33972       2   33936   33921   33930   33939       2
   33936   33921   33930   33942       1   33936   33921   33930   33945       1
   33933   33921   33930   33939       2   33933   33921   33930   33942       1
   33933   33921   33930   33945       1   33930   33939   33954   33960       2
   33930   33939   33954   33963       2   33927   33912   33921   33930       2
   33927   33912   33921   33933       1   33927   33912   33921   33936       1
   33924   33912   33921   33930       2   33924   33912   33921   33933       1
   33924   33912   33921   33936       1   33921   33930   33939   33948       2
   33921   33930   33939   33951       2   33918   33900   33912   33921       2
   33918   33900   33912   33924       1   33918   33900   33912   33927       1
   33915   33900   33912   33921       2   33915   33900   33912   33924       1
   33915   33900   33912   33927       1   33912   33921   33930   33942       2
   33912   33921   33930   33945       2   33906   33882   33900   33912       2
   33906   33882   33900   33915       1   33906   33882   33900   33918       1
   33903   33882   33900   33912       2   33903   33882   33900   33915       1
   33903   33882   33900   33918       1   33900   33912   33921   33933       2
   33900   33912   33921   33936       2   33897   33876   33891   33909       4
   33894   33870   33891   33909       4   33888   33867   33882   33900       2
   33888   33867   33882   33903       1   33888   33867   33882   33906       1
   33885   33867   33882   33900       2   33885   33867   33882   33903       1
   33885   33867   33882   33906       1   33882   33900   33912   33924       2
   33882   33900   33912   33927       2   33879   33864   33876   33891       4
   33879   33864   33876   33897       4   33876   33891   33870   33894       4
   33873   33861   33870   33891       4   33873   33861   33870   33894       4
   33870   33891   33876   33897       4   33867   33882   33900   33915       2
   33867   33882   33900   33918       2   33864   33843   33861   33873       4
   33864   33876   33891   33909       4   33861   33843   33864   33879       4
   33861   33870   33891   33909       4   33855   33837   33849   33867       4
   33852   33831   33849   33867       4   33849   33867   33882   33903       5
   33849   33867   33882   33906       5   33846   33828   33840   33858       4
   33843   33822   33840   33858       4   33843   33861   33870   33894       4
   33843   33864   33876   33897       4   33837   33849   33831   33852       4
   33837   33849   33867   33885       8   33837   33849   33867   33888       8
   33834   33813   33831   33849       4   33834   33813   33831   33852       4
   33831   33849   33837   33855       4   33831   33849   33867   33885       8
   33831   33849   33867   33888       8   33825   33807   33822   33840       4
   33825   33807   33822   33843       4   33822   33840   33828   33846       4
   33822   33843   33861   33873       4   33822   33843   33864   33879       4
   33819   33816   33837   33855       4   33816   33801   33813   33834       4
   33810   33798   33807   33825       4   33810   33828   33840   33858       4
   33807   33822   33840   33858       4   33804   33810   33828   33846       4
   33801   33813   33831   33852       4   33801   33816   33837   33855       4
   33798   33810   33828   33846       4   33795   33801   33813   33834       4
   33792   33798   33807   33825       4   34164   34149   34161   34167       1
   34164   34149   34161   34170       1   34164   34149   34161   34173       1
   34158   34149   34161   34167       1   34158   34149   34161   34170       1
   34158   34149   34161   34173       1   34155   34146   34149   34158       1
   34155   34146   34149   34161       2   34155   34146   34149   34164       1
   34152   34146   34149   34158       1   34152   34146   34149   34161       2
   34152   34146   34149   34164       1   34146   34149   34161   34167       2
   34146   34149   34161   34170       2   34146   34149   34161   34173       2
   34143   34131   34146   34149       2   34143   34131   34146   34152       1
   34143   34131   34146   34155       1   34140   34131   34146   34149       2
   34140   34131   34146   34152       1   34140   34131   34146   34155       1
   34137   34122   34131   34140       1   34137   34122   34131   34143       1
   34137   34122   34131   34146       2   34134   34122   34131   34140       1
   34134   34122   34131   34143       1   34134   34122   34131   34146       2
   34131   34146   34149   34158       2   34131   34146   34149   34164       2
   34128   34113   34122   34131       2   34128   34113   34122   34134       1
   34128   34113   34122   34137       1   34125   34113   34122   34131       2
   34125   34113   34122   34134       1   34125   34113   34122   34137       1
   34122   34131   34146   34152       2   34122   34131   34146   34155       2
   34119   34104   34113   34122       2   34119   34104   34113   34125       1
   34119   34104   34113   34128       1   34116   34104   34113   34122       2
   34116   34104   34113   34125       1   34116   34104   34113   34128       1
   34113   34122   34131   34140       2   34113   34122   34131   34143       2
   34110   34092   34104   34113       2   34110   34092   34104   34116       1
   34110   34092   34104   34119       1   34107   34092   34104   34113       2
   34107   34092   34104   34116       1   34107   34092   34104   34119       1
   34104   34113   34122   34134       2   34104   34113   34122   34137       2
   34098   34074   34092   34104       2   34098   34074   34092   34107       1
   34098   34074   34092   34110       1   34095   34074   34092   34104       2
   34095   34074   34092   34107       1   34095   34074   34092   34110       1
   34092   34104   34113   34125       2   34092   34104   34113   34128       2
   34089   34068   34083   34101       4   34086   34062   34083   34101       4
   34080   34059   34074   34092       2   34080   34059   34074   34095       1
   34080   34059   34074   34098       1   34077   34059   34074   34092       2
   34077   34059   34074   34095       1   34077   34059   34074   34098       1
   34074   34092   34104   34116       2   34074   34092   34104   34119       2
   34071   34056   34068   34083       4   34071   34056   34068   34089       4
   34068   34083   34062   34086       4   34065   34053   34062   34083       4
   34065   34053   34062   34086       4   34062   34083   34068   34089       4
   34059   34074   34092   34107       2   34059   34074   34092   34110       2
   34056   34035   34053   34065       4   34056   34068   34083   34101       4
   34053   34035   34056   34071       4   34053   34062   34083   34101       4
   34047   34029   34041   34059       4   34044   34023   34041   34059       4
   34041   34059   34074   34095       5   34041   34059   34074   34098       5
   34038   34020   34032   34050       4   34035   34014   34032   34050       4
   34035   34053   34062   34086       4   34035   34056   34068   34089       4
   34029   34041   34023   34044       4   34029   34041   34059   34077       8
   34029   34041   34059   34080       8   34026   34005   34023   34041       4
   34026   34005   34023   34044       4   34023   34041   34029   34047       4
   34023   34041   34059   34077       8   34023   34041   34059   34080       8
   34017   33999   34014   34032       4   34017   33999   34014   34035       4
   34014   34032   34020   34038       4   34014   34035   34053   34065       4
   34014   34035   34056   34071       4   34011   34008   34029   34047       4
   34008   33993   34005   34026       4   34002   33990   33999   34017       4
   34002   34020   34032   34050       4   33999   34014   34032   34050       4
   33996   34002   34020   34038       4   33993   34005   34023   34044       4
   33993   34008   34029   34047       4   33990   34002   34020   34038       4
   33987   33993   34005   34026       4   33984   33990   33999   34017       4
   34356   34341   34353   34359       1   34356   34341   34353   34362       1
   34356   34341   34353   34365       1   34350   34341   34353   34359       1
   34350   34341   34353   34362       1   34350   34341   34353   34365       1
   34347   34338   34341   34350       1   34347   34338   34341   34353       2
   34347   34338   34341   34356       1   34344   34338   34341   34350       1
   34344   34338   34341   34353       2   34344   34338   34341   34356       1
   34338   34341   34353   34359       2   34338   34341   34353   34362       2
   34338   34341   34353   34365       2   34335   34323   34338   34341       2
   34335   34323   34338   34344       1   34335   34323   34338   34347       1
   34332   34323   34338   34341       2   34332   34323   34338   34344       1
   34332   34323   34338   34347       1   34329   34314   34323   34332       1
   34329   34314   34323   34335       1   34329   34314   34323   34338       2
   34326   34314   34323   34332       1   34326   34314   34323   34335       1
   34326   34314   34323   34338       2   34323   34338   34341   34350       2
   34323   34338   34341   34356       2   34320   34305   34314   34323       2
   34320   34305   34314   34326       1   34320   34305   34314   34329       1
   34317   34305   34314   34323       2   34317   34305   34314   34326       1
   34317   34305   34314   34329       1   34314   34323   34338   34344       2
   34314   34323   34338   34347       2   34311   34296   34305   34314       2
   34311   34296   34305   34317       1   34311   34296   34305   34320       1
   34308   34296   34305   34314       2   34308   34296   34305   34317       1
   34308   34296   34305   34320       1   34305   34314   34323   34332       2
   34305   34314   34323   34335       2   34302   34284   34296   34305       2
   34302   34284   34296   34308       1   34302   34284   34296   34311       1
   34299   34284   34296   34305       2   34299   34284   34296   34308       1
   34299   34284   34296   34311       1   34296   34305   34314   34326       2
   34296   34305   34314   34329       2   34290   34266   34284   34296       2
   34290   34266   34284   34299       1   34290   34266   34284   34302       1
   34287   34266   34284   34296       2   34287   34266   34284   34299       1
   34287   34266   34284   34302       1   34284   34296   34305   34317       2
   34284   34296   34305   34320       2   34281   34260   34275   34293       4
   34278   34254   34275   34293       4   34272   34251   34266   34284       2
   34272   34251   34266   34287       1   34272   34251   34266   34290       1
   34269   34251   34266   34284       2   34269   34251   34266   34287       1
   34269   34251   34266   34290       1   34266   34284   34296   34308       2
   34266   34284   34296   34311       2   34263   34248   34260   34275       4
   34263   34248   34260   34281       4   34260   34275   34254   34278       4
   34257   34245   34254   34275       4   34257   34245   34254   34278       4
   34254   34275   34260   34281       4   34251   34266   34284   34299       2
   34251   34266   34284   34302       2   34248   34227   34245   34257       4
   34248   34260   34275   34293       4   34245   34227   34248   34263       4
   34245   34254   34275   34293       4   34239   34221   34233   34251       4
   34236   34215   34233   34251       4   34233   34251   34266   34287       5
   34233   34251   34266   34290       5   34230   34212   34224   34242       4
   34227   34206   34224   34242       4   34227   34245   34254   34278       4
   34227   34248   34260   34281       4   34221   34233   34215   34236       4
   34221   34233   34251   34269       8   34221   34233   34251   34272       8
   34218   34197   34215   34233       4   34218   34197   34215   34236       4
   34215   34233   34221   34239       4   34215   34233   34251   34269       8
   34215   34233   34251   34272       8   34209   34191   34206   34224       4
   34209   34191   34206   34227       4   34206   34224   34212   34230       4
   34206   34227   34245   34257       4   34206   34227   34248   34263       4
   34203   34200   34221   34239       4   34200   34185   34197   34218       4
   34194   34182   34191   34209       4   34194   34212   34224   34242       4
   34191   34206   34224   34242       4   34188   34194   34212   34230       4
   34185   34197   34215   34236       4   34185   34200   34221   34239       4
   34182   34194   34212   34230       4   34179   34185   34197   34218       4
   34176   34182   34191   34209       4   34548   34533   34545   34551       1
   34548   34533   34545   34554       1   34548   34533   34545   34557       1
   34542   34533   34545   34551       1   34542   34533   34545   34554       1
   34542   34533   34545   34557       1   34539   34530   34533   34542       1
   34539   34530   34533   34545       2   34539   34530   34533   34548       1
   34536   34530   34533   34542       1   34536   34530   34533   34545       2
   34536   34530   34533   34548       1   34530   34533   34545   34551       2
   34530   34533   34545   34554       2   34530   34533   34545   34557       2
   34527   34515   34530   34533       2   34527   34515   34530   34536       1
   34527   34515   34530   34539       1   34524   34515   34530   34533       2
   34524   34515   34530   34536       1   34524   34515   34530   34539       1
   34521   34506   34515   34524       1   34521   34506   34515   34527       1
   34521   34506   34515   34530       2   34518   34506   34515   34524       1
   34518   34506   34515   34527       1   34518   34506   34515   34530       2
   34515   34530   34533   34542       2   34515   34530   34533   34548       2
   34512   34497   34506   34515       2   34512   34497   34506   34518       1
   34512   34497   34506   34521       1   34509   34497   34506   34515       2
   34509   34497   34506   34518       1   34509   34497   34506   34521       1
   34506   34515   34530   34536       2   34506   34515   34530   34539       2
   34503   34488   34497   34506       2   34503   34488   34497   34509       1
   34503   34488   34497   34512       1   34500   34488   34497   34506       2
   34500   34488   34497   34509       1   34500   34488   34497   34512       1
   34497   34506   34515   34524       2   34497   34506   34515   34527       2
   34494   34476   34488   34497       2   34494   34476   34488   34500       1
   34494   34476   34488   34503       1   34491   34476   34488   34497       2
   34491   34476   34488   34500       1   34491   34476   34488   34503       1
   34488   34497   34506   34518       2   34488   34497   34506   34521       2
   34482   34458   34476   34488       2   34482   34458   34476   34491       1
   34482   34458   34476   34494       1   34479   34458   34476   34488       2
   34479   34458   34476   34491       1   34479   34458   34476   34494       1
   34476   34488   34497   34509       2   34476   34488   34497   34512       2
   34473   34452   34467   34485       4   34470   34446   34467   34485       4
   34464   34443   34458   34476       2   34464   34443   34458   34479       1
   34464   34443   34458   34482       1   34461   34443   34458   34476       2
   34461   34443   34458   34479       1   34461   34443   34458   34482       1
   34458   34476   34488   34500       2   34458   34476   34488   34503       2
   34455   34440   34452   34467       4   34455   34440   34452   34473       4
   34452   34467   34446   34470       4   34449   34437   34446   34467       4
   34449   34437   34446   34470       4   34446   34467   34452   34473       4
   34443   34458   34476   34491       2   34443   34458   34476   34494       2
   34440   34419   34437   34449       4   34440   34452   34467   34485       4
   34437   34419   34440   34455       4   34437   34446   34467   34485       4
   34431   34413   34425   34443       4   34428   34407   34425   34443       4
   34425   34443   34458   34479       5   34425   34443   34458   34482       5
   34422   34404   34416   34434       4   34419   34398   34416   34434       4
   34419   34437   34446   34470       4   34419   34440   34452   34473       4
   34413   34425   34407   34428       4   34413   34425   34443   34461       8
   34413   34425   34443   34464       8   34410   34389   34407   34425       4
   34410   34389   34407   34428       4   34407   34425   34413   34431       4
   34407   34425   34443   34461       8   34407   34425   34443   34464       8
   34401   34383   34398   34416       4   34401   34383   34398   34419       4
   34398   34416   34404   34422       4   34398   34419   34437   34449       4
   34398   34419   34440   34455       4   34395   34392   34413   34431       4
   34392   34377   34389   34410       4   34386   34374   34383   34401       4
   34386   34404   34416   34434       4   34383   34398   34416   34434       4
   34380   34386   34404   34422       4   34377   34389   34407   34428       4
   34377   34392   34413   34431       4   34374   34386   34404   34422       4
   34371   34377   34389   34410       4   34368   34374   34383   34401       4
   34740   34725   34737   34743       1   34740   34725   34737   34746       1
   34740   34725   34737   34749       1   34734   34725   34737   34743       1
   34734   34725   34737   34746       1   34734   34725   34737   34749       1
   34731   34722   34725   34734       1   34731   34722   34725   34737       2
   34731   34722   34725   34740       1   34728   34722   34725   34734       1
   34728   34722   34725   34737       2   34728   34722   34725   34740       1
   34722   34725   34737   34743       2   34722   34725   34737   34746       2
   34722   34725   34737   34749       2   34719   34707   34722   34725       2
   34719   34707   34722   34728       1   34719   34707   34722   34731       1
   34716   34707   34722   34725       2   34716   34707   34722   34728       1
   34716   34707   34722   34731       1   34713   34698   34707   34716       1
   34713   34698   34707   34719       1   34713   34698   34707   34722       2
   34710   34698   34707   34716       1   34710   34698   34707   34719       1
   34710   34698   34707   34722       2   34707   34722   34725   34734       2
   34707   34722   34725   34740       2   34704   34689   34698   34707       2
   34704   34689   34698   34710       1   34704   34689   34698   34713       1
   34701   34689   34698   34707       2   34701   34689   34698   34710       1
   34701   34689   34698   34713       1   34698   34707   34722   34728       2
   34698   34707   34722   34731       2   34695   34680   34689   34698       2
   34695   34680   34689   34701       1   34695   34680   34689   34704       1
   34692   34680   34689   34698       2   34692   34680   34689   34701       1
   34692   34680   34689   34704       1   34689   34698   34707   34716       2
   34689   34698   34707   34719       2   34686   34668   34680   34689       2
   34686   34668   34680   34692       1   34686   34668   34680   34695       1
   34683   34668   34680   34689       2   34683   34668   34680   34692       1
   34683   34668   34680   34695       1   34680   34689   34698   34710       2
   34680   34689   34698   34713       2   34674   34650   34668   34680       2
   34674   34650   34668   34683       1   34674   34650   34668   34686       1
   34671   34650   34668   34680       2   34671   34650   34668   34683       1
   34671   34650   34668   34686       1   34668   34680   34689   34701       2
   34668   34680   34689   34704       2   34665   34644   34659   34677       4
   34662   34638   34659   34677       4   34656   34635   34650   34668       2
   34656   34635   34650   34671       1   34656   34635   34650   34674       1
   34653   34635   34650   34668       2   34653   34635   34650   34671       1
   34653   34635   34650   34674       1   34650   34668   34680   34692       2
   34650   34668   34680   34695       2   34647   34632   34644   34659       4
   34647   34632   34644   34665       4   34644   34659   34638   34662       4
   34641   34629   34638   34659       4   34641   34629   34638   34662       4
   34638   34659   34644   34665       4   34635   34650   34668   34683       2
   34635   34650   34668   34686       2   34632   34611   34629   34641       4
   34632   34644   34659   34677       4   34629   34611   34632   34647       4
   34629   34638   34659   34677       4   34623   34605   34617   34635       4
   34620   34599   34617   34635       4   34617   34635   34650   34671       5
   34617   34635   34650   34674       5   34614   34596   34608   34626       4
   34611   34590   34608   34626       4   34611   34629   34638   34662       4
   34611   34632   34644   34665       4   34605   34617   34599   34620       4
   34605   34617   34635   34653       8   34605   34617   34635   34656       8
   34602   34581   34599   34617       4   34602   34581   34599   34620       4
   34599   34617   34605   34623       4   34599   34617   34635   34653       8
   34599   34617   34635   34656       8   34593   34575   34590   34608       4
   34593   34575   34590   34611       4   34590   34608   34596   34614       4
   34590   34611   34629   34641       4   34590   34611   34632   34647       4
   34587   34584   34605   34623       4   34584   34569   34581   34602       4
   34578   34566   34575   34593       4   34578   34596   34608   34626       4
   34575   34590   34608   34626       4   34572   34578   34596   34614       4
   34569   34581   34599   34620       4   34569   34584   34605   34623       4
   34566   34578   34596   34614       4   34563   34569   34581   34602       4
   34560   34566   34575   34593       4   34932   34917   34929   34935       1
   34932   34917   34929   34938       1   34932   34917   34929   34941       1
   34926   34917   34929   34935       1   34926   34917   34929   34938       1
   34926   34917   34929   34941       1   34923   34914   34917   34926       1
   34923   34914   34917   34929       2   34923   34914   34917   34932       1
   34920   34914   34917   34926       1   34920   34914   34917   34929       2
   34920   34914   34917   34932       1   34914   34917   34929   34935       2
   34914   34917   34929   34938       2   34914   34917   34929   34941       2
   34911   34899   34914   34917       2   34911   34899   34914   34920       1
   34911   34899   34914   34923       1   34908   34899   34914   34917       2
   34908   34899   34914   34920       1   34908   34899   34914   34923       1
   34905   34890   34899   34908       1   34905   34890   34899   34911       1
   34905   34890   34899   34914       2   34902   34890   34899   34908       1
   34902   34890   34899   34911       1   34902   34890   34899   34914       2
   34899   34914   34917   34926       2   34899   34914   34917   34932       2
   34896   34881   34890   34899       2   34896   34881   34890   34902       1
   34896   34881   34890   34905       1   34893   34881   34890   34899       2
   34893   34881   34890   34902       1   34893   34881   34890   34905       1
   34890   34899   34914   34920       2   34890   34899   34914   34923       2
   34887   34872   34881   34890       2   34887   34872   34881   34893       1
   34887   34872   34881   34896       1   34884   34872   34881   34890       2
   34884   34872   34881   34893       1   34884   34872   34881   34896       1
   34881   34890   34899   34908       2   34881   34890   34899   34911       2
   34878   34860   34872   34881       2   34878   34860   34872   34884       1
   34878   34860   34872   34887       1   34875   34860   34872   34881       2
   34875   34860   34872   34884       1   34875   34860   34872   34887       1
   34872   34881   34890   34902       2   34872   34881   34890   34905       2
   34866   34842   34860   34872       2   34866   34842   34860   34875       1
   34866   34842   34860   34878       1   34863   34842   34860   34872       2
   34863   34842   34860   34875       1   34863   34842   34860   34878       1
   34860   34872   34881   34893       2   34860   34872   34881   34896       2
   34857   34836   34851   34869       4   34854   34830   34851   34869       4
   34848   34827   34842   34860       2   34848   34827   34842   34863       1
   34848   34827   34842   34866       1   34845   34827   34842   34860       2
   34845   34827   34842   34863       1   34845   34827   34842   34866       1
   34842   34860   34872   34884       2   34842   34860   34872   34887       2
   34839   34824   34836   34851       4   34839   34824   34836   34857       4
   34836   34851   34830   34854       4   34833   34821   34830   34851       4
   34833   34821   34830   34854       4   34830   34851   34836   34857       4
   34827   34842   34860   34875       2   34827   34842   34860   34878       2
   34824   34803   34821   34833       4   34824   34836   34851   34869       4
   34821   34803   34824   34839       4   34821   34830   34851   34869       4
   34815   34797   34809   34827       4   34812   34791   34809   34827       4
   34809   34827   34842   34863       5   34809   34827   34842   34866       5
   34806   34788   34800   34818       4   34803   34782   34800   34818       4
   34803   34821   34830   34854       4   34803   34824   34836   34857       4
   34797   34809   34791   34812       4   34797   34809   34827   34845       8
   34797   34809   34827   34848       8   34794   34773   34791   34809       4
   34794   34773   34791   34812       4   34791   34809   34797   34815       4
   34791   34809   34827   34845       8   34791   34809   34827   34848       8
   34785   34767   34782   34800       4   34785   34767   34782   34803       4
   34782   34800   34788   34806       4   34782   34803   34821   34833       4
   34782   34803   34824   34839       4   34779   34776   34797   34815       4
   34776   34761   34773   34794       4   34770   34758   34767   34785       4
   34770   34788   34800   34818       4   34767   34782   34800   34818       4
   34764   34770   34788   34806       4   34761   34773   34791   34812       4
   34761   34776   34797   34815       4   34758   34770   34788   34806       4
   34755   34761   34773   34794       4   34752   34758   34767   34785       4
   35124   35109   35121   35127       1   35124   35109   35121   35130       1
   35124   35109   35121   35133       1   35118   35109   35121   35127       1
   35118   35109   35121   35130       1   35118   35109   35121   35133       1
   35115   35106   35109   35118       1   35115   35106   35109   35121       2
   35115   35106   35109   35124       1   35112   35106   35109   35118       1
   35112   35106   35109   35121       2   35112   35106   35109   35124       1
   35106   35109   35121   35127       2   35106   35109   35121   35130       2
   35106   35109   35121   35133       2   35103   35091   35106   35109       2
   35103   35091   35106   35112       1   35103   35091   35106   35115       1
   35100   35091   35106   35109       2   35100   35091   35106   35112       1
   35100   35091   35106   35115       1   35097   35082   35091   35100       1
   35097   35082   35091   35103       1   35097   35082   35091   35106       2
   35094   35082   35091   35100       1   35094   35082   35091   35103       1
   35094   35082   35091   35106       2   35091   35106   35109   35118       2
   35091   35106   35109   35124       2   35088   35073   35082   35091       2
   35088   35073   35082   35094       1   35088   35073   35082   35097       1
   35085   35073   35082   35091       2   35085   35073   35082   35094       1
   35085   35073   35082   35097       1   35082   35091   35106   35112       2
   35082   35091   35106   35115       2   35079   35064   35073   35082       2
   35079   35064   35073   35085       1   35079   35064   35073   35088       1
   35076   35064   35073   35082       2   35076   35064   35073   35085       1
   35076   35064   35073   35088       1   35073   35082   35091   35100       2
   35073   35082   35091   35103       2   35070   35052   35064   35073       2
   35070   35052   35064   35076       1   35070   35052   35064   35079       1
   35067   35052   35064   35073       2   35067   35052   35064   35076       1
   35067   35052   35064   35079       1   35064   35073   35082   35094       2
   35064   35073   35082   35097       2   35058   35034   35052   35064       2
   35058   35034   35052   35067       1   35058   35034   35052   35070       1
   35055   35034   35052   35064       2   35055   35034   35052   35067       1
   35055   35034   35052   35070       1   35052   35064   35073   35085       2
   35052   35064   35073   35088       2   35049   35028   35043   35061       4
   35046   35022   35043   35061       4   35040   35019   35034   35052       2
   35040   35019   35034   35055       1   35040   35019   35034   35058       1
   35037   35019   35034   35052       2   35037   35019   35034   35055       1
   35037   35019   35034   35058       1   35034   35052   35064   35076       2
   35034   35052   35064   35079       2   35031   35016   35028   35043       4
   35031   35016   35028   35049       4   35028   35043   35022   35046       4
   35025   35013   35022   35043       4   35025   35013   35022   35046       4
   35022   35043   35028   35049       4   35019   35034   35052   35067       2
   35019   35034   35052   35070       2   35016   34995   35013   35025       4
   35016   35028   35043   35061       4   35013   34995   35016   35031       4
   35013   35022   35043   35061       4   35007   34989   35001   35019       4
   35004   34983   35001   35019       4   35001   35019   35034   35055       5
   35001   35019   35034   35058       5   34998   34980   34992   35010       4
   34995   34974   34992   35010       4   34995   35013   35022   35046       4
   34995   35016   35028   35049       4   34989   35001   34983   35004       4
   34989   35001   35019   35037       8   34989   35001   35019   35040       8
   34986   34965   34983   35001       4   34986   34965   34983   35004       4
   34983   35001   34989   35007       4   34983   35001   35019   35037       8
   34983   35001   35019   35040       8   34977   34959   34974   34992       4
   34977   34959   34974   34995       4   34974   34992   34980   34998       4
   34974   34995   35013   35025       4   34974   34995   35016   35031       4
   34971   34968   34989   35007       4   34968   34953   34965   34986       4
   34962   34950   34959   34977       4   34962   34980   34992   35010       4
   34959   34974   34992   35010       4   34956   34962   34980   34998       4
   34953   34965   34983   35004       4   34953   34968   34989   35007       4
   34950   34962   34980   34998       4   34947   34953   34965   34986       4
   34944   34950   34959   34977       4   35316   35301   35313   35319       1
   35316   35301   35313   35322       1   35316   35301   35313   35325       1
   35310   35301   35313   35319       1   35310   35301   35313   35322       1
   35310   35301   35313   35325       1   35307   35298   35301   35310       1
   35307   35298   35301   35313       2   35307   35298   35301   35316       1
   35304   35298   35301   35310       1   35304   35298   35301   35313       2
   35304   35298   35301   35316       1   35298   35301   35313   35319       2
   35298   35301   35313   35322       2   35298   35301   35313   35325       2
   35295   35283   35298   35301       2   35295   35283   35298   35304       1
   35295   35283   35298   35307       1   35292   35283   35298   35301       2
   35292   35283   35298   35304       1   35292   35283   35298   35307       1
   35289   35274   35283   35292       1   35289   35274   35283   35295       1
   35289   35274   35283   35298       2   35286   35274   35283   35292       1
   35286   35274   35283   35295       1   35286   35274   35283   35298       2
   35283   35298   35301   35310       2   35283   35298   35301   35316       2
   35280   35265   35274   35283       2   35280   35265   35274   35286       1
   35280   35265   35274   35289       1   35277   35265   35274   35283       2
   35277   35265   35274   35286       1   35277   35265   35274   35289       1
   35274   35283   35298   35304       2   35274   35283   35298   35307       2
   35271   35256   35265   35274       2   35271   35256   35265   35277       1
   35271   35256   35265   35280       1   35268   35256   35265   35274       2
   35268   35256   35265   35277       1   35268   35256   35265   35280       1
   35265   35274   35283   35292       2   35265   35274   35283   35295       2
   35262   35244   35256   35265       2   35262   35244   35256   35268       1
   35262   35244   35256   35271       1   35259   35244   35256   35265       2
   35259   35244   35256   35268       1   35259   35244   35256   35271       1
   35256   35265   35274   35286       2   35256   35265   35274   35289       2
   35250   35226   35244   35256       2   35250   35226   35244   35259       1
   35250   35226   35244   35262       1   35247   35226   35244   35256       2
   35247   35226   35244   35259       1   35247   35226   35244   35262       1
   35244   35256   35265   35277       2   35244   35256   35265   35280       2
   35241   35220   35235   35253       4   35238   35214   35235   35253       4
   35232   35211   35226   35244       2   35232   35211   35226   35247       1
   35232   35211   35226   35250       1   35229   35211   35226   35244       2
   35229   35211   35226   35247       1   35229   35211   35226   35250       1
   35226   35244   35256   35268       2   35226   35244   35256   35271       2
   35223   35208   35220   35235       4   35223   35208   35220   35241       4
   35220   35235   35214   35238       4   35217   35205   35214   35235       4
   35217   35205   35214   35238       4   35214   35235   35220   35241       4
   35211   35226   35244   35259       2   35211   35226   35244   35262       2
   35208   35187   35205   35217       4   35208   35220   35235   35253       4
   35205   35187   35208   35223       4   35205   35214   35235   35253       4
   35199   35181   35193   35211       4   35196   35175   35193   35211       4
   35193   35211   35226   35247       5   35193   35211   35226   35250       5
   35190   35172   35184   35202       4   35187   35166   35184   35202       4
   35187   35205   35214   35238       4   35187   35208   35220   35241       4
   35181   35193   35175   35196       4   35181   35193   35211   35229       8
   35181   35193   35211   35232       8   35178   35157   35175   35193       4
   35178   35157   35175   35196       4   35175   35193   35181   35199       4
   35175   35193   35211   35229       8   35175   35193   35211   35232       8
   35169   35151   35166   35184       4   35169   35151   35166   35187       4
   35166   35184   35172   35190       4   35166   35187   35205   35217       4
   35166   35187   35208   35223       4   35163   35160   35181   35199       4
   35160   35145   35157   35178       4   35154   35142   35151   35169       4
   35154   35172   35184   35202       4   35151   35166   35184   35202       4
   35148   35154   35172   35190       4   35145   35157   35175   35196       4
   35145   35160   35181   35199       4   35142   35154   35172   35190       4
   35139   35145   35157   35178       4   35136   35142   35151   35169       4
   35508   35493   35505   35511       1   35508   35493   35505   35514       1
   35508   35493   35505   35517       1   35502   35493   35505   35511       1
   35502   35493   35505   35514       1   35502   35493   35505   35517       1
   35499   35490   35493   35502       1   35499   35490   35493   35505       2
   35499   35490   35493   35508       1   35496   35490   35493   35502       1
   35496   35490   35493   35505       2   35496   35490   35493   35508       1
   35490   35493   35505   35511       2   35490   35493   35505   35514       2
   35490   35493   35505   35517       2   35487   35475   35490   35493       2
   35487   35475   35490   35496       1   35487   35475   35490   35499       1
   35484   35475   35490   35493       2   35484   35475   35490   35496       1
   35484   35475   35490   35499       1   35481   35466   35475   35484       1
   35481   35466   35475   35487       1   35481   35466   35475   35490       2
   35478   35466   35475   35484       1   35478   35466   35475   35487       1
   35478   35466   35475   35490       2   35475   35490   35493   35502       2
   35475   35490   35493   35508       2   35472   35457   35466   35475       2
   35472   35457   35466   35478       1   35472   35457   35466   35481       1
   35469   35457   35466   35475       2   35469   35457   35466   35478       1
   35469   35457   35466   35481       1   35466   35475   35490   35496       2
   35466   35475   35490   35499       2   35463   35448   35457   35466       2
   35463   35448   35457   35469       1   35463   35448   35457   35472       1
   35460   35448   35457   35466       2   35460   35448   35457   35469       1
   35460   35448   35457   35472       1   35457   35466   35475   35484       2
   35457   35466   35475   35487       2   35454   35436   35448   35457       2
   35454   35436   35448   35460       1   35454   35436   35448   35463       1
   35451   35436   35448   35457       2   35451   35436   35448   35460       1
   35451   35436   35448   35463       1   35448   35457   35466   35478       2
   35448   35457   35466   35481       2   35442   35418   35436   35448       2
   35442   35418   35436   35451       1   35442   35418   35436   35454       1
   35439   35418   35436   35448       2   35439   35418   35436   35451       1
   35439   35418   35436   35454       1   35436   35448   35457   35469       2
   35436   35448   35457   35472       2   35433   35412   35427   35445       4
   35430   35406   35427   35445       4   35424   35403   35418   35436       2
   35424   35403   35418   35439       1   35424   35403   35418   35442       1
   35421   35403   35418   35436       2   35421   35403   35418   35439       1
   35421   35403   35418   35442       1   35418   35436   35448   35460       2
   35418   35436   35448   35463       2   35415   35400   35412   35427       4
   35415   35400   35412   35433       4   35412   35427   35406   35430       4
   35409   35397   35406   35427       4   35409   35397   35406   35430       4
   35406   35427   35412   35433       4   35403   35418   35436   35451       2
   35403   35418   35436   35454       2   35400   35379   35397   35409       4
   35400   35412   35427   35445       4   35397   35379   35400   35415       4
   35397   35406   35427   35445       4   35391   35373   35385   35403       4
   35388   35367   35385   35403       4   35385   35403   35418   35439       5
   35385   35403   35418   35442       5   35382   35364   35376   35394       4
   35379   35358   35376   35394       4   35379   35397   35406   35430       4
   35379   35400   35412   35433       4   35373   35385   35367   35388       4
   35373   35385   35403   35421       8   35373   35385   35403   35424       8
   35370   35349   35367   35385       4   35370   35349   35367   35388       4
   35367   35385   35373   35391       4   35367   35385   35403   35421       8
   35367   35385   35403   35424       8   35361   35343   35358   35376       4
   35361   35343   35358   35379       4   35358   35376   35364   35382       4
   35358   35379   35397   35409       4   35358   35379   35400   35415       4
   35355   35352   35373   35391       4   35352   35337   35349   35370       4
   35346   35334   35343   35361       4   35346   35364   35376   35394       4
   35343   35358   35376   35394       4   35340   35346   35364   35382       4
   35337   35349   35367   35388       4   35337   35352   35373   35391       4
   35334   35346   35364   35382       4   35331   35337   35349   35370       4
   35328   35334   35343   35361       4   35700   35685   35697   35703       1
   35700   35685   35697   35706       1   35700   35685   35697   35709       1
   35694   35685   35697   35703       1   35694   35685   35697   35706       1
   35694   35685   35697   35709       1   35691   35682   35685   35694       1
   35691   35682   35685   35697       2   35691   35682   35685   35700       1
   35688   35682   35685   35694       1   35688   35682   35685   35697       2
   35688   35682   35685   35700       1   35682   35685   35697   35703       2
   35682   35685   35697   35706       2   35682   35685   35697   35709       2
   35679   35667   35682   35685       2   35679   35667   35682   35688       1
   35679   35667   35682   35691       1   35676   35667   35682   35685       2
   35676   35667   35682   35688       1   35676   35667   35682   35691       1
   35673   35658   35667   35676       1   35673   35658   35667   35679       1
   35673   35658   35667   35682       2   35670   35658   35667   35676       1
   35670   35658   35667   35679       1   35670   35658   35667   35682       2
   35667   35682   35685   35694       2   35667   35682   35685   35700       2
   35664   35649   35658   35667       2   35664   35649   35658   35670       1
   35664   35649   35658   35673       1   35661   35649   35658   35667       2
   35661   35649   35658   35670       1   35661   35649   35658   35673       1
   35658   35667   35682   35688       2   35658   35667   35682   35691       2
   35655   35640   35649   35658       2   35655   35640   35649   35661       1
   35655   35640   35649   35664       1   35652   35640   35649   35658       2
   35652   35640   35649   35661       1   35652   35640   35649   35664       1
   35649   35658   35667   35676       2   35649   35658   35667   35679       2
   35646   35628   35640   35649       2   35646   35628   35640   35652       1
   35646   35628   35640   35655       1   35643   35628   35640   35649       2
   35643   35628   35640   35652       1   35643   35628   35640   35655       1
   35640   35649   35658   35670       2   35640   35649   35658   35673       2
   35634   35610   35628   35640       2   35634   35610   35628   35643       1
   35634   35610   35628   35646       1   35631   35610   35628   35640       2
   35631   35610   35628   35643       1   35631   35610   35628   35646       1
   35628   35640   35649   35661       2   35628   35640   35649   35664       2
   35625   35604   35619   35637       4   35622   35598   35619   35637       4
   35616   35595   35610   35628       2   35616   35595   35610   35631       1
   35616   35595   35610   35634       1   35613   35595   35610   35628       2
   35613   35595   35610   35631       1   35613   35595   35610   35634       1
   35610   35628   35640   35652       2   35610   35628   35640   35655       2
   35607   35592   35604   35619       4   35607   35592   35604   35625       4
   35604   35619   35598   35622       4   35601   35589   35598   35619       4
   35601   35589   35598   35622       4   35598   35619   35604   35625       4
   35595   35610   35628   35643       2   35595   35610   35628   35646       2
   35592   35571   35589   35601       4   35592   35604   35619   35637       4
   35589   35571   35592   35607       4   35589   35598   35619   35637       4
   35583   35565   35577   35595       4   35580   35559   35577   35595       4
   35577   35595   35610   35631       5   35577   35595   35610   35634       5
   35574   35556   35568   35586       4   35571   35550   35568   35586       4
   35571   35589   35598   35622       4   35571   35592   35604   35625       4
   35565   35577   35559   35580       4   35565   35577   35595   35613       8
   35565   35577   35595   35616       8   35562   35541   35559   35577       4
   35562   35541   35559   35580       4   35559   35577   35565   35583       4
   35559   35577   35595   35613       8   35559   35577   35595   35616       8
   35553   35535   35550   35568       4   35553   35535   35550   35571       4
   35550   35568   35556   35574       4   35550   35571   35589   35601       4
   35550   35571   35592   35607       4   35547   35544   35565   35583       4
   35544   35529   35541   35562       4   35538   35526   35535   35553       4
   35538   35556   35568   35586       4   35535   35550   35568   35586       4
   35532   35538   35556   35574       4   35529   35541   35559   35580       4
   35529   35544   35565   35583       4   35526   35538   35556   35574       4
   35523   35529   35541   35562       4   35520   35526   35535   35553       4
   35892   35877   35889   35895       1   35892   35877   35889   35898       1
   35892   35877   35889   35901       1   35886   35877   35889   35895       1
   35886   35877   35889   35898       1   35886   35877   35889   35901       1
   35883   35874   35877   35886       1   35883   35874   35877   35889       2
   35883   35874   35877   35892       1   35880   35874   35877   35886       1
   35880   35874   35877   35889       2   35880   35874   35877   35892       1
   35874   35877   35889   35895       2   35874   35877   35889   35898       2
   35874   35877   35889   35901       2   35871   35859   35874   35877       2
   35871   35859   35874   35880       1   35871   35859   35874   35883       1
   35868   35859   35874   35877       2   35868   35859   35874   35880       1
   35868   35859   35874   35883       1   35865   35850   35859   35868       1
   35865   35850   35859   35871       1   35865   35850   35859   35874       2
   35862   35850   35859   35868       1   35862   35850   35859   35871       1
   35862   35850   35859   35874       2   35859   35874   35877   35886       2
   35859   35874   35877   35892       2   35856   35841   35850   35859       2
   35856   35841   35850   35862       1   35856   35841   35850   35865       1
   35853   35841   35850   35859       2   35853   35841   35850   35862       1
   35853   35841   35850   35865       1   35850   35859   35874   35880       2
   35850   35859   35874   35883       2   35847   35832   35841   35850       2
   35847   35832   35841   35853       1   35847   35832   35841   35856       1
   35844   35832   35841   35850       2   35844   35832   35841   35853       1
   35844   35832   35841   35856       1   35841   35850   35859   35868       2
   35841   35850   35859   35871       2   35838   35820   35832   35841       2
   35838   35820   35832   35844       1   35838   35820   35832   35847       1
   35835   35820   35832   35841       2   35835   35820   35832   35844       1
   35835   35820   35832   35847       1   35832   35841   35850   35862       2
   35832   35841   35850   35865       2   35826   35802   35820   35832       2
   35826   35802   35820   35835       1   35826   35802   35820   35838       1
   35823   35802   35820   35832       2   35823   35802   35820   35835       1
   35823   35802   35820   35838       1   35820   35832   35841   35853       2
   35820   35832   35841   35856       2   35817   35796   35811   35829       4
   35814   35790   35811   35829       4   35808   35787   35802   35820       2
   35808   35787   35802   35823       1   35808   35787   35802   35826       1
   35805   35787   35802   35820       2   35805   35787   35802   35823       1
   35805   35787   35802   35826       1   35802   35820   35832   35844       2
   35802   35820   35832   35847       2   35799   35784   35796   35811       4
   35799   35784   35796   35817       4   35796   35811   35790   35814       4
   35793   35781   35790   35811       4   35793   35781   35790   35814       4
   35790   35811   35796   35817       4   35787   35802   35820   35835       2
   35787   35802   35820   35838       2   35784   35763   35781   35793       4
   35784   35796   35811   35829       4   35781   35763   35784   35799       4
   35781   35790   35811   35829       4   35775   35757   35769   35787       4
   35772   35751   35769   35787       4   35769   35787   35802   35823       5
   35769   35787   35802   35826       5   35766   35748   35760   35778       4
   35763   35742   35760   35778       4   35763   35781   35790   35814       4
   35763   35784   35796   35817       4   35757   35769   35751   35772       4
   35757   35769   35787   35805       8   35757   35769   35787   35808       8
   35754   35733   35751   35769       4   35754   35733   35751   35772       4
   35751   35769   35757   35775       4   35751   35769   35787   35805       8
   35751   35769   35787   35808       8   35745   35727   35742   35760       4
   35745   35727   35742   35763       4   35742   35760   35748   35766       4
   35742   35763   35781   35793       4   35742   35763   35784   35799       4
   35739   35736   35757   35775       4   35736   35721   35733   35754       4
   35730   35718   35727   35745       4   35730   35748   35760   35778       4
   35727   35742   35760   35778       4   35724   35730   35748   35766       4
   35721   35733   35751   35772       4   35721   35736   35757   35775       4
   35718   35730   35748   35766       4   35715   35721   35733   35754       4
   35712   35718   35727   35745       4   36084   36069   36081   36087       1
   36084   36069   36081   36090       1   36084   36069   36081   36093       1
   36078   36069   36081   36087       1   36078   36069   36081   36090       1
   36078   36069   36081   36093       1   36075   36066   36069   36078       1
   36075   36066   36069   36081       2   36075   36066   36069   36084       1
   36072   36066   36069   36078       1   36072   36066   36069   36081       2
   36072   36066   36069   36084       1   36066   36069   36081   36087       2
   36066   36069   36081   36090       2   36066   36069   36081   36093       2
   36063   36051   36066   36069       2   36063   36051   36066   36072       1
   36063   36051   36066   36075       1   36060   36051   36066   36069       2
   36060   36051   36066   36072       1   36060   36051   36066   36075       1
   36057   36042   36051   36060       1   36057   36042   36051   36063       1
   36057   36042   36051   36066       2   36054   36042   36051   36060       1
   36054   36042   36051   36063       1   36054   36042   36051   36066       2
   36051   36066   36069   36078       2   36051   36066   36069   36084       2
   36048   36033   36042   36051       2   36048   36033   36042   36054       1
   36048   36033   36042   36057       1   36045   36033   36042   36051       2
   36045   36033   36042   36054       1   36045   36033   36042   36057       1
   36042   36051   36066   36072       2   36042   36051   36066   36075       2
   36039   36024   36033   36042       2   36039   36024   36033   36045       1
   36039   36024   36033   36048       1   36036   36024   36033   36042       2
   36036   36024   36033   36045       1   36036   36024   36033   36048       1
   36033   36042   36051   36060       2   36033   36042   36051   36063       2
   36030   36012   36024   36033       2   36030   36012   36024   36036       1
   36030   36012   36024   36039       1   36027   36012   36024   36033       2
   36027   36012   36024   36036       1   36027   36012   36024   36039       1
   36024   36033   36042   36054       2   36024   36033   36042   36057       2
   36018   35994   36012   36024       2   36018   35994   36012   36027       1
   36018   35994   36012   36030       1   36015   35994   36012   36024       2
   36015   35994   36012   36027       1   36015   35994   36012   36030       1
   36012   36024   36033   36045       2   36012   36024   36033   36048       2
   36009   35988   36003   36021       4   36006   35982   36003   36021       4
   36000   35979   35994   36012       2   36000   35979   35994   36015       1
   36000   35979   35994   36018       1   35997   35979   35994   36012       2
   35997   35979   35994   36015       1   35997   35979   35994   36018       1
   35994   36012   36024   36036       2   35994   36012   36024   36039       2
   35991   35976   35988   36003       4   35991   35976   35988   36009       4
   35988   36003   35982   36006       4   35985   35973   35982   36003       4
   35985   35973   35982   36006       4   35982   36003   35988   36009       4
   35979   35994   36012   36027       2   35979   35994   36012   36030       2
   35976   35955   35973   35985       4   35976   35988   36003   36021       4
   35973   35955   35976   35991       4   35973   35982   36003   36021       4
   35967   35949   35961   35979       4   35964   35943   35961   35979       4
   35961   35979   35994   36015       5   35961   35979   35994   36018       5
   35958   35940   35952   35970       4   35955   35934   35952   35970       4
   35955   35973   35982   36006       4   35955   35976   35988   36009       4
   35949   35961   35943   35964       4   35949   35961   35979   35997       8
   35949   35961   35979   36000       8   35946   35925   35943   35961       4
   35946   35925   35943   35964       4   35943   35961   35949   35967       4
   35943   35961   35979   35997       8   35943   35961   35979   36000       8
   35937   35919   35934   35952       4   35937   35919   35934   35955       4
   35934   35952   35940   35958       4   35934   35955   35973   35985       4
   35934   35955   35976   35991       4   35931   35928   35949   35967       4
   35928   35913   35925   35946       4   35922   35910   35919   35937       4
   35922   35940   35952   35970       4   35919   35934   35952   35970       4
   35916   35922   35940   35958       4   35913   35925   35943   35964       4
   35913   35928   35949   35967       4   35910   35922   35940   35958       4
   35907   35913   35925   35946       4   35904   35910   35919   35937       4
   36276   36261   36273   36279       1   36276   36261   36273   36282       1
   36276   36261   36273   36285       1   36270   36261   36273   36279       1
   36270   36261   36273   36282       1   36270   36261   36273   36285       1
   36267   36258   36261   36270       1   36267   36258   36261   36273       2
   36267   36258   36261   36276       1   36264   36258   36261   36270       1
   36264   36258   36261   36273       2   36264   36258   36261   36276       1
   36258   36261   36273   36279       2   36258   36261   36273   36282       2
   36258   36261   36273   36285       2   36255   36243   36258   36261       2
   36255   36243   36258   36264       1   36255   36243   36258   36267       1
   36252   36243   36258   36261       2   36252   36243   36258   36264       1
   36252   36243   36258   36267       1   36249   36234   36243   36252       1
   36249   36234   36243   36255       1   36249   36234   36243   36258       2
   36246   36234   36243   36252       1   36246   36234   36243   36255       1
   36246   36234   36243   36258       2   36243   36258   36261   36270       2
   36243   36258   36261   36276       2   36240   36225   36234   36243       2
   36240   36225   36234   36246       1   36240   36225   36234   36249       1
   36237   36225   36234   36243       2   36237   36225   36234   36246       1
   36237   36225   36234   36249       1   36234   36243   36258   36264       2
   36234   36243   36258   36267       2   36231   36216   36225   36234       2
   36231   36216   36225   36237       1   36231   36216   36225   36240       1
   36228   36216   36225   36234       2   36228   36216   36225   36237       1
   36228   36216   36225   36240       1   36225   36234   36243   36252       2
   36225   36234   36243   36255       2   36222   36204   36216   36225       2
   36222   36204   36216   36228       1   36222   36204   36216   36231       1
   36219   36204   36216   36225       2   36219   36204   36216   36228       1
   36219   36204   36216   36231       1   36216   36225   36234   36246       2
   36216   36225   36234   36249       2   36210   36186   36204   36216       2
   36210   36186   36204   36219       1   36210   36186   36204   36222       1
   36207   36186   36204   36216       2   36207   36186   36204   36219       1
   36207   36186   36204   36222       1   36204   36216   36225   36237       2
   36204   36216   36225   36240       2   36201   36180   36195   36213       4
   36198   36174   36195   36213       4   36192   36171   36186   36204       2
   36192   36171   36186   36207       1   36192   36171   36186   36210       1
   36189   36171   36186   36204       2   36189   36171   36186   36207       1
   36189   36171   36186   36210       1   36186   36204   36216   36228       2
   36186   36204   36216   36231       2   36183   36168   36180   36195       4
   36183   36168   36180   36201       4   36180   36195   36174   36198       4
   36177   36165   36174   36195       4   36177   36165   36174   36198       4
   36174   36195   36180   36201       4   36171   36186   36204   36219       2
   36171   36186   36204   36222       2   36168   36147   36165   36177       4
   36168   36180   36195   36213       4   36165   36147   36168   36183       4
   36165   36174   36195   36213       4   36159   36141   36153   36171       4
   36156   36135   36153   36171       4   36153   36171   36186   36207       5
   36153   36171   36186   36210       5   36150   36132   36144   36162       4
   36147   36126   36144   36162       4   36147   36165   36174   36198       4
   36147   36168   36180   36201       4   36141   36153   36135   36156       4
   36141   36153   36171   36189       8   36141   36153   36171   36192       8
   36138   36117   36135   36153       4   36138   36117   36135   36156       4
   36135   36153   36141   36159       4   36135   36153   36171   36189       8
   36135   36153   36171   36192       8   36129   36111   36126   36144       4
   36129   36111   36126   36147       4   36126   36144   36132   36150       4
   36126   36147   36165   36177       4   36126   36147   36168   36183       4
   36123   36120   36141   36159       4   36120   36105   36117   36138       4
   36114   36102   36111   36129       4   36114   36132   36144   36162       4
   36111   36126   36144   36162       4   36108   36114   36132   36150       4
   36105   36117   36135   36156       4   36105   36120   36141   36159       4
   36102   36114   36132   36150       4   36099   36105   36117   36138       4
   36096   36102   36111   36129       4   36468   36453   36465   36471       1
   36468   36453   36465   36474       1   36468   36453   36465   36477       1
   36462   36453   36465   36471       1   36462   36453   36465   36474       1
   36462   36453   36465   36477       1   36459   36450   36453   36462       1
   36459   36450   36453   36465       2   36459   36450   36453   36468       1
   36456   36450   36453   36462       1   36456   36450   36453   36465       2
   36456   36450   36453   36468       1   36450   36453   36465   36471       2
   36450   36453   36465   36474       2   36450   36453   36465   36477       2
   36447   36435   36450   36453       2   36447   36435   36450   36456       1
   36447   36435   36450   36459       1   36444   36435   36450   36453       2
   36444   36435   36450   36456       1   36444   36435   36450   36459       1
   36441   36426   36435   36444       1   36441   36426   36435   36447       1
   36441   36426   36435   36450       2   36438   36426   36435   36444       1
   36438   36426   36435   36447       1   36438   36426   36435   36450       2
   36435   36450   36453   36462       2   36435   36450   36453   36468       2
   36432   36417   36426   36435       2   36432   36417   36426   36438       1
   36432   36417   36426   36441       1   36429   36417   36426   36435       2
   36429   36417   36426   36438       1   36429   36417   36426   36441       1
   36426   36435   36450   36456       2   36426   36435   36450   36459       2
   36423   36408   36417   36426       2   36423   36408   36417   36429       1
   36423   36408   36417   36432       1   36420   36408   36417   36426       2
   36420   36408   36417   36429       1   36420   36408   36417   36432       1
   36417   36426   36435   36444       2   36417   36426   36435   36447       2
   36414   36396   36408   36417       2   36414   36396   36408   36420       1
   36414   36396   36408   36423       1   36411   36396   36408   36417       2
   36411   36396   36408   36420       1   36411   36396   36408   36423       1
   36408   36417   36426   36438       2   36408   36417   36426   36441       2
   36402   36378   36396   36408       2   36402   36378   36396   36411       1
   36402   36378   36396   36414       1   36399   36378   36396   36408       2
   36399   36378   36396   36411       1   36399   36378   36396   36414       1
   36396   36408   36417   36429       2   36396   36408   36417   36432       2
   36393   36372   36387   36405       4   36390   36366   36387   36405       4
   36384   36363   36378   36396       2   36384   36363   36378   36399       1
   36384   36363   36378   36402       1   36381   36363   36378   36396       2
   36381   36363   36378   36399       1   36381   36363   36378   36402       1
   36378   36396   36408   36420       2   36378   36396   36408   36423       2
   36375   36360   36372   36387       4   36375   36360   36372   36393       4
   36372   36387   36366   36390       4   36369   36357   36366   36387       4
   36369   36357   36366   36390       4   36366   36387   36372   36393       4
   36363   36378   36396   36411       2   36363   36378   36396   36414       2
   36360   36339   36357   36369       4   36360   36372   36387   36405       4
   36357   36339   36360   36375       4   36357   36366   36387   36405       4
   36351   36333   36345   36363       4   36348   36327   36345   36363       4
   36345   36363   36378   36399       5   36345   36363   36378   36402       5
   36342   36324   36336   36354       4   36339   36318   36336   36354       4
   36339   36357   36366   36390       4   36339   36360   36372   36393       4
   36333   36345   36327   36348       4   36333   36345   36363   36381       8
   36333   36345   36363   36384       8   36330   36309   36327   36345       4
   36330   36309   36327   36348       4   36327   36345   36333   36351       4
   36327   36345   36363   36381       8   36327   36345   36363   36384       8
   36321   36303   36318   36336       4   36321   36303   36318   36339       4
   36318   36336   36324   36342       4   36318   36339   36357   36369       4
   36318   36339   36360   36375       4   36315   36312   36333   36351       4
   36312   36297   36309   36330       4   36306   36294   36303   36321       4
   36306   36324   36336   36354       4   36303   36318   36336   36354       4
   36300   36306   36324   36342       4   36297   36309   36327   36348       4
   36297   36312   36333   36351       4   36294   36306   36324   36342       4
   36291   36297   36309   36330       4   36288   36294   36303   36321       4
   36660   36645   36657   36663       1   36660   36645   36657   36666       1
   36660   36645   36657   36669       1   36654   36645   36657   36663       1
   36654   36645   36657   36666       1   36654   36645   36657   36669       1
   36651   36642   36645   36654       1   36651   36642   36645   36657       2
   36651   36642   36645   36660       1   36648   36642   36645   36654       1
   36648   36642   36645   36657       2   36648   36642   36645   36660       1
   36642   36645   36657   36663       2   36642   36645   36657   36666       2
   36642   36645   36657   36669       2   36639   36627   36642   36645       2
   36639   36627   36642   36648       1   36639   36627   36642   36651       1
   36636   36627   36642   36645       2   36636   36627   36642   36648       1
   36636   36627   36642   36651       1   36633   36618   36627   36636       1
   36633   36618   36627   36639       1   36633   36618   36627   36642       2
   36630   36618   36627   36636       1   36630   36618   36627   36639       1
   36630   36618   36627   36642       2   36627   36642   36645   36654       2
   36627   36642   36645   36660       2   36624   36609   36618   36627       2
   36624   36609   36618   36630       1   36624   36609   36618   36633       1
   36621   36609   36618   36627       2   36621   36609   36618   36630       1
   36621   36609   36618   36633       1   36618   36627   36642   36648       2
   36618   36627   36642   36651       2   36615   36600   36609   36618       2
   36615   36600   36609   36621       1   36615   36600   36609   36624       1
   36612   36600   36609   36618       2   36612   36600   36609   36621       1
   36612   36600   36609   36624       1   36609   36618   36627   36636       2
   36609   36618   36627   36639       2   36606   36588   36600   36609       2
   36606   36588   36600   36612       1   36606   36588   36600   36615       1
   36603   36588   36600   36609       2   36603   36588   36600   36612       1
   36603   36588   36600   36615       1   36600   36609   36618   36630       2
   36600   36609   36618   36633       2   36594   36570   36588   36600       2
   36594   36570   36588   36603       1   36594   36570   36588   36606       1
   36591   36570   36588   36600       2   36591   36570   36588   36603       1
   36591   36570   36588   36606       1   36588   36600   36609   36621       2
   36588   36600   36609   36624       2   36585   36564   36579   36597       4
   36582   36558   36579   36597       4   36576   36555   36570   36588       2
   36576   36555   36570   36591       1   36576   36555   36570   36594       1
   36573   36555   36570   36588       2   36573   36555   36570   36591       1
   36573   36555   36570   36594       1   36570   36588   36600   36612       2
   36570   36588   36600   36615       2   36567   36552   36564   36579       4
   36567   36552   36564   36585       4   36564   36579   36558   36582       4
   36561   36549   36558   36579       4   36561   36549   36558   36582       4
   36558   36579   36564   36585       4   36555   36570   36588   36603       2
   36555   36570   36588   36606       2   36552   36531   36549   36561       4
   36552   36564   36579   36597       4   36549   36531   36552   36567       4
   36549   36558   36579   36597       4   36543   36525   36537   36555       4
   36540   36519   36537   36555       4   36537   36555   36570   36591       5
   36537   36555   36570   36594       5   36534   36516   36528   36546       4
   36531   36510   36528   36546       4   36531   36549   36558   36582       4
   36531   36552   36564   36585       4   36525   36537   36519   36540       4
   36525   36537   36555   36573       8   36525   36537   36555   36576       8
   36522   36501   36519   36537       4   36522   36501   36519   36540       4
   36519   36537   36525   36543       4   36519   36537   36555   36573       8
   36519   36537   36555   36576       8   36513   36495   36510   36528       4
   36513   36495   36510   36531       4   36510   36528   36516   36534       4
   36510   36531   36549   36561       4   36510   36531   36552   36567       4
   36507   36504   36525   36543       4   36504   36489   36501   36522       4
   36498   36486   36495   36513       4   36498   36516   36528   36546       4
   36495   36510   36528   36546       4   36492   36498   36516   36534       4
   36489   36501   36519   36540       4   36489   36504   36525   36543       4
   36486   36498   36516   36534       4   36483   36489   36501   36522       4
   36480   36486   36495   36513       4   36852   36837   36849   36855       1
   36852   36837   36849   36858       1   36852   36837   36849   36861       1
   36846   36837   36849   36855       1   36846   36837   36849   36858       1
   36846   36837   36849   36861       1   36843   36834   36837   36846       1
   36843   36834   36837   36849       2   36843   36834   36837   36852       1
   36840   36834   36837   36846       1   36840   36834   36837   36849       2
   36840   36834   36837   36852       1   36834   36837   36849   36855       2
   36834   36837   36849   36858       2   36834   36837   36849   36861       2
   36831   36819   36834   36837       2   36831   36819   36834   36840       1
   36831   36819   36834   36843       1   36828   36819   36834   36837       2
   36828   36819   36834   36840       1   36828   36819   36834   36843       1
   36825   36810   36819   36828       1   36825   36810   36819   36831       1
   36825   36810   36819   36834       2   36822   36810   36819   36828       1
   36822   36810   36819   36831       1   36822   36810   36819   36834       2
   36819   36834   36837   36846       2   36819   36834   36837   36852       2
   36816   36801   36810   36819       2   36816   36801   36810   36822       1
   36816   36801   36810   36825       1   36813   36801   36810   36819       2
   36813   36801   36810   36822       1   36813   36801   36810   36825       1
   36810   36819   36834   36840       2   36810   36819   36834   36843       2
   36807   36792   36801   36810       2   36807   36792   36801   36813       1
   36807   36792   36801   36816       1   36804   36792   36801   36810       2
   36804   36792   36801   36813       1   36804   36792   36801   36816       1
   36801   36810   36819   36828       2   36801   36810   36819   36831       2
   36798   36780   36792   36801       2   36798   36780   36792   36804       1
   36798   36780   36792   36807       1   36795   36780   36792   36801       2
   36795   36780   36792   36804       1   36795   36780   36792   36807       1
   36792   36801   36810   36822       2   36792   36801   36810   36825       2
   36786   36762   36780   36792       2   36786   36762   36780   36795       1
   36786   36762   36780   36798       1   36783   36762   36780   36792       2
   36783   36762   36780   36795       1   36783   36762   36780   36798       1
   36780   36792   36801   36813       2   36780   36792   36801   36816       2
   36777   36756   36771   36789       4   36774   36750   36771   36789       4
   36768   36747   36762   36780       2   36768   36747   36762   36783       1
   36768   36747   36762   36786       1   36765   36747   36762   36780       2
   36765   36747   36762   36783       1   36765   36747   36762   36786       1
   36762   36780   36792   36804       2   36762   36780   36792   36807       2
   36759   36744   36756   36771       4   36759   36744   36756   36777       4
   36756   36771   36750   36774       4   36753   36741   36750   36771       4
   36753   36741   36750   36774       4   36750   36771   36756   36777       4
   36747   36762   36780   36795       2   36747   36762   36780   36798       2
   36744   36723   36741   36753       4   36744   36756   36771   36789       4
   36741   36723   36744   36759       4   36741   36750   36771   36789       4
   36735   36717   36729   36747       4   36732   36711   36729   36747       4
   36729   36747   36762   36783       5   36729   36747   36762   36786       5
   36726   36708   36720   36738       4   36723   36702   36720   36738       4
   36723   36741   36750   36774       4   36723   36744   36756   36777       4
   36717   36729   36711   36732       4   36717   36729   36747   36765       8
   36717   36729   36747   36768       8   36714   36693   36711   36729       4
   36714   36693   36711   36732       4   36711   36729   36717   36735       4
   36711   36729   36747   36765       8   36711   36729   36747   36768       8
   36705   36687   36702   36720       4   36705   36687   36702   36723       4
   36702   36720   36708   36726       4   36702   36723   36741   36753       4
   36702   36723   36744   36759       4   36699   36696   36717   36735       4
   36696   36681   36693   36714       4   36690   36678   36687   36705       4
   36690   36708   36720   36738       4   36687   36702   36720   36738       4
   36684   36690   36708   36726       4   36681   36693   36711   36732       4
   36681   36696   36717   36735       4   36678   36690   36708   36726       4
   36675   36681   36693   36714       4   36672   36678   36687   36705       4
   37044   37029   37041   37047       1   37044   37029   37041   37050       1
   37044   37029   37041   37053       1   37038   37029   37041   37047       1
   37038   37029   37041   37050       1   37038   37029   37041   37053       1
   37035   37026   37029   37038       1   37035   37026   37029   37041       2
   37035   37026   37029   37044       1   37032   37026   37029   37038       1
   37032   37026   37029   37041       2   37032   37026   37029   37044       1
   37026   37029   37041   37047       2   37026   37029   37041   37050       2
   37026   37029   37041   37053       2   37023   37011   37026   37029       2
   37023   37011   37026   37032       1   37023   37011   37026   37035       1
   37020   37011   37026   37029       2   37020   37011   37026   37032       1
   37020   37011   37026   37035       1   37017   37002   37011   37020       1
   37017   37002   37011   37023       1   37017   37002   37011   37026       2
   37014   37002   37011   37020       1   37014   37002   37011   37023       1
   37014   37002   37011   37026       2   37011   37026   37029   37038       2
   37011   37026   37029   37044       2   37008   36993   37002   37011       2
   37008   36993   37002   37014       1   37008   36993   37002   37017       1
   37005   36993   37002   37011       2   37005   36993   37002   37014       1
   37005   36993   37002   37017       1   37002   37011   37026   37032       2
   37002   37011   37026   37035       2   36999   36984   36993   37002       2
   36999   36984   36993   37005       1   36999   36984   36993   37008       1
   36996   36984   36993   37002       2   36996   36984   36993   37005       1
   36996   36984   36993   37008       1   36993   37002   37011   37020       2
   36993   37002   37011   37023       2   36990   36972   36984   36993       2
   36990   36972   36984   36996       1   36990   36972   36984   36999       1
   36987   36972   36984   36993       2   36987   36972   36984   36996       1
   36987   36972   36984   36999       1   36984   36993   37002   37014       2
   36984   36993   37002   37017       2   36978   36954   36972   36984       2
   36978   36954   36972   36987       1   36978   36954   36972   36990       1
   36975   36954   36972   36984       2   36975   36954   36972   36987       1
   36975   36954   36972   36990       1   36972   36984   36993   37005       2
   36972   36984   36993   37008       2   36969   36948   36963   36981       4
   36966   36942   36963   36981       4   36960   36939   36954   36972       2
   36960   36939   36954   36975       1   36960   36939   36954   36978       1
   36957   36939   36954   36972       2   36957   36939   36954   36975       1
   36957   36939   36954   36978       1   36954   36972   36984   36996       2
   36954   36972   36984   36999       2   36951   36936   36948   36963       4
   36951   36936   36948   36969       4   36948   36963   36942   36966       4
   36945   36933   36942   36963       4   36945   36933   36942   36966       4
   36942   36963   36948   36969       4   36939   36954   36972   36987       2
   36939   36954   36972   36990       2   36936   36915   36933   36945       4
   36936   36948   36963   36981       4   36933   36915   36936   36951       4
   36933   36942   36963   36981       4   36927   36909   36921   36939       4
   36924   36903   36921   36939       4   36921   36939   36954   36975       5
   36921   36939   36954   36978       5   36918   36900   36912   36930       4
   36915   36894   36912   36930       4   36915   36933   36942   36966       4
   36915   36936   36948   36969       4   36909   36921   36903   36924       4
   36909   36921   36939   36957       8   36909   36921   36939   36960       8
   36906   36885   36903   36921       4   36906   36885   36903   36924       4
   36903   36921   36909   36927       4   36903   36921   36939   36957       8
   36903   36921   36939   36960       8   36897   36879   36894   36912       4
   36897   36879   36894   36915       4   36894   36912   36900   36918       4
   36894   36915   36933   36945       4   36894   36915   36936   36951       4
   36891   36888   36909   36927       4   36888   36873   36885   36906       4
   36882   36870   36879   36897       4   36882   36900   36912   36930       4
   36879   36894   36912   36930       4   36876   36882   36900   36918       4
   36873   36885   36903   36924       4   36873   36888   36909   36927       4
   36870   36882   36900   36918       4   36867   36873   36885   36906       4
   36864   36870   36879   36897       4   37236   37221   37233   37239       1
   37236   37221   37233   37242       1   37236   37221   37233   37245       1
   37230   37221   37233   37239       1   37230   37221   37233   37242       1
   37230   37221   37233   37245       1   37227   37218   37221   37230       1
   37227   37218   37221   37233       2   37227   37218   37221   37236       1
   37224   37218   37221   37230       1   37224   37218   37221   37233       2
   37224   37218   37221   37236       1   37218   37221   37233   37239       2
   37218   37221   37233   37242       2   37218   37221   37233   37245       2
   37215   37203   37218   37221       2   37215   37203   37218   37224       1
   37215   37203   37218   37227       1   37212   37203   37218   37221       2
   37212   37203   37218   37224       1   37212   37203   37218   37227       1
   37209   37194   37203   37212       1   37209   37194   37203   37215       1
   37209   37194   37203   37218       2   37206   37194   37203   37212       1
   37206   37194   37203   37215       1   37206   37194   37203   37218       2
   37203   37218   37221   37230       2   37203   37218   37221   37236       2
   37200   37185   37194   37203       2   37200   37185   37194   37206       1
   37200   37185   37194   37209       1   37197   37185   37194   37203       2
   37197   37185   37194   37206       1   37197   37185   37194   37209       1
   37194   37203   37218   37224       2   37194   37203   37218   37227       2
   37191   37176   37185   37194       2   37191   37176   37185   37197       1
   37191   37176   37185   37200       1   37188   37176   37185   37194       2
   37188   37176   37185   37197       1   37188   37176   37185   37200       1
   37185   37194   37203   37212       2   37185   37194   37203   37215       2
   37182   37164   37176   37185       2   37182   37164   37176   37188       1
   37182   37164   37176   37191       1   37179   37164   37176   37185       2
   37179   37164   37176   37188       1   37179   37164   37176   37191       1
   37176   37185   37194   37206       2   37176   37185   37194   37209       2
   37170   37146   37164   37176       2   37170   37146   37164   37179       1
   37170   37146   37164   37182       1   37167   37146   37164   37176       2
   37167   37146   37164   37179       1   37167   37146   37164   37182       1
   37164   37176   37185   37197       2   37164   37176   37185   37200       2
   37161   37140   37155   37173       4   37158   37134   37155   37173       4
   37152   37131   37146   37164       2   37152   37131   37146   37167       1
   37152   37131   37146   37170       1   37149   37131   37146   37164       2
   37149   37131   37146   37167       1   37149   37131   37146   37170       1
   37146   37164   37176   37188       2   37146   37164   37176   37191       2
   37143   37128   37140   37155       4   37143   37128   37140   37161       4
   37140   37155   37134   37158       4   37137   37125   37134   37155       4
   37137   37125   37134   37158       4   37134   37155   37140   37161       4
   37131   37146   37164   37179       2   37131   37146   37164   37182       2
   37128   37107   37125   37137       4   37128   37140   37155   37173       4
   37125   37107   37128   37143       4   37125   37134   37155   37173       4
   37119   37101   37113   37131       4   37116   37095   37113   37131       4
   37113   37131   37146   37167       5   37113   37131   37146   37170       5
   37110   37092   37104   37122       4   37107   37086   37104   37122       4
   37107   37125   37134   37158       4   37107   37128   37140   37161       4
   37101   37113   37095   37116       4   37101   37113   37131   37149       8
   37101   37113   37131   37152       8   37098   37077   37095   37113       4
   37098   37077   37095   37116       4   37095   37113   37101   37119       4
   37095   37113   37131   37149       8   37095   37113   37131   37152       8
   37089   37071   37086   37104       4   37089   37071   37086   37107       4
   37086   37104   37092   37110       4   37086   37107   37125   37137       4
   37086   37107   37128   37143       4   37083   37080   37101   37119       4
   37080   37065   37077   37098       4   37074   37062   37071   37089       4
   37074   37092   37104   37122       4   37071   37086   37104   37122       4
   37068   37074   37092   37110       4   37065   37077   37095   37116       4
   37065   37080   37101   37119       4   37062   37074   37092   37110       4
   37059   37065   37077   37098       4   37056   37062   37071   37089       4
   37428   37413   37425   37431       1   37428   37413   37425   37434       1
   37428   37413   37425   37437       1   37422   37413   37425   37431       1
   37422   37413   37425   37434       1   37422   37413   37425   37437       1
   37419   37410   37413   37422       1   37419   37410   37413   37425       2
   37419   37410   37413   37428       1   37416   37410   37413   37422       1
   37416   37410   37413   37425       2   37416   37410   37413   37428       1
   37410   37413   37425   37431       2   37410   37413   37425   37434       2
   37410   37413   37425   37437       2   37407   37395   37410   37413       2
   37407   37395   37410   37416       1   37407   37395   37410   37419       1
   37404   37395   37410   37413       2   37404   37395   37410   37416       1
   37404   37395   37410   37419       1   37401   37386   37395   37404       1
   37401   37386   37395   37407       1   37401   37386   37395   37410       2
   37398   37386   37395   37404       1   37398   37386   37395   37407       1
   37398   37386   37395   37410       2   37395   37410   37413   37422       2
   37395   37410   37413   37428       2   37392   37377   37386   37395       2
   37392   37377   37386   37398       1   37392   37377   37386   37401       1
   37389   37377   37386   37395       2   37389   37377   37386   37398       1
   37389   37377   37386   37401       1   37386   37395   37410   37416       2
   37386   37395   37410   37419       2   37383   37368   37377   37386       2
   37383   37368   37377   37389       1   37383   37368   37377   37392       1
   37380   37368   37377   37386       2   37380   37368   37377   37389       1
   37380   37368   37377   37392       1   37377   37386   37395   37404       2
   37377   37386   37395   37407       2   37374   37356   37368   37377       2
   37374   37356   37368   37380       1   37374   37356   37368   37383       1
   37371   37356   37368   37377       2   37371   37356   37368   37380       1
   37371   37356   37368   37383       1   37368   37377   37386   37398       2
   37368   37377   37386   37401       2   37362   37338   37356   37368       2
   37362   37338   37356   37371       1   37362   37338   37356   37374       1
   37359   37338   37356   37368       2   37359   37338   37356   37371       1
   37359   37338   37356   37374       1   37356   37368   37377   37389       2
   37356   37368   37377   37392       2   37353   37332   37347   37365       4
   37350   37326   37347   37365       4   37344   37323   37338   37356       2
   37344   37323   37338   37359       1   37344   37323   37338   37362       1
   37341   37323   37338   37356       2   37341   37323   37338   37359       1
   37341   37323   37338   37362       1   37338   37356   37368   37380       2
   37338   37356   37368   37383       2   37335   37320   37332   37347       4
   37335   37320   37332   37353       4   37332   37347   37326   37350       4
   37329   37317   37326   37347       4   37329   37317   37326   37350       4
   37326   37347   37332   37353       4   37323   37338   37356   37371       2
   37323   37338   37356   37374       2   37320   37299   37317   37329       4
   37320   37332   37347   37365       4   37317   37299   37320   37335       4
   37317   37326   37347   37365       4   37311   37293   37305   37323       4
   37308   37287   37305   37323       4   37305   37323   37338   37359       5
   37305   37323   37338   37362       5   37302   37284   37296   37314       4
   37299   37278   37296   37314       4   37299   37317   37326   37350       4
   37299   37320   37332   37353       4   37293   37305   37287   37308       4
   37293   37305   37323   37341       8   37293   37305   37323   37344       8
   37290   37269   37287   37305       4   37290   37269   37287   37308       4
   37287   37305   37293   37311       4   37287   37305   37323   37341       8
   37287   37305   37323   37344       8   37281   37263   37278   37296       4
   37281   37263   37278   37299       4   37278   37296   37284   37302       4
   37278   37299   37317   37329       4   37278   37299   37320   37335       4
   37275   37272   37293   37311       4   37272   37257   37269   37290       4
   37266   37254   37263   37281       4   37266   37284   37296   37314       4
   37263   37278   37296   37314       4   37260   37266   37284   37302       4
   37257   37269   37287   37308       4   37257   37272   37293   37311       4
   37254   37266   37284   37302       4   37251   37257   37269   37290       4
   37248   37254   37263   37281       4   37620   37605   37617   37623       1
   37620   37605   37617   37626       1   37620   37605   37617   37629       1
   37614   37605   37617   37623       1   37614   37605   37617   37626       1
   37614   37605   37617   37629       1   37611   37602   37605   37614       1
   37611   37602   37605   37617       2   37611   37602   37605   37620       1
   37608   37602   37605   37614       1   37608   37602   37605   37617       2
   37608   37602   37605   37620       1   37602   37605   37617   37623       2
   37602   37605   37617   37626       2   37602   37605   37617   37629       2
   37599   37587   37602   37605       2   37599   37587   37602   37608       1
   37599   37587   37602   37611       1   37596   37587   37602   37605       2
   37596   37587   37602   37608       1   37596   37587   37602   37611       1
   37593   37578   37587   37596       1   37593   37578   37587   37599       1
   37593   37578   37587   37602       2   37590   37578   37587   37596       1
   37590   37578   37587   37599       1   37590   37578   37587   37602       2
   37587   37602   37605   37614       2   37587   37602   37605   37620       2
   37584   37569   37578   37587       2   37584   37569   37578   37590       1
   37584   37569   37578   37593       1   37581   37569   37578   37587       2
   37581   37569   37578   37590       1   37581   37569   37578   37593       1
   37578   37587   37602   37608       2   37578   37587   37602   37611       2
   37575   37560   37569   37578       2   37575   37560   37569   37581       1
   37575   37560   37569   37584       1   37572   37560   37569   37578       2
   37572   37560   37569   37581       1   37572   37560   37569   37584       1
   37569   37578   37587   37596       2   37569   37578   37587   37599       2
   37566   37548   37560   37569       2   37566   37548   37560   37572       1
   37566   37548   37560   37575       1   37563   37548   37560   37569       2
   37563   37548   37560   37572       1   37563   37548   37560   37575       1
   37560   37569   37578   37590       2   37560   37569   37578   37593       2
   37554   37530   37548   37560       2   37554   37530   37548   37563       1
   37554   37530   37548   37566       1   37551   37530   37548   37560       2
   37551   37530   37548   37563       1   37551   37530   37548   37566       1
   37548   37560   37569   37581       2   37548   37560   37569   37584       2
   37545   37524   37539   37557       4   37542   37518   37539   37557       4
   37536   37515   37530   37548       2   37536   37515   37530   37551       1
   37536   37515   37530   37554       1   37533   37515   37530   37548       2
   37533   37515   37530   37551       1   37533   37515   37530   37554       1
   37530   37548   37560   37572       2   37530   37548   37560   37575       2
   37527   37512   37524   37539       4   37527   37512   37524   37545       4
   37524   37539   37518   37542       4   37521   37509   37518   37539       4
   37521   37509   37518   37542       4   37518   37539   37524   37545       4
   37515   37530   37548   37563       2   37515   37530   37548   37566       2
   37512   37491   37509   37521       4   37512   37524   37539   37557       4
   37509   37491   37512   37527       4   37509   37518   37539   37557       4
   37503   37485   37497   37515       4   37500   37479   37497   37515       4
   37497   37515   37530   37551       5   37497   37515   37530   37554       5
   37494   37476   37488   37506       4   37491   37470   37488   37506       4
   37491   37509   37518   37542       4   37491   37512   37524   37545       4
   37485   37497   37479   37500       4   37485   37497   37515   37533       8
   37485   37497   37515   37536       8   37482   37461   37479   37497       4
   37482   37461   37479   37500       4   37479   37497   37485   37503       4
   37479   37497   37515   37533       8   37479   37497   37515   37536       8
   37473   37455   37470   37488       4   37473   37455   37470   37491       4
   37470   37488   37476   37494       4   37470   37491   37509   37521       4
   37470   37491   37512   37527       4   37467   37464   37485   37503       4
   37464   37449   37461   37482       4   37458   37446   37455   37473       4
   37458   37476   37488   37506       4   37455   37470   37488   37506       4
   37452   37458   37476   37494       4   37449   37461   37479   37500       4
   37449   37464   37485   37503       4   37446   37458   37476   37494       4
   37443   37449   37461   37482       4   37440   37446   37455   37473       4
   37812   37797   37809   37815       1   37812   37797   37809   37818       1
   37812   37797   37809   37821       1   37806   37797   37809   37815       1
   37806   37797   37809   37818       1   37806   37797   37809   37821       1
   37803   37794   37797   37806       1   37803   37794   37797   37809       2
   37803   37794   37797   37812       1   37800   37794   37797   37806       1
   37800   37794   37797   37809       2   37800   37794   37797   37812       1
   37794   37797   37809   37815       2   37794   37797   37809   37818       2
   37794   37797   37809   37821       2   37791   37779   37794   37797       2
   37791   37779   37794   37800       1   37791   37779   37794   37803       1
   37788   37779   37794   37797       2   37788   37779   37794   37800       1
   37788   37779   37794   37803       1   37785   37770   37779   37788       1
   37785   37770   37779   37791       1   37785   37770   37779   37794       2
   37782   37770   37779   37788       1   37782   37770   37779   37791       1
   37782   37770   37779   37794       2   37779   37794   37797   37806       2
   37779   37794   37797   37812       2   37776   37761   37770   37779       2
   37776   37761   37770   37782       1   37776   37761   37770   37785       1
   37773   37761   37770   37779       2   37773   37761   37770   37782       1
   37773   37761   37770   37785       1   37770   37779   37794   37800       2
   37770   37779   37794   37803       2   37767   37752   37761   37770       2
   37767   37752   37761   37773       1   37767   37752   37761   37776       1
   37764   37752   37761   37770       2   37764   37752   37761   37773       1
   37764   37752   37761   37776       1   37761   37770   37779   37788       2
   37761   37770   37779   37791       2   37758   37740   37752   37761       2
   37758   37740   37752   37764       1   37758   37740   37752   37767       1
   37755   37740   37752   37761       2   37755   37740   37752   37764       1
   37755   37740   37752   37767       1   37752   37761   37770   37782       2
   37752   37761   37770   37785       2   37746   37722   37740   37752       2
   37746   37722   37740   37755       1   37746   37722   37740   37758       1
   37743   37722   37740   37752       2   37743   37722   37740   37755       1
   37743   37722   37740   37758       1   37740   37752   37761   37773       2
   37740   37752   37761   37776       2   37737   37716   37731   37749       4
   37734   37710   37731   37749       4   37728   37707   37722   37740       2
   37728   37707   37722   37743       1   37728   37707   37722   37746       1
   37725   37707   37722   37740       2   37725   37707   37722   37743       1
   37725   37707   37722   37746       1   37722   37740   37752   37764       2
   37722   37740   37752   37767       2   37719   37704   37716   37731       4
   37719   37704   37716   37737       4   37716   37731   37710   37734       4
   37713   37701   37710   37731       4   37713   37701   37710   37734       4
   37710   37731   37716   37737       4   37707   37722   37740   37755       2
   37707   37722   37740   37758       2   37704   37683   37701   37713       4
   37704   37716   37731   37749       4   37701   37683   37704   37719       4
   37701   37710   37731   37749       4   37695   37677   37689   37707       4
   37692   37671   37689   37707       4   37689   37707   37722   37743       5
   37689   37707   37722   37746       5   37686   37668   37680   37698       4
   37683   37662   37680   37698       4   37683   37701   37710   37734       4
   37683   37704   37716   37737       4   37677   37689   37671   37692       4
   37677   37689   37707   37725       8   37677   37689   37707   37728       8
   37674   37653   37671   37689       4   37674   37653   37671   37692       4
   37671   37689   37677   37695       4   37671   37689   37707   37725       8
   37671   37689   37707   37728       8   37665   37647   37662   37680       4
   37665   37647   37662   37683       4   37662   37680   37668   37686       4
   37662   37683   37701   37713       4   37662   37683   37704   37719       4
   37659   37656   37677   37695       4   37656   37641   37653   37674       4
   37650   37638   37647   37665       4   37650   37668   37680   37698       4
   37647   37662   37680   37698       4   37644   37650   37668   37686       4
   37641   37653   37671   37692       4   37641   37656   37677   37695       4
   37638   37650   37668   37686       4   37635   37641   37653   37674       4
   37632   37638   37647   37665       4   38004   37989   38001   38007       1
   38004   37989   38001   38010       1   38004   37989   38001   38013       1
   37998   37989   38001   38007       1   37998   37989   38001   38010       1
   37998   37989   38001   38013       1   37995   37986   37989   37998       1
   37995   37986   37989   38001       2   37995   37986   37989   38004       1
   37992   37986   37989   37998       1   37992   37986   37989   38001       2
   37992   37986   37989   38004       1   37986   37989   38001   38007       2
   37986   37989   38001   38010       2   37986   37989   38001   38013       2
   37983   37971   37986   37989       2   37983   37971   37986   37992       1
   37983   37971   37986   37995       1   37980   37971   37986   37989       2
   37980   37971   37986   37992       1   37980   37971   37986   37995       1
   37977   37962   37971   37980       1   37977   37962   37971   37983       1
   37977   37962   37971   37986       2   37974   37962   37971   37980       1
   37974   37962   37971   37983       1   37974   37962   37971   37986       2
   37971   37986   37989   37998       2   37971   37986   37989   38004       2
   37968   37953   37962   37971       2   37968   37953   37962   37974       1
   37968   37953   37962   37977       1   37965   37953   37962   37971       2
   37965   37953   37962   37974       1   37965   37953   37962   37977       1
   37962   37971   37986   37992       2   37962   37971   37986   37995       2
   37959   37944   37953   37962       2   37959   37944   37953   37965       1
   37959   37944   37953   37968       1   37956   37944   37953   37962       2
   37956   37944   37953   37965       1   37956   37944   37953   37968       1
   37953   37962   37971   37980       2   37953   37962   37971   37983       2
   37950   37932   37944   37953       2   37950   37932   37944   37956       1
   37950   37932   37944   37959       1   37947   37932   37944   37953       2
   37947   37932   37944   37956       1   37947   37932   37944   37959       1
   37944   37953   37962   37974       2   37944   37953   37962   37977       2
   37938   37914   37932   37944       2   37938   37914   37932   37947       1
   37938   37914   37932   37950       1   37935   37914   37932   37944       2
   37935   37914   37932   37947       1   37935   37914   37932   37950       1
   37932   37944   37953   37965       2   37932   37944   37953   37968       2
   37929   37908   37923   37941       4   37926   37902   37923   37941       4
   37920   37899   37914   37932       2   37920   37899   37914   37935       1
   37920   37899   37914   37938       1   37917   37899   37914   37932       2
   37917   37899   37914   37935       1   37917   37899   37914   37938       1
   37914   37932   37944   37956       2   37914   37932   37944   37959       2
   37911   37896   37908   37923       4   37911   37896   37908   37929       4
   37908   37923   37902   37926       4   37905   37893   37902   37923       4
   37905   37893   37902   37926       4   37902   37923   37908   37929       4
   37899   37914   37932   37947       2   37899   37914   37932   37950       2
   37896   37875   37893   37905       4   37896   37908   37923   37941       4
   37893   37875   37896   37911       4   37893   37902   37923   37941       4
   37887   37869   37881   37899       4   37884   37863   37881   37899       4
   37881   37899   37914   37935       5   37881   37899   37914   37938       5
   37878   37860   37872   37890       4   37875   37854   37872   37890       4
   37875   37893   37902   37926       4   37875   37896   37908   37929       4
   37869   37881   37863   37884       4   37869   37881   37899   37917       8
   37869   37881   37899   37920       8   37866   37845   37863   37881       4
   37866   37845   37863   37884       4   37863   37881   37869   37887       4
   37863   37881   37899   37917       8   37863   37881   37899   37920       8
   37857   37839   37854   37872       4   37857   37839   37854   37875       4
   37854   37872   37860   37878       4   37854   37875   37893   37905       4
   37854   37875   37896   37911       4   37851   37848   37869   37887       4
   37848   37833   37845   37866       4   37842   37830   37839   37857       4
   37842   37860   37872   37890       4   37839   37854   37872   37890       4
   37836   37842   37860   37878       4   37833   37845   37863   37884       4
   37833   37848   37869   37887       4   37830   37842   37860   37878       4
   37827   37833   37845   37866       4   37824   37830   37839   37857       4
   38196   38181   38193   38199       1   38196   38181   38193   38202       1
   38196   38181   38193   38205       1   38190   38181   38193   38199       1
   38190   38181   38193   38202       1   38190   38181   38193   38205       1
   38187   38178   38181   38190       1   38187   38178   38181   38193       2
   38187   38178   38181   38196       1   38184   38178   38181   38190       1
   38184   38178   38181   38193       2   38184   38178   38181   38196       1
   38178   38181   38193   38199       2   38178   38181   38193   38202       2
   38178   38181   38193   38205       2   38175   38163   38178   38181       2
   38175   38163   38178   38184       1   38175   38163   38178   38187       1
   38172   38163   38178   38181       2   38172   38163   38178   38184       1
   38172   38163   38178   38187       1   38169   38154   38163   38172       1
   38169   38154   38163   38175       1   38169   38154   38163   38178       2
   38166   38154   38163   38172       1   38166   38154   38163   38175       1
   38166   38154   38163   38178       2   38163   38178   38181   38190       2
   38163   38178   38181   38196       2   38160   38145   38154   38163       2
   38160   38145   38154   38166       1   38160   38145   38154   38169       1
   38157   38145   38154   38163       2   38157   38145   38154   38166       1
   38157   38145   38154   38169       1   38154   38163   38178   38184       2
   38154   38163   38178   38187       2   38151   38136   38145   38154       2
   38151   38136   38145   38157       1   38151   38136   38145   38160       1
   38148   38136   38145   38154       2   38148   38136   38145   38157       1
   38148   38136   38145   38160       1   38145   38154   38163   38172       2
   38145   38154   38163   38175       2   38142   38124   38136   38145       2
   38142   38124   38136   38148       1   38142   38124   38136   38151       1
   38139   38124   38136   38145       2   38139   38124   38136   38148       1
   38139   38124   38136   38151       1   38136   38145   38154   38166       2
   38136   38145   38154   38169       2   38130   38106   38124   38136       2
   38130   38106   38124   38139       1   38130   38106   38124   38142       1
   38127   38106   38124   38136       2   38127   38106   38124   38139       1
   38127   38106   38124   38142       1   38124   38136   38145   38157       2
   38124   38136   38145   38160       2   38121   38100   38115   38133       4
   38118   38094   38115   38133       4   38112   38091   38106   38124       2
   38112   38091   38106   38127       1   38112   38091   38106   38130       1
   38109   38091   38106   38124       2   38109   38091   38106   38127       1
   38109   38091   38106   38130       1   38106   38124   38136   38148       2
   38106   38124   38136   38151       2   38103   38088   38100   38115       4
   38103   38088   38100   38121       4   38100   38115   38094   38118       4
   38097   38085   38094   38115       4   38097   38085   38094   38118       4
   38094   38115   38100   38121       4   38091   38106   38124   38139       2
   38091   38106   38124   38142       2   38088   38067   38085   38097       4
   38088   38100   38115   38133       4   38085   38067   38088   38103       4
   38085   38094   38115   38133       4   38079   38061   38073   38091       4
   38076   38055   38073   38091       4   38073   38091   38106   38127       5
   38073   38091   38106   38130       5   38070   38052   38064   38082       4
   38067   38046   38064   38082       4   38067   38085   38094   38118       4
   38067   38088   38100   38121       4   38061   38073   38055   38076       4
   38061   38073   38091   38109       8   38061   38073   38091   38112       8
   38058   38037   38055   38073       4   38058   38037   38055   38076       4
   38055   38073   38061   38079       4   38055   38073   38091   38109       8
   38055   38073   38091   38112       8   38049   38031   38046   38064       4
   38049   38031   38046   38067       4   38046   38064   38052   38070       4
   38046   38067   38085   38097       4   38046   38067   38088   38103       4
   38043   38040   38061   38079       4   38040   38025   38037   38058       4
   38034   38022   38031   38049       4   38034   38052   38064   38082       4
   38031   38046   38064   38082       4   38028   38034   38052   38070       4
   38025   38037   38055   38076       4   38025   38040   38061   38079       4
   38022   38034   38052   38070       4   38019   38025   38037   38058       4
   38016   38022   38031   38049       4   38388   38373   38385   38391       1
   38388   38373   38385   38394       1   38388   38373   38385   38397       1
   38382   38373   38385   38391       1   38382   38373   38385   38394       1
   38382   38373   38385   38397       1   38379   38370   38373   38382       1
   38379   38370   38373   38385       2   38379   38370   38373   38388       1
   38376   38370   38373   38382       1   38376   38370   38373   38385       2
   38376   38370   38373   38388       1   38370   38373   38385   38391       2
   38370   38373   38385   38394       2   38370   38373   38385   38397       2
   38367   38355   38370   38373       2   38367   38355   38370   38376       1
   38367   38355   38370   38379       1   38364   38355   38370   38373       2
   38364   38355   38370   38376       1   38364   38355   38370   38379       1
   38361   38346   38355   38364       1   38361   38346   38355   38367       1
   38361   38346   38355   38370       2   38358   38346   38355   38364       1
   38358   38346   38355   38367       1   38358   38346   38355   38370       2
   38355   38370   38373   38382       2   38355   38370   38373   38388       2
   38352   38337   38346   38355       2   38352   38337   38346   38358       1
   38352   38337   38346   38361       1   38349   38337   38346   38355       2
   38349   38337   38346   38358       1   38349   38337   38346   38361       1
   38346   38355   38370   38376       2   38346   38355   38370   38379       2
   38343   38328   38337   38346       2   38343   38328   38337   38349       1
   38343   38328   38337   38352       1   38340   38328   38337   38346       2
   38340   38328   38337   38349       1   38340   38328   38337   38352       1
   38337   38346   38355   38364       2   38337   38346   38355   38367       2
   38334   38316   38328   38337       2   38334   38316   38328   38340       1
   38334   38316   38328   38343       1   38331   38316   38328   38337       2
   38331   38316   38328   38340       1   38331   38316   38328   38343       1
   38328   38337   38346   38358       2   38328   38337   38346   38361       2
   38322   38298   38316   38328       2   38322   38298   38316   38331       1
   38322   38298   38316   38334       1   38319   38298   38316   38328       2
   38319   38298   38316   38331       1   38319   38298   38316   38334       1
   38316   38328   38337   38349       2   38316   38328   38337   38352       2
   38313   38292   38307   38325       4   38310   38286   38307   38325       4
   38304   38283   38298   38316       2   38304   38283   38298   38319       1
   38304   38283   38298   38322       1   38301   38283   38298   38316       2
   38301   38283   38298   38319       1   38301   38283   38298   38322       1
   38298   38316   38328   38340       2   38298   38316   38328   38343       2
   38295   38280   38292   38307       4   38295   38280   38292   38313       4
   38292   38307   38286   38310       4   38289   38277   38286   38307       4
   38289   38277   38286   38310       4   38286   38307   38292   38313       4
   38283   38298   38316   38331       2   38283   38298   38316   38334       2
   38280   38259   38277   38289       4   38280   38292   38307   38325       4
   38277   38259   38280   38295       4   38277   38286   38307   38325       4
   38271   38253   38265   38283       4   38268   38247   38265   38283       4
   38265   38283   38298   38319       5   38265   38283   38298   38322       5
   38262   38244   38256   38274       4   38259   38238   38256   38274       4
   38259   38277   38286   38310       4   38259   38280   38292   38313       4
   38253   38265   38247   38268       4   38253   38265   38283   38301       8
   38253   38265   38283   38304       8   38250   38229   38247   38265       4
   38250   38229   38247   38268       4   38247   38265   38253   38271       4
   38247   38265   38283   38301       8   38247   38265   38283   38304       8
   38241   38223   38238   38256       4   38241   38223   38238   38259       4
   38238   38256   38244   38262       4   38238   38259   38277   38289       4
   38238   38259   38280   38295       4   38235   38232   38253   38271       4
   38232   38217   38229   38250       4   38226   38214   38223   38241       4
   38226   38244   38256   38274       4   38223   38238   38256   38274       4
   38220   38226   38244   38262       4   38217   38229   38247   38268       4
   38217   38232   38253   38271       4   38214   38226   38244   38262       4
   38211   38217   38229   38250       4   38208   38214   38223   38241       4
   38580   38565   38577   38583       1   38580   38565   38577   38586       1
   38580   38565   38577   38589       1   38574   38565   38577   38583       1
   38574   38565   38577   38586       1   38574   38565   38577   38589       1
   38571   38562   38565   38574       1   38571   38562   38565   38577       2
   38571   38562   38565   38580       1   38568   38562   38565   38574       1
   38568   38562   38565   38577       2   38568   38562   38565   38580       1
   38562   38565   38577   38583       2   38562   38565   38577   38586       2
   38562   38565   38577   38589       2   38559   38547   38562   38565       2
   38559   38547   38562   38568       1   38559   38547   38562   38571       1
   38556   38547   38562   38565       2   38556   38547   38562   38568       1
   38556   38547   38562   38571       1   38553   38538   38547   38556       1
   38553   38538   38547   38559       1   38553   38538   38547   38562       2
   38550   38538   38547   38556       1   38550   38538   38547   38559       1
   38550   38538   38547   38562       2   38547   38562   38565   38574       2
   38547   38562   38565   38580       2   38544   38529   38538   38547       2
   38544   38529   38538   38550       1   38544   38529   38538   38553       1
   38541   38529   38538   38547       2   38541   38529   38538   38550       1
   38541   38529   38538   38553       1   38538   38547   38562   38568       2
   38538   38547   38562   38571       2   38535   38520   38529   38538       2
   38535   38520   38529   38541       1   38535   38520   38529   38544       1
   38532   38520   38529   38538       2   38532   38520   38529   38541       1
   38532   38520   38529   38544       1   38529   38538   38547   38556       2
   38529   38538   38547   38559       2   38526   38508   38520   38529       2
   38526   38508   38520   38532       1   38526   38508   38520   38535       1
   38523   38508   38520   38529       2   38523   38508   38520   38532       1
   38523   38508   38520   38535       1   38520   38529   38538   38550       2
   38520   38529   38538   38553       2   38514   38490   38508   38520       2
   38514   38490   38508   38523       1   38514   38490   38508   38526       1
   38511   38490   38508   38520       2   38511   38490   38508   38523       1
   38511   38490   38508   38526       1   38508   38520   38529   38541       2
   38508   38520   38529   38544       2   38505   38484   38499   38517       4
   38502   38478   38499   38517       4   38496   38475   38490   38508       2
   38496   38475   38490   38511       1   38496   38475   38490   38514       1
   38493   38475   38490   38508       2   38493   38475   38490   38511       1
   38493   38475   38490   38514       1   38490   38508   38520   38532       2
   38490   38508   38520   38535       2   38487   38472   38484   38499       4
   38487   38472   38484   38505       4   38484   38499   38478   38502       4
   38481   38469   38478   38499       4   38481   38469   38478   38502       4
   38478   38499   38484   38505       4   38475   38490   38508   38523       2
   38475   38490   38508   38526       2   38472   38451   38469   38481       4
   38472   38484   38499   38517       4   38469   38451   38472   38487       4
   38469   38478   38499   38517       4   38463   38445   38457   38475       4
   38460   38439   38457   38475       4   38457   38475   38490   38511       5
   38457   38475   38490   38514       5   38454   38436   38448   38466       4
   38451   38430   38448   38466       4   38451   38469   38478   38502       4
   38451   38472   38484   38505       4   38445   38457   38439   38460       4
   38445   38457   38475   38493       8   38445   38457   38475   38496       8
   38442   38421   38439   38457       4   38442   38421   38439   38460       4
   38439   38457   38445   38463       4   38439   38457   38475   38493       8
   38439   38457   38475   38496       8   38433   38415   38430   38448       4
   38433   38415   38430   38451       4   38430   38448   38436   38454       4
   38430   38451   38469   38481       4   38430   38451   38472   38487       4
   38427   38424   38445   38463       4   38424   38409   38421   38442       4
   38418   38406   38415   38433       4   38418   38436   38448   38466       4
   38415   38430   38448   38466       4   38412   38418   38436   38454       4
   38409   38421   38439   38460       4   38409   38424   38445   38463       4
   38406   38418   38436   38454       4   38403   38409   38421   38442       4
   38400   38406   38415   38433       4   38772   38757   38769   38775       1
   38772   38757   38769   38778       1   38772   38757   38769   38781       1
   38766   38757   38769   38775       1   38766   38757   38769   38778       1
   38766   38757   38769   38781       1   38763   38754   38757   38766       1
   38763   38754   38757   38769       2   38763   38754   38757   38772       1
   38760   38754   38757   38766       1   38760   38754   38757   38769       2
   38760   38754   38757   38772       1   38754   38757   38769   38775       2
   38754   38757   38769   38778       2   38754   38757   38769   38781       2
   38751   38739   38754   38757       2   38751   38739   38754   38760       1
   38751   38739   38754   38763       1   38748   38739   38754   38757       2
   38748   38739   38754   38760       1   38748   38739   38754   38763       1
   38745   38730   38739   38748       1   38745   38730   38739   38751       1
   38745   38730   38739   38754       2   38742   38730   38739   38748       1
   38742   38730   38739   38751       1   38742   38730   38739   38754       2
   38739   38754   38757   38766       2   38739   38754   38757   38772       2
   38736   38721   38730   38739       2   38736   38721   38730   38742       1
   38736   38721   38730   38745       1   38733   38721   38730   38739       2
   38733   38721   38730   38742       1   38733   38721   38730   38745       1
   38730   38739   38754   38760       2   38730   38739   38754   38763       2
   38727   38712   38721   38730       2   38727   38712   38721   38733       1
   38727   38712   38721   38736       1   38724   38712   38721   38730       2
   38724   38712   38721   38733       1   38724   38712   38721   38736       1
   38721   38730   38739   38748       2   38721   38730   38739   38751       2
   38718   38700   38712   38721       2   38718   38700   38712   38724       1
   38718   38700   38712   38727       1   38715   38700   38712   38721       2
   38715   38700   38712   38724       1   38715   38700   38712   38727       1
   38712   38721   38730   38742       2   38712   38721   38730   38745       2
   38706   38682   38700   38712       2   38706   38682   38700   38715       1
   38706   38682   38700   38718       1   38703   38682   38700   38712       2
   38703   38682   38700   38715       1   38703   38682   38700   38718       1
   38700   38712   38721   38733       2   38700   38712   38721   38736       2
   38697   38676   38691   38709       4   38694   38670   38691   38709       4
   38688   38667   38682   38700       2   38688   38667   38682   38703       1
   38688   38667   38682   38706       1   38685   38667   38682   38700       2
   38685   38667   38682   38703       1   38685   38667   38682   38706       1
   38682   38700   38712   38724       2   38682   38700   38712   38727       2
   38679   38664   38676   38691       4   38679   38664   38676   38697       4
   38676   38691   38670   38694       4   38673   38661   38670   38691       4
   38673   38661   38670   38694       4   38670   38691   38676   38697       4
   38667   38682   38700   38715       2   38667   38682   38700   38718       2
   38664   38643   38661   38673       4   38664   38676   38691   38709       4
   38661   38643   38664   38679       4   38661   38670   38691   38709       4
   38655   38637   38649   38667       4   38652   38631   38649   38667       4
   38649   38667   38682   38703       5   38649   38667   38682   38706       5
   38646   38628   38640   38658       4   38643   38622   38640   38658       4
   38643   38661   38670   38694       4   38643   38664   38676   38697       4
   38637   38649   38631   38652       4   38637   38649   38667   38685       8
   38637   38649   38667   38688       8   38634   38613   38631   38649       4
   38634   38613   38631   38652       4   38631   38649   38637   38655       4
   38631   38649   38667   38685       8   38631   38649   38667   38688       8
   38625   38607   38622   38640       4   38625   38607   38622   38643       4
   38622   38640   38628   38646       4   38622   38643   38661   38673       4
   38622   38643   38664   38679       4   38619   38616   38637   38655       4
   38616   38601   38613   38634       4   38610   38598   38607   38625       4
   38610   38628   38640   38658       4   38607   38622   38640   38658       4
   38604   38610   38628   38646       4   38601   38613   38631   38652       4
   38601   38616   38637   38655       4   38598   38610   38628   38646       4
   38595   38601   38613   38634       4   38592   38598   38607   38625       4
   38964   38949   38961   38967       1   38964   38949   38961   38970       1
   38964   38949   38961   38973       1   38958   38949   38961   38967       1
   38958   38949   38961   38970       1   38958   38949   38961   38973       1
   38955   38946   38949   38958       1   38955   38946   38949   38961       2
   38955   38946   38949   38964       1   38952   38946   38949   38958       1
   38952   38946   38949   38961       2   38952   38946   38949   38964       1
   38946   38949   38961   38967       2   38946   38949   38961   38970       2
   38946   38949   38961   38973       2   38943   38931   38946   38949       2
   38943   38931   38946   38952       1   38943   38931   38946   38955       1
   38940   38931   38946   38949       2   38940   38931   38946   38952       1
   38940   38931   38946   38955       1   38937   38922   38931   38940       1
   38937   38922   38931   38943       1   38937   38922   38931   38946       2
   38934   38922   38931   38940       1   38934   38922   38931   38943       1
   38934   38922   38931   38946       2   38931   38946   38949   38958       2
   38931   38946   38949   38964       2   38928   38913   38922   38931       2
   38928   38913   38922   38934       1   38928   38913   38922   38937       1
   38925   38913   38922   38931       2   38925   38913   38922   38934       1
   38925   38913   38922   38937       1   38922   38931   38946   38952       2
   38922   38931   38946   38955       2   38919   38904   38913   38922       2
   38919   38904   38913   38925       1   38919   38904   38913   38928       1
   38916   38904   38913   38922       2   38916   38904   38913   38925       1
   38916   38904   38913   38928       1   38913   38922   38931   38940       2
   38913   38922   38931   38943       2   38910   38892   38904   38913       2
   38910   38892   38904   38916       1   38910   38892   38904   38919       1
   38907   38892   38904   38913       2   38907   38892   38904   38916       1
   38907   38892   38904   38919       1   38904   38913   38922   38934       2
   38904   38913   38922   38937       2   38898   38874   38892   38904       2
   38898   38874   38892   38907       1   38898   38874   38892   38910       1
   38895   38874   38892   38904       2   38895   38874   38892   38907       1
   38895   38874   38892   38910       1   38892   38904   38913   38925       2
   38892   38904   38913   38928       2   38889   38868   38883   38901       4
   38886   38862   38883   38901       4   38880   38859   38874   38892       2
   38880   38859   38874   38895       1   38880   38859   38874   38898       1
   38877   38859   38874   38892       2   38877   38859   38874   38895       1
   38877   38859   38874   38898       1   38874   38892   38904   38916       2
   38874   38892   38904   38919       2   38871   38856   38868   38883       4
   38871   38856   38868   38889       4   38868   38883   38862   38886       4
   38865   38853   38862   38883       4   38865   38853   38862   38886       4
   38862   38883   38868   38889       4   38859   38874   38892   38907       2
   38859   38874   38892   38910       2   38856   38835   38853   38865       4
   38856   38868   38883   38901       4   38853   38835   38856   38871       4
   38853   38862   38883   38901       4   38847   38829   38841   38859       4
   38844   38823   38841   38859       4   38841   38859   38874   38895       5
   38841   38859   38874   38898       5   38838   38820   38832   38850       4
   38835   38814   38832   38850       4   38835   38853   38862   38886       4
   38835   38856   38868   38889       4   38829   38841   38823   38844       4
   38829   38841   38859   38877       8   38829   38841   38859   38880       8
   38826   38805   38823   38841       4   38826   38805   38823   38844       4
   38823   38841   38829   38847       4   38823   38841   38859   38877       8
   38823   38841   38859   38880       8   38817   38799   38814   38832       4
   38817   38799   38814   38835       4   38814   38832   38820   38838       4
   38814   38835   38853   38865       4   38814   38835   38856   38871       4
   38811   38808   38829   38847       4   38808   38793   38805   38826       4
   38802   38790   38799   38817       4   38802   38820   38832   38850       4
   38799   38814   38832   38850       4   38796   38802   38820   38838       4
   38793   38805   38823   38844       4   38793   38808   38829   38847       4
   38790   38802   38820   38838       4   38787   38793   38805   38826       4
   38784   38790   38799   38817       4   39156   39141   39153   39159       1
   39156   39141   39153   39162       1   39156   39141   39153   39165       1
   39150   39141   39153   39159       1   39150   39141   39153   39162       1
   39150   39141   39153   39165       1   39147   39138   39141   39150       1
   39147   39138   39141   39153       2   39147   39138   39141   39156       1
   39144   39138   39141   39150       1   39144   39138   39141   39153       2
   39144   39138   39141   39156       1   39138   39141   39153   39159       2
   39138   39141   39153   39162       2   39138   39141   39153   39165       2
   39135   39123   39138   39141       2   39135   39123   39138   39144       1
   39135   39123   39138   39147       1   39132   39123   39138   39141       2
   39132   39123   39138   39144       1   39132   39123   39138   39147       1
   39129   39114   39123   39132       1   39129   39114   39123   39135       1
   39129   39114   39123   39138       2   39126   39114   39123   39132       1
   39126   39114   39123   39135       1   39126   39114   39123   39138       2
   39123   39138   39141   39150       2   39123   39138   39141   39156       2
   39120   39105   39114   39123       2   39120   39105   39114   39126       1
   39120   39105   39114   39129       1   39117   39105   39114   39123       2
   39117   39105   39114   39126       1   39117   39105   39114   39129       1
   39114   39123   39138   39144       2   39114   39123   39138   39147       2
   39111   39096   39105   39114       2   39111   39096   39105   39117       1
   39111   39096   39105   39120       1   39108   39096   39105   39114       2
   39108   39096   39105   39117       1   39108   39096   39105   39120       1
   39105   39114   39123   39132       2   39105   39114   39123   39135       2
   39102   39084   39096   39105       2   39102   39084   39096   39108       1
   39102   39084   39096   39111       1   39099   39084   39096   39105       2
   39099   39084   39096   39108       1   39099   39084   39096   39111       1
   39096   39105   39114   39126       2   39096   39105   39114   39129       2
   39090   39066   39084   39096       2   39090   39066   39084   39099       1
   39090   39066   39084   39102       1   39087   39066   39084   39096       2
   39087   39066   39084   39099       1   39087   39066   39084   39102       1
   39084   39096   39105   39117       2   39084   39096   39105   39120       2
   39081   39060   39075   39093       4   39078   39054   39075   39093       4
   39072   39051   39066   39084       2   39072   39051   39066   39087       1
   39072   39051   39066   39090       1   39069   39051   39066   39084       2
   39069   39051   39066   39087       1   39069   39051   39066   39090       1
   39066   39084   39096   39108       2   39066   39084   39096   39111       2
   39063   39048   39060   39075       4   39063   39048   39060   39081       4
   39060   39075   39054   39078       4   39057   39045   39054   39075       4
   39057   39045   39054   39078       4   39054   39075   39060   39081       4
   39051   39066   39084   39099       2   39051   39066   39084   39102       2
   39048   39027   39045   39057       4   39048   39060   39075   39093       4
   39045   39027   39048   39063       4   39045   39054   39075   39093       4
   39039   39021   39033   39051       4   39036   39015   39033   39051       4
   39033   39051   39066   39087       5   39033   39051   39066   39090       5
   39030   39012   39024   39042       4   39027   39006   39024   39042       4
   39027   39045   39054   39078       4   39027   39048   39060   39081       4
   39021   39033   39015   39036       4   39021   39033   39051   39069       8
   39021   39033   39051   39072       8   39018   38997   39015   39033       4
   39018   38997   39015   39036       4   39015   39033   39021   39039       4
   39015   39033   39051   39069       8   39015   39033   39051   39072       8
   39009   38991   39006   39024       4   39009   38991   39006   39027       4
   39006   39024   39012   39030       4   39006   39027   39045   39057       4
   39006   39027   39048   39063       4   39003   39000   39021   39039       4
   39000   38985   38997   39018       4   38994   38982   38991   39009       4
   38994   39012   39024   39042       4   38991   39006   39024   39042       4
   38988   38994   39012   39030       4   38985   38997   39015   39036       4
   38985   39000   39021   39039       4   38982   38994   39012   39030       4
   38979   38985   38997   39018       4   38976   38982   38991   39009       4
   39348   39333   39345   39351       1   39348   39333   39345   39354       1
   39348   39333   39345   39357       1   39342   39333   39345   39351       1
   39342   39333   39345   39354       1   39342   39333   39345   39357       1
   39339   39330   39333   39342       1   39339   39330   39333   39345       2
   39339   39330   39333   39348       1   39336   39330   39333   39342       1
   39336   39330   39333   39345       2   39336   39330   39333   39348       1
   39330   39333   39345   39351       2   39330   39333   39345   39354       2
   39330   39333   39345   39357       2   39327   39315   39330   39333       2
   39327   39315   39330   39336       1   39327   39315   39330   39339       1
   39324   39315   39330   39333       2   39324   39315   39330   39336       1
   39324   39315   39330   39339       1   39321   39306   39315   39324       1
   39321   39306   39315   39327       1   39321   39306   39315   39330       2
   39318   39306   39315   39324       1   39318   39306   39315   39327       1
   39318   39306   39315   39330       2   39315   39330   39333   39342       2
   39315   39330   39333   39348       2   39312   39297   39306   39315       2
   39312   39297   39306   39318       1   39312   39297   39306   39321       1
   39309   39297   39306   39315       2   39309   39297   39306   39318       1
   39309   39297   39306   39321       1   39306   39315   39330   39336       2
   39306   39315   39330   39339       2   39303   39288   39297   39306       2
   39303   39288   39297   39309       1   39303   39288   39297   39312       1
   39300   39288   39297   39306       2   39300   39288   39297   39309       1
   39300   39288   39297   39312       1   39297   39306   39315   39324       2
   39297   39306   39315   39327       2   39294   39276   39288   39297       2
   39294   39276   39288   39300       1   39294   39276   39288   39303       1
   39291   39276   39288   39297       2   39291   39276   39288   39300       1
   39291   39276   39288   39303       1   39288   39297   39306   39318       2
   39288   39297   39306   39321       2   39282   39258   39276   39288       2
   39282   39258   39276   39291       1   39282   39258   39276   39294       1
   39279   39258   39276   39288       2   39279   39258   39276   39291       1
   39279   39258   39276   39294       1   39276   39288   39297   39309       2
   39276   39288   39297   39312       2   39273   39252   39267   39285       4
   39270   39246   39267   39285       4   39264   39243   39258   39276       2
   39264   39243   39258   39279       1   39264   39243   39258   39282       1
   39261   39243   39258   39276       2   39261   39243   39258   39279       1
   39261   39243   39258   39282       1   39258   39276   39288   39300       2
   39258   39276   39288   39303       2   39255   39240   39252   39267       4
   39255   39240   39252   39273       4   39252   39267   39246   39270       4
   39249   39237   39246   39267       4   39249   39237   39246   39270       4
   39246   39267   39252   39273       4   39243   39258   39276   39291       2
   39243   39258   39276   39294       2   39240   39219   39237   39249       4
   39240   39252   39267   39285       4   39237   39219   39240   39255       4
   39237   39246   39267   39285       4   39231   39213   39225   39243       4
   39228   39207   39225   39243       4   39225   39243   39258   39279       5
   39225   39243   39258   39282       5   39222   39204   39216   39234       4
   39219   39198   39216   39234       4   39219   39237   39246   39270       4
   39219   39240   39252   39273       4   39213   39225   39207   39228       4
   39213   39225   39243   39261       8   39213   39225   39243   39264       8
   39210   39189   39207   39225       4   39210   39189   39207   39228       4
   39207   39225   39213   39231       4   39207   39225   39243   39261       8
   39207   39225   39243   39264       8   39201   39183   39198   39216       4
   39201   39183   39198   39219       4   39198   39216   39204   39222       4
   39198   39219   39237   39249       4   39198   39219   39240   39255       4
   39195   39192   39213   39231       4   39192   39177   39189   39210       4
   39186   39174   39183   39201       4   39186   39204   39216   39234       4
   39183   39198   39216   39234       4   39180   39186   39204   39222       4
   39177   39189   39207   39228       4   39177   39192   39213   39231       4
   39174   39186   39204   39222       4   39171   39177   39189   39210       4
   39168   39174   39183   39201       4   39540   39525   39537   39543       1
   39540   39525   39537   39546       1   39540   39525   39537   39549       1
   39534   39525   39537   39543       1   39534   39525   39537   39546       1
   39534   39525   39537   39549       1   39531   39522   39525   39534       1
   39531   39522   39525   39537       2   39531   39522   39525   39540       1
   39528   39522   39525   39534       1   39528   39522   39525   39537       2
   39528   39522   39525   39540       1   39522   39525   39537   39543       2
   39522   39525   39537   39546       2   39522   39525   39537   39549       2
   39519   39507   39522   39525       2   39519   39507   39522   39528       1
   39519   39507   39522   39531       1   39516   39507   39522   39525       2
   39516   39507   39522   39528       1   39516   39507   39522   39531       1
   39513   39498   39507   39516       1   39513   39498   39507   39519       1
   39513   39498   39507   39522       2   39510   39498   39507   39516       1
   39510   39498   39507   39519       1   39510   39498   39507   39522       2
   39507   39522   39525   39534       2   39507   39522   39525   39540       2
   39504   39489   39498   39507       2   39504   39489   39498   39510       1
   39504   39489   39498   39513       1   39501   39489   39498   39507       2
   39501   39489   39498   39510       1   39501   39489   39498   39513       1
   39498   39507   39522   39528       2   39498   39507   39522   39531       2
   39495   39480   39489   39498       2   39495   39480   39489   39501       1
   39495   39480   39489   39504       1   39492   39480   39489   39498       2
   39492   39480   39489   39501       1   39492   39480   39489   39504       1
   39489   39498   39507   39516       2   39489   39498   39507   39519       2
   39486   39468   39480   39489       2   39486   39468   39480   39492       1
   39486   39468   39480   39495       1   39483   39468   39480   39489       2
   39483   39468   39480   39492       1   39483   39468   39480   39495       1
   39480   39489   39498   39510       2   39480   39489   39498   39513       2
   39474   39450   39468   39480       2   39474   39450   39468   39483       1
   39474   39450   39468   39486       1   39471   39450   39468   39480       2
   39471   39450   39468   39483       1   39471   39450   39468   39486       1
   39468   39480   39489   39501       2   39468   39480   39489   39504       2
   39465   39444   39459   39477       4   39462   39438   39459   39477       4
   39456   39435   39450   39468       2   39456   39435   39450   39471       1
   39456   39435   39450   39474       1   39453   39435   39450   39468       2
   39453   39435   39450   39471       1   39453   39435   39450   39474       1
   39450   39468   39480   39492       2   39450   39468   39480   39495       2
   39447   39432   39444   39459       4   39447   39432   39444   39465       4
   39444   39459   39438   39462       4   39441   39429   39438   39459       4
   39441   39429   39438   39462       4   39438   39459   39444   39465       4
   39435   39450   39468   39483       2   39435   39450   39468   39486       2
   39432   39411   39429   39441       4   39432   39444   39459   39477       4
   39429   39411   39432   39447       4   39429   39438   39459   39477       4
   39423   39405   39417   39435       4   39420   39399   39417   39435       4
   39417   39435   39450   39471       5   39417   39435   39450   39474       5
   39414   39396   39408   39426       4   39411   39390   39408   39426       4
   39411   39429   39438   39462       4   39411   39432   39444   39465       4
   39405   39417   39399   39420       4   39405   39417   39435   39453       8
   39405   39417   39435   39456       8   39402   39381   39399   39417       4
   39402   39381   39399   39420       4   39399   39417   39405   39423       4
   39399   39417   39435   39453       8   39399   39417   39435   39456       8
   39393   39375   39390   39408       4   39393   39375   39390   39411       4
   39390   39408   39396   39414       4   39390   39411   39429   39441       4
   39390   39411   39432   39447       4   39387   39384   39405   39423       4
   39384   39369   39381   39402       4   39378   39366   39375   39393       4
   39378   39396   39408   39426       4   39375   39390   39408   39426       4
   39372   39378   39396   39414       4   39369   39381   39399   39420       4
   39369   39384   39405   39423       4   39366   39378   39396   39414       4
   39363   39369   39381   39402       4   39360   39366   39375   39393       4
   39732   39717   39729   39735       1   39732   39717   39729   39738       1
   39732   39717   39729   39741       1   39726   39717   39729   39735       1
   39726   39717   39729   39738       1   39726   39717   39729   39741       1
   39723   39714   39717   39726       1   39723   39714   39717   39729       2
   39723   39714   39717   39732       1   39720   39714   39717   39726       1
   39720   39714   39717   39729       2   39720   39714   39717   39732       1
   39714   39717   39729   39735       2   39714   39717   39729   39738       2
   39714   39717   39729   39741       2   39711   39699   39714   39717       2
   39711   39699   39714   39720       1   39711   39699   39714   39723       1
   39708   39699   39714   39717       2   39708   39699   39714   39720       1
   39708   39699   39714   39723       1   39705   39690   39699   39708       1
   39705   39690   39699   39711       1   39705   39690   39699   39714       2
   39702   39690   39699   39708       1   39702   39690   39699   39711       1
   39702   39690   39699   39714       2   39699   39714   39717   39726       2
   39699   39714   39717   39732       2   39696   39681   39690   39699       2
   39696   39681   39690   39702       1   39696   39681   39690   39705       1
   39693   39681   39690   39699       2   39693   39681   39690   39702       1
   39693   39681   39690   39705       1   39690   39699   39714   39720       2
   39690   39699   39714   39723       2   39687   39672   39681   39690       2
   39687   39672   39681   39693       1   39687   39672   39681   39696       1
   39684   39672   39681   39690       2   39684   39672   39681   39693       1
   39684   39672   39681   39696       1   39681   39690   39699   39708       2
   39681   39690   39699   39711       2   39678   39660   39672   39681       2
   39678   39660   39672   39684       1   39678   39660   39672   39687       1
   39675   39660   39672   39681       2   39675   39660   39672   39684       1
   39675   39660   39672   39687       1   39672   39681   39690   39702       2
   39672   39681   39690   39705       2   39666   39642   39660   39672       2
   39666   39642   39660   39675       1   39666   39642   39660   39678       1
   39663   39642   39660   39672       2   39663   39642   39660   39675       1
   39663   39642   39660   39678       1   39660   39672   39681   39693       2
   39660   39672   39681   39696       2   39657   39636   39651   39669       4
   39654   39630   39651   39669       4   39648   39627   39642   39660       2
   39648   39627   39642   39663       1   39648   39627   39642   39666       1
   39645   39627   39642   39660       2   39645   39627   39642   39663       1
   39645   39627   39642   39666       1   39642   39660   39672   39684       2
   39642   39660   39672   39687       2   39639   39624   39636   39651       4
   39639   39624   39636   39657       4   39636   39651   39630   39654       4
   39633   39621   39630   39651       4   39633   39621   39630   39654       4
   39630   39651   39636   39657       4   39627   39642   39660   39675       2
   39627   39642   39660   39678       2   39624   39603   39621   39633       4
   39624   39636   39651   39669       4   39621   39603   39624   39639       4
   39621   39630   39651   39669       4   39615   39597   39609   39627       4
   39612   39591   39609   39627       4   39609   39627   39642   39663       5
   39609   39627   39642   39666       5   39606   39588   39600   39618       4
   39603   39582   39600   39618       4   39603   39621   39630   39654       4
   39603   39624   39636   39657       4   39597   39609   39591   39612       4
   39597   39609   39627   39645       8   39597   39609   39627   39648       8
   39594   39573   39591   39609       4   39594   39573   39591   39612       4
   39591   39609   39597   39615       4   39591   39609   39627   39645       8
   39591   39609   39627   39648       8   39585   39567   39582   39600       4
   39585   39567   39582   39603       4   39582   39600   39588   39606       4
   39582   39603   39621   39633       4   39582   39603   39624   39639       4
   39579   39576   39597   39615       4   39576   39561   39573   39594       4
   39570   39558   39567   39585       4   39570   39588   39600   39618       4
   39567   39582   39600   39618       4   39564   39570   39588   39606       4
   39561   39573   39591   39612       4   39561   39576   39597   39615       4
   39558   39570   39588   39606       4   39555   39561   39573   39594       4
   39552   39558   39567   39585       4   39924   39909   39921   39927       1
   39924   39909   39921   39930       1   39924   39909   39921   39933       1
   39918   39909   39921   39927       1   39918   39909   39921   39930       1
   39918   39909   39921   39933       1   39915   39906   39909   39918       1
   39915   39906   39909   39921       2   39915   39906   39909   39924       1
   39912   39906   39909   39918       1   39912   39906   39909   39921       2
   39912   39906   39909   39924       1   39906   39909   39921   39927       2
   39906   39909   39921   39930       2   39906   39909   39921   39933       2
   39903   39891   39906   39909       2   39903   39891   39906   39912       1
   39903   39891   39906   39915       1   39900   39891   39906   39909       2
   39900   39891   39906   39912       1   39900   39891   39906   39915       1
   39897   39882   39891   39900       1   39897   39882   39891   39903       1
   39897   39882   39891   39906       2   39894   39882   39891   39900       1
   39894   39882   39891   39903       1   39894   39882   39891   39906       2
   39891   39906   39909   39918       2   39891   39906   39909   39924       2
   39888   39873   39882   39891       2   39888   39873   39882   39894       1
   39888   39873   39882   39897       1   39885   39873   39882   39891       2
   39885   39873   39882   39894       1   39885   39873   39882   39897       1
   39882   39891   39906   39912       2   39882   39891   39906   39915       2
   39879   39864   39873   39882       2   39879   39864   39873   39885       1
   39879   39864   39873   39888       1   39876   39864   39873   39882       2
   39876   39864   39873   39885       1   39876   39864   39873   39888       1
   39873   39882   39891   39900       2   39873   39882   39891   39903       2
   39870   39852   39864   39873       2   39870   39852   39864   39876       1
   39870   39852   39864   39879       1   39867   39852   39864   39873       2
   39867   39852   39864   39876       1   39867   39852   39864   39879       1
   39864   39873   39882   39894       2   39864   39873   39882   39897       2
   39858   39834   39852   39864       2   39858   39834   39852   39867       1
   39858   39834   39852   39870       1   39855   39834   39852   39864       2
   39855   39834   39852   39867       1   39855   39834   39852   39870       1
   39852   39864   39873   39885       2   39852   39864   39873   39888       2
   39849   39828   39843   39861       4   39846   39822   39843   39861       4
   39840   39819   39834   39852       2   39840   39819   39834   39855       1
   39840   39819   39834   39858       1   39837   39819   39834   39852       2
   39837   39819   39834   39855       1   39837   39819   39834   39858       1
   39834   39852   39864   39876       2   39834   39852   39864   39879       2
   39831   39816   39828   39843       4   39831   39816   39828   39849       4
   39828   39843   39822   39846       4   39825   39813   39822   39843       4
   39825   39813   39822   39846       4   39822   39843   39828   39849       4
   39819   39834   39852   39867       2   39819   39834   39852   39870       2
   39816   39795   39813   39825       4   39816   39828   39843   39861       4
   39813   39795   39816   39831       4   39813   39822   39843   39861       4
   39807   39789   39801   39819       4   39804   39783   39801   39819       4
   39801   39819   39834   39855       5   39801   39819   39834   39858       5
   39798   39780   39792   39810       4   39795   39774   39792   39810       4
   39795   39813   39822   39846       4   39795   39816   39828   39849       4
   39789   39801   39783   39804       4   39789   39801   39819   39837       8
   39789   39801   39819   39840       8   39786   39765   39783   39801       4
   39786   39765   39783   39804       4   39783   39801   39789   39807       4
   39783   39801   39819   39837       8   39783   39801   39819   39840       8
   39777   39759   39774   39792       4   39777   39759   39774   39795       4
   39774   39792   39780   39798       4   39774   39795   39813   39825       4
   39774   39795   39816   39831       4   39771   39768   39789   39807       4
   39768   39753   39765   39786       4   39762   39750   39759   39777       4
   39762   39780   39792   39810       4   39759   39774   39792   39810       4
   39756   39762   39780   39798       4   39753   39765   39783   39804       4
   39753   39768   39789   39807       4   39750   39762   39780   39798       4
   39747   39753   39765   39786       4   39744   39750   39759   39777       4
   40116   40101   40113   40119       1   40116   40101   40113   40122       1
   40116   40101   40113   40125       1   40110   40101   40113   40119       1
   40110   40101   40113   40122       1   40110   40101   40113   40125       1
   40107   40098   40101   40110       1   40107   40098   40101   40113       2
   40107   40098   40101   40116       1   40104   40098   40101   40110       1
   40104   40098   40101   40113       2   40104   40098   40101   40116       1
   40098   40101   40113   40119       2   40098   40101   40113   40122       2
   40098   40101   40113   40125       2   40095   40083   40098   40101       2
   40095   40083   40098   40104       1   40095   40083   40098   40107       1
   40092   40083   40098   40101       2   40092   40083   40098   40104       1
   40092   40083   40098   40107       1   40089   40074   40083   40092       1
   40089   40074   40083   40095       1   40089   40074   40083   40098       2
   40086   40074   40083   40092       1   40086   40074   40083   40095       1
   40086   40074   40083   40098       2   40083   40098   40101   40110       2
   40083   40098   40101   40116       2   40080   40065   40074   40083       2
   40080   40065   40074   40086       1   40080   40065   40074   40089       1
   40077   40065   40074   40083       2   40077   40065   40074   40086       1
   40077   40065   40074   40089       1   40074   40083   40098   40104       2
   40074   40083   40098   40107       2   40071   40056   40065   40074       2
   40071   40056   40065   40077       1   40071   40056   40065   40080       1
   40068   40056   40065   40074       2   40068   40056   40065   40077       1
   40068   40056   40065   40080       1   40065   40074   40083   40092       2
   40065   40074   40083   40095       2   40062   40044   40056   40065       2
   40062   40044   40056   40068       1   40062   40044   40056   40071       1
   40059   40044   40056   40065       2   40059   40044   40056   40068       1
   40059   40044   40056   40071       1   40056   40065   40074   40086       2
   40056   40065   40074   40089       2   40050   40026   40044   40056       2
   40050   40026   40044   40059       1   40050   40026   40044   40062       1
   40047   40026   40044   40056       2   40047   40026   40044   40059       1
   40047   40026   40044   40062       1   40044   40056   40065   40077       2
   40044   40056   40065   40080       2   40041   40020   40035   40053       4
   40038   40014   40035   40053       4   40032   40011   40026   40044       2
   40032   40011   40026   40047       1   40032   40011   40026   40050       1
   40029   40011   40026   40044       2   40029   40011   40026   40047       1
   40029   40011   40026   40050       1   40026   40044   40056   40068       2
   40026   40044   40056   40071       2   40023   40008   40020   40035       4
   40023   40008   40020   40041       4   40020   40035   40014   40038       4
   40017   40005   40014   40035       4   40017   40005   40014   40038       4
   40014   40035   40020   40041       4   40011   40026   40044   40059       2
   40011   40026   40044   40062       2   40008   39987   40005   40017       4
   40008   40020   40035   40053       4   40005   39987   40008   40023       4
   40005   40014   40035   40053       4   39999   39981   39993   40011       4
   39996   39975   39993   40011       4   39993   40011   40026   40047       5
   39993   40011   40026   40050       5   39990   39972   39984   40002       4
   39987   39966   39984   40002       4   39987   40005   40014   40038       4
   39987   40008   40020   40041       4   39981   39993   39975   39996       4
   39981   39993   40011   40029       8   39981   39993   40011   40032       8
   39978   39957   39975   39993       4   39978   39957   39975   39996       4
   39975   39993   39981   39999       4   39975   39993   40011   40029       8
   39975   39993   40011   40032       8   39969   39951   39966   39984       4
   39969   39951   39966   39987       4   39966   39984   39972   39990       4
   39966   39987   40005   40017       4   39966   39987   40008   40023       4
   39963   39960   39981   39999       4   39960   39945   39957   39978       4
   39954   39942   39951   39969       4   39954   39972   39984   40002       4
   39951   39966   39984   40002       4   39948   39954   39972   39990       4
   39945   39957   39975   39996       4   39945   39960   39981   39999       4
   39942   39954   39972   39990       4   39939   39945   39957   39978       4
   39936   39942   39951   39969       4   40308   40293   40305   40311       1
   40308   40293   40305   40314       1   40308   40293   40305   40317       1
   40302   40293   40305   40311       1   40302   40293   40305   40314       1
   40302   40293   40305   40317       1   40299   40290   40293   40302       1
   40299   40290   40293   40305       2   40299   40290   40293   40308       1
   40296   40290   40293   40302       1   40296   40290   40293   40305       2
   40296   40290   40293   40308       1   40290   40293   40305   40311       2
   40290   40293   40305   40314       2   40290   40293   40305   40317       2
   40287   40275   40290   40293       2   40287   40275   40290   40296       1
   40287   40275   40290   40299       1   40284   40275   40290   40293       2
   40284   40275   40290   40296       1   40284   40275   40290   40299       1
   40281   40266   40275   40284       1   40281   40266   40275   40287       1
   40281   40266   40275   40290       2   40278   40266   40275   40284       1
   40278   40266   40275   40287       1   40278   40266   40275   40290       2
   40275   40290   40293   40302       2   40275   40290   40293   40308       2
   40272   40257   40266   40275       2   40272   40257   40266   40278       1
   40272   40257   40266   40281       1   40269   40257   40266   40275       2
   40269   40257   40266   40278       1   40269   40257   40266   40281       1
   40266   40275   40290   40296       2   40266   40275   40290   40299       2
   40263   40248   40257   40266       2   40263   40248   40257   40269       1
   40263   40248   40257   40272       1   40260   40248   40257   40266       2
   40260   40248   40257   40269       1   40260   40248   40257   40272       1
   40257   40266   40275   40284       2   40257   40266   40275   40287       2
   40254   40236   40248   40257       2   40254   40236   40248   40260       1
   40254   40236   40248   40263       1   40251   40236   40248   40257       2
   40251   40236   40248   40260       1   40251   40236   40248   40263       1
   40248   40257   40266   40278       2   40248   40257   40266   40281       2
   40242   40218   40236   40248       2   40242   40218   40236   40251       1
   40242   40218   40236   40254       1   40239   40218   40236   40248       2
   40239   40218   40236   40251       1   40239   40218   40236   40254       1
   40236   40248   40257   40269       2   40236   40248   40257   40272       2
   40233   40212   40227   40245       4   40230   40206   40227   40245       4
   40224   40203   40218   40236       2   40224   40203   40218   40239       1
   40224   40203   40218   40242       1   40221   40203   40218   40236       2
   40221   40203   40218   40239       1   40221   40203   40218   40242       1
   40218   40236   40248   40260       2   40218   40236   40248   40263       2
   40215   40200   40212   40227       4   40215   40200   40212   40233       4
   40212   40227   40206   40230       4   40209   40197   40206   40227       4
   40209   40197   40206   40230       4   40206   40227   40212   40233       4
   40203   40218   40236   40251       2   40203   40218   40236   40254       2
   40200   40179   40197   40209       4   40200   40212   40227   40245       4
   40197   40179   40200   40215       4   40197   40206   40227   40245       4
   40191   40173   40185   40203       4   40188   40167   40185   40203       4
   40185   40203   40218   40239       5   40185   40203   40218   40242       5
   40182   40164   40176   40194       4   40179   40158   40176   40194       4
   40179   40197   40206   40230       4   40179   40200   40212   40233       4
   40173   40185   40167   40188       4   40173   40185   40203   40221       8
   40173   40185   40203   40224       8   40170   40149   40167   40185       4
   40170   40149   40167   40188       4   40167   40185   40173   40191       4
   40167   40185   40203   40221       8   40167   40185   40203   40224       8
   40161   40143   40158   40176       4   40161   40143   40158   40179       4
   40158   40176   40164   40182       4   40158   40179   40197   40209       4
   40158   40179   40200   40215       4   40155   40152   40173   40191       4
   40152   40137   40149   40170       4   40146   40134   40143   40161       4
   40146   40164   40176   40194       4   40143   40158   40176   40194       4
   40140   40146   40164   40182       4   40137   40149   40167   40188       4
   40137   40152   40173   40191       4   40134   40146   40164   40182       4
   40131   40137   40149   40170       4   40128   40134   40143   40161       4
   40500   40485   40497   40503       1   40500   40485   40497   40506       1
   40500   40485   40497   40509       1   40494   40485   40497   40503       1
   40494   40485   40497   40506       1   40494   40485   40497   40509       1
   40491   40482   40485   40494       1   40491   40482   40485   40497       2
   40491   40482   40485   40500       1   40488   40482   40485   40494       1
   40488   40482   40485   40497       2   40488   40482   40485   40500       1
   40482   40485   40497   40503       2   40482   40485   40497   40506       2
   40482   40485   40497   40509       2   40479   40467   40482   40485       2
   40479   40467   40482   40488       1   40479   40467   40482   40491       1
   40476   40467   40482   40485       2   40476   40467   40482   40488       1
   40476   40467   40482   40491       1   40473   40458   40467   40476       1
   40473   40458   40467   40479       1   40473   40458   40467   40482       2
   40470   40458   40467   40476       1   40470   40458   40467   40479       1
   40470   40458   40467   40482       2   40467   40482   40485   40494       2
   40467   40482   40485   40500       2   40464   40449   40458   40467       2
   40464   40449   40458   40470       1   40464   40449   40458   40473       1
   40461   40449   40458   40467       2   40461   40449   40458   40470       1
   40461   40449   40458   40473       1   40458   40467   40482   40488       2
   40458   40467   40482   40491       2   40455   40440   40449   40458       2
   40455   40440   40449   40461       1   40455   40440   40449   40464       1
   40452   40440   40449   40458       2   40452   40440   40449   40461       1
   40452   40440   40449   40464       1   40449   40458   40467   40476       2
   40449   40458   40467   40479       2   40446   40428   40440   40449       2
   40446   40428   40440   40452       1   40446   40428   40440   40455       1
   40443   40428   40440   40449       2   40443   40428   40440   40452       1
   40443   40428   40440   40455       1   40440   40449   40458   40470       2
   40440   40449   40458   40473       2   40434   40410   40428   40440       2
   40434   40410   40428   40443       1   40434   40410   40428   40446       1
   40431   40410   40428   40440       2   40431   40410   40428   40443       1
   40431   40410   40428   40446       1   40428   40440   40449   40461       2
   40428   40440   40449   40464       2   40425   40404   40419   40437       4
   40422   40398   40419   40437       4   40416   40395   40410   40428       2
   40416   40395   40410   40431       1   40416   40395   40410   40434       1
   40413   40395   40410   40428       2   40413   40395   40410   40431       1
   40413   40395   40410   40434       1   40410   40428   40440   40452       2
   40410   40428   40440   40455       2   40407   40392   40404   40419       4
   40407   40392   40404   40425       4   40404   40419   40398   40422       4
   40401   40389   40398   40419       4   40401   40389   40398   40422       4
   40398   40419   40404   40425       4   40395   40410   40428   40443       2
   40395   40410   40428   40446       2   40392   40371   40389   40401       4
   40392   40404   40419   40437       4   40389   40371   40392   40407       4
   40389   40398   40419   40437       4   40383   40365   40377   40395       4
   40380   40359   40377   40395       4   40377   40395   40410   40431       5
   40377   40395   40410   40434       5   40374   40356   40368   40386       4
   40371   40350   40368   40386       4   40371   40389   40398   40422       4
   40371   40392   40404   40425       4   40365   40377   40359   40380       4
   40365   40377   40395   40413       8   40365   40377   40395   40416       8
   40362   40341   40359   40377       4   40362   40341   40359   40380       4
   40359   40377   40365   40383       4   40359   40377   40395   40413       8
   40359   40377   40395   40416       8   40353   40335   40350   40368       4
   40353   40335   40350   40371       4   40350   40368   40356   40374       4
   40350   40371   40389   40401       4   40350   40371   40392   40407       4
   40347   40344   40365   40383       4   40344   40329   40341   40362       4
   40338   40326   40335   40353       4   40338   40356   40368   40386       4
   40335   40350   40368   40386       4   40332   40338   40356   40374       4
   40329   40341   40359   40380       4   40329   40344   40365   40383       4
   40326   40338   40356   40374       4   40323   40329   40341   40362       4
   40320   40326   40335   40353       4   40692   40677   40689   40695       1
   40692   40677   40689   40698       1   40692   40677   40689   40701       1
   40686   40677   40689   40695       1   40686   40677   40689   40698       1
   40686   40677   40689   40701       1   40683   40674   40677   40686       1
   40683   40674   40677   40689       2   40683   40674   40677   40692       1
   40680   40674   40677   40686       1   40680   40674   40677   40689       2
   40680   40674   40677   40692       1   40674   40677   40689   40695       2
   40674   40677   40689   40698       2   40674   40677   40689   40701       2
   40671   40659   40674   40677       2   40671   40659   40674   40680       1
   40671   40659   40674   40683       1   40668   40659   40674   40677       2
   40668   40659   40674   40680       1   40668   40659   40674   40683       1
   40665   40650   40659   40668       1   40665   40650   40659   40671       1
   40665   40650   40659   40674       2   40662   40650   40659   40668       1
   40662   40650   40659   40671       1   40662   40650   40659   40674       2
   40659   40674   40677   40686       2   40659   40674   40677   40692       2
   40656   40641   40650   40659       2   40656   40641   40650   40662       1
   40656   40641   40650   40665       1   40653   40641   40650   40659       2
   40653   40641   40650   40662       1   40653   40641   40650   40665       1
   40650   40659   40674   40680       2   40650   40659   40674   40683       2
   40647   40632   40641   40650       2   40647   40632   40641   40653       1
   40647   40632   40641   40656       1   40644   40632   40641   40650       2
   40644   40632   40641   40653       1   40644   40632   40641   40656       1
   40641   40650   40659   40668       2   40641   40650   40659   40671       2
   40638   40620   40632   40641       2   40638   40620   40632   40644       1
   40638   40620   40632   40647       1   40635   40620   40632   40641       2
   40635   40620   40632   40644       1   40635   40620   40632   40647       1
   40632   40641   40650   40662       2   40632   40641   40650   40665       2
   40626   40602   40620   40632       2   40626   40602   40620   40635       1
   40626   40602   40620   40638       1   40623   40602   40620   40632       2
   40623   40602   40620   40635       1   40623   40602   40620   40638       1
   40620   40632   40641   40653       2   40620   40632   40641   40656       2
   40617   40596   40611   40629       4   40614   40590   40611   40629       4
   40608   40587   40602   40620       2   40608   40587   40602   40623       1
   40608   40587   40602   40626       1   40605   40587   40602   40620       2
   40605   40587   40602   40623       1   40605   40587   40602   40626       1
   40602   40620   40632   40644       2   40602   40620   40632   40647       2
   40599   40584   40596   40611       4   40599   40584   40596   40617       4
   40596   40611   40590   40614       4   40593   40581   40590   40611       4
   40593   40581   40590   40614       4   40590   40611   40596   40617       4
   40587   40602   40620   40635       2   40587   40602   40620   40638       2
   40584   40563   40581   40593       4   40584   40596   40611   40629       4
   40581   40563   40584   40599       4   40581   40590   40611   40629       4
   40575   40557   40569   40587       4   40572   40551   40569   40587       4
   40569   40587   40602   40623       5   40569   40587   40602   40626       5
   40566   40548   40560   40578       4   40563   40542   40560   40578       4
   40563   40581   40590   40614       4   40563   40584   40596   40617       4
   40557   40569   40551   40572       4   40557   40569   40587   40605       8
   40557   40569   40587   40608       8   40554   40533   40551   40569       4
   40554   40533   40551   40572       4   40551   40569   40557   40575       4
   40551   40569   40587   40605       8   40551   40569   40587   40608       8
   40545   40527   40542   40560       4   40545   40527   40542   40563       4
   40542   40560   40548   40566       4   40542   40563   40581   40593       4
   40542   40563   40584   40599       4   40539   40536   40557   40575       4
   40536   40521   40533   40554       4   40530   40518   40527   40545       4
   40530   40548   40560   40578       4   40527   40542   40560   40578       4
   40524   40530   40548   40566       4   40521   40533   40551   40572       4
   40521   40536   40557   40575       4   40518   40530   40548   40566       4
   40515   40521   40533   40554       4   40512   40518   40527   40545       4
   40884   40869   40881   40887       1   40884   40869   40881   40890       1
   40884   40869   40881   40893       1   40878   40869   40881   40887       1
   40878   40869   40881   40890       1   40878   40869   40881   40893       1
   40875   40866   40869   40878       1   40875   40866   40869   40881       2
   40875   40866   40869   40884       1   40872   40866   40869   40878       1
   40872   40866   40869   40881       2   40872   40866   40869   40884       1
   40866   40869   40881   40887       2   40866   40869   40881   40890       2
   40866   40869   40881   40893       2   40863   40851   40866   40869       2
   40863   40851   40866   40872       1   40863   40851   40866   40875       1
   40860   40851   40866   40869       2   40860   40851   40866   40872       1
   40860   40851   40866   40875       1   40857   40842   40851   40860       1
   40857   40842   40851   40863       1   40857   40842   40851   40866       2
   40854   40842   40851   40860       1   40854   40842   40851   40863       1
   40854   40842   40851   40866       2   40851   40866   40869   40878       2
   40851   40866   40869   40884       2   40848   40833   40842   40851       2
   40848   40833   40842   40854       1   40848   40833   40842   40857       1
   40845   40833   40842   40851       2   40845   40833   40842   40854       1
   40845   40833   40842   40857       1   40842   40851   40866   40872       2
   40842   40851   40866   40875       2   40839   40824   40833   40842       2
   40839   40824   40833   40845       1   40839   40824   40833   40848       1
   40836   40824   40833   40842       2   40836   40824   40833   40845       1
   40836   40824   40833   40848       1   40833   40842   40851   40860       2
   40833   40842   40851   40863       2   40830   40812   40824   40833       2
   40830   40812   40824   40836       1   40830   40812   40824   40839       1
   40827   40812   40824   40833       2   40827   40812   40824   40836       1
   40827   40812   40824   40839       1   40824   40833   40842   40854       2
   40824   40833   40842   40857       2   40818   40794   40812   40824       2
   40818   40794   40812   40827       1   40818   40794   40812   40830       1
   40815   40794   40812   40824       2   40815   40794   40812   40827       1
   40815   40794   40812   40830       1   40812   40824   40833   40845       2
   40812   40824   40833   40848       2   40809   40788   40803   40821       4
   40806   40782   40803   40821       4   40800   40779   40794   40812       2
   40800   40779   40794   40815       1   40800   40779   40794   40818       1
   40797   40779   40794   40812       2   40797   40779   40794   40815       1
   40797   40779   40794   40818       1   40794   40812   40824   40836       2
   40794   40812   40824   40839       2   40791   40776   40788   40803       4
   40791   40776   40788   40809       4   40788   40803   40782   40806       4
   40785   40773   40782   40803       4   40785   40773   40782   40806       4
   40782   40803   40788   40809       4   40779   40794   40812   40827       2
   40779   40794   40812   40830       2   40776   40755   40773   40785       4
   40776   40788   40803   40821       4   40773   40755   40776   40791       4
   40773   40782   40803   40821       4   40767   40749   40761   40779       4
   40764   40743   40761   40779       4   40761   40779   40794   40815       5
   40761   40779   40794   40818       5   40758   40740   40752   40770       4
   40755   40734   40752   40770       4   40755   40773   40782   40806       4
   40755   40776   40788   40809       4   40749   40761   40743   40764       4
   40749   40761   40779   40797       8   40749   40761   40779   40800       8
   40746   40725   40743   40761       4   40746   40725   40743   40764       4
   40743   40761   40749   40767       4   40743   40761   40779   40797       8
   40743   40761   40779   40800       8   40737   40719   40734   40752       4
   40737   40719   40734   40755       4   40734   40752   40740   40758       4
   40734   40755   40773   40785       4   40734   40755   40776   40791       4
   40731   40728   40749   40767       4   40728   40713   40725   40746       4
   40722   40710   40719   40737       4   40722   40740   40752   40770       4
   40719   40734   40752   40770       4   40716   40722   40740   40758       4
   40713   40725   40743   40764       4   40713   40728   40749   40767       4
   40710   40722   40740   40758       4   40707   40713   40725   40746       4
   40704   40710   40719   40737       4   41076   41061   41073   41079       1
   41076   41061   41073   41082       1   41076   41061   41073   41085       1
   41070   41061   41073   41079       1   41070   41061   41073   41082       1
   41070   41061   41073   41085       1   41067   41058   41061   41070       1
   41067   41058   41061   41073       2   41067   41058   41061   41076       1
   41064   41058   41061   41070       1   41064   41058   41061   41073       2
   41064   41058   41061   41076       1   41058   41061   41073   41079       2
   41058   41061   41073   41082       2   41058   41061   41073   41085       2
   41055   41043   41058   41061       2   41055   41043   41058   41064       1
   41055   41043   41058   41067       1   41052   41043   41058   41061       2
   41052   41043   41058   41064       1   41052   41043   41058   41067       1
   41049   41034   41043   41052       1   41049   41034   41043   41055       1
   41049   41034   41043   41058       2   41046   41034   41043   41052       1
   41046   41034   41043   41055       1   41046   41034   41043   41058       2
   41043   41058   41061   41070       2   41043   41058   41061   41076       2
   41040   41025   41034   41043       2   41040   41025   41034   41046       1
   41040   41025   41034   41049       1   41037   41025   41034   41043       2
   41037   41025   41034   41046       1   41037   41025   41034   41049       1
   41034   41043   41058   41064       2   41034   41043   41058   41067       2
   41031   41016   41025   41034       2   41031   41016   41025   41037       1
   41031   41016   41025   41040       1   41028   41016   41025   41034       2
   41028   41016   41025   41037       1   41028   41016   41025   41040       1
   41025   41034   41043   41052       2   41025   41034   41043   41055       2
   41022   41004   41016   41025       2   41022   41004   41016   41028       1
   41022   41004   41016   41031       1   41019   41004   41016   41025       2
   41019   41004   41016   41028       1   41019   41004   41016   41031       1
   41016   41025   41034   41046       2   41016   41025   41034   41049       2
   41010   40986   41004   41016       2   41010   40986   41004   41019       1
   41010   40986   41004   41022       1   41007   40986   41004   41016       2
   41007   40986   41004   41019       1   41007   40986   41004   41022       1
   41004   41016   41025   41037       2   41004   41016   41025   41040       2
   41001   40980   40995   41013       4   40998   40974   40995   41013       4
   40992   40971   40986   41004       2   40992   40971   40986   41007       1
   40992   40971   40986   41010       1   40989   40971   40986   41004       2
   40989   40971   40986   41007       1   40989   40971   40986   41010       1
   40986   41004   41016   41028       2   40986   41004   41016   41031       2
   40983   40968   40980   40995       4   40983   40968   40980   41001       4
   40980   40995   40974   40998       4   40977   40965   40974   40995       4
   40977   40965   40974   40998       4   40974   40995   40980   41001       4
   40971   40986   41004   41019       2   40971   40986   41004   41022       2
   40968   40947   40965   40977       4   40968   40980   40995   41013       4
   40965   40947   40968   40983       4   40965   40974   40995   41013       4
   40959   40941   40953   40971       4   40956   40935   40953   40971       4
   40953   40971   40986   41007       5   40953   40971   40986   41010       5
   40950   40932   40944   40962       4   40947   40926   40944   40962       4
   40947   40965   40974   40998       4   40947   40968   40980   41001       4
   40941   40953   40935   40956       4   40941   40953   40971   40989       8
   40941   40953   40971   40992       8   40938   40917   40935   40953       4
   40938   40917   40935   40956       4   40935   40953   40941   40959       4
   40935   40953   40971   40989       8   40935   40953   40971   40992       8
   40929   40911   40926   40944       4   40929   40911   40926   40947       4
   40926   40944   40932   40950       4   40926   40947   40965   40977       4
   40926   40947   40968   40983       4   40923   40920   40941   40959       4
   40920   40905   40917   40938       4   40914   40902   40911   40929       4
   40914   40932   40944   40962       4   40911   40926   40944   40962       4
   40908   40914   40932   40950       4   40905   40917   40935   40956       4
   40905   40920   40941   40959       4   40902   40914   40932   40950       4
   40899   40905   40917   40938       4   40896   40902   40911   40929       4
   41268   41253   41265   41271       1   41268   41253   41265   41274       1
   41268   41253   41265   41277       1   41262   41253   41265   41271       1
   41262   41253   41265   41274       1   41262   41253   41265   41277       1
   41259   41250   41253   41262       1   41259   41250   41253   41265       2
   41259   41250   41253   41268       1   41256   41250   41253   41262       1
   41256   41250   41253   41265       2   41256   41250   41253   41268       1
   41250   41253   41265   41271       2   41250   41253   41265   41274       2
   41250   41253   41265   41277       2   41247   41235   41250   41253       2
   41247   41235   41250   41256       1   41247   41235   41250   41259       1
   41244   41235   41250   41253       2   41244   41235   41250   41256       1
   41244   41235   41250   41259       1   41241   41226   41235   41244       1
   41241   41226   41235   41247       1   41241   41226   41235   41250       2
   41238   41226   41235   41244       1   41238   41226   41235   41247       1
   41238   41226   41235   41250       2   41235   41250   41253   41262       2
   41235   41250   41253   41268       2   41232   41217   41226   41235       2
   41232   41217   41226   41238       1   41232   41217   41226   41241       1
   41229   41217   41226   41235       2   41229   41217   41226   41238       1
   41229   41217   41226   41241       1   41226   41235   41250   41256       2
   41226   41235   41250   41259       2   41223   41208   41217   41226       2
   41223   41208   41217   41229       1   41223   41208   41217   41232       1
   41220   41208   41217   41226       2   41220   41208   41217   41229       1
   41220   41208   41217   41232       1   41217   41226   41235   41244       2
   41217   41226   41235   41247       2   41214   41196   41208   41217       2
   41214   41196   41208   41220       1   41214   41196   41208   41223       1
   41211   41196   41208   41217       2   41211   41196   41208   41220       1
   41211   41196   41208   41223       1   41208   41217   41226   41238       2
   41208   41217   41226   41241       2   41202   41178   41196   41208       2
   41202   41178   41196   41211       1   41202   41178   41196   41214       1
   41199   41178   41196   41208       2   41199   41178   41196   41211       1
   41199   41178   41196   41214       1   41196   41208   41217   41229       2
   41196   41208   41217   41232       2   41193   41172   41187   41205       4
   41190   41166   41187   41205       4   41184   41163   41178   41196       2
   41184   41163   41178   41199       1   41184   41163   41178   41202       1
   41181   41163   41178   41196       2   41181   41163   41178   41199       1
   41181   41163   41178   41202       1   41178   41196   41208   41220       2
   41178   41196   41208   41223       2   41175   41160   41172   41187       4
   41175   41160   41172   41193       4   41172   41187   41166   41190       4
   41169   41157   41166   41187       4   41169   41157   41166   41190       4
   41166   41187   41172   41193       4   41163   41178   41196   41211       2
   41163   41178   41196   41214       2   41160   41139   41157   41169       4
   41160   41172   41187   41205       4   41157   41139   41160   41175       4
   41157   41166   41187   41205       4   41151   41133   41145   41163       4
   41148   41127   41145   41163       4   41145   41163   41178   41199       5
   41145   41163   41178   41202       5   41142   41124   41136   41154       4
   41139   41118   41136   41154       4   41139   41157   41166   41190       4
   41139   41160   41172   41193       4   41133   41145   41127   41148       4
   41133   41145   41163   41181       8   41133   41145   41163   41184       8
   41130   41109   41127   41145       4   41130   41109   41127   41148       4
   41127   41145   41133   41151       4   41127   41145   41163   41181       8
   41127   41145   41163   41184       8   41121   41103   41118   41136       4
   41121   41103   41118   41139       4   41118   41136   41124   41142       4
   41118   41139   41157   41169       4   41118   41139   41160   41175       4
   41115   41112   41133   41151       4   41112   41097   41109   41130       4
   41106   41094   41103   41121       4   41106   41124   41136   41154       4
   41103   41118   41136   41154       4   41100   41106   41124   41142       4
   41097   41109   41127   41148       4   41097   41112   41133   41151       4
   41094   41106   41124   41142       4   41091   41097   41109   41130       4
   41088   41094   41103   41121       4   41460   41445   41457   41463       1
   41460   41445   41457   41466       1   41460   41445   41457   41469       1
   41454   41445   41457   41463       1   41454   41445   41457   41466       1
   41454   41445   41457   41469       1   41451   41442   41445   41454       1
   41451   41442   41445   41457       2   41451   41442   41445   41460       1
   41448   41442   41445   41454       1   41448   41442   41445   41457       2
   41448   41442   41445   41460       1   41442   41445   41457   41463       2
   41442   41445   41457   41466       2   41442   41445   41457   41469       2
   41439   41427   41442   41445       2   41439   41427   41442   41448       1
   41439   41427   41442   41451       1   41436   41427   41442   41445       2
   41436   41427   41442   41448       1   41436   41427   41442   41451       1
   41433   41418   41427   41436       1   41433   41418   41427   41439       1
   41433   41418   41427   41442       2   41430   41418   41427   41436       1
   41430   41418   41427   41439       1   41430   41418   41427   41442       2
   41427   41442   41445   41454       2   41427   41442   41445   41460       2
   41424   41409   41418   41427       2   41424   41409   41418   41430       1
   41424   41409   41418   41433       1   41421   41409   41418   41427       2
   41421   41409   41418   41430       1   41421   41409   41418   41433       1
   41418   41427   41442   41448       2   41418   41427   41442   41451       2
   41415   41400   41409   41418       2   41415   41400   41409   41421       1
   41415   41400   41409   41424       1   41412   41400   41409   41418       2
   41412   41400   41409   41421       1   41412   41400   41409   41424       1
   41409   41418   41427   41436       2   41409   41418   41427   41439       2
   41406   41388   41400   41409       2   41406   41388   41400   41412       1
   41406   41388   41400   41415       1   41403   41388   41400   41409       2
   41403   41388   41400   41412       1   41403   41388   41400   41415       1
   41400   41409   41418   41430       2   41400   41409   41418   41433       2
   41394   41370   41388   41400       2   41394   41370   41388   41403       1
   41394   41370   41388   41406       1   41391   41370   41388   41400       2
   41391   41370   41388   41403       1   41391   41370   41388   41406       1
   41388   41400   41409   41421       2   41388   41400   41409   41424       2
   41385   41364   41379   41397       4   41382   41358   41379   41397       4
   41376   41355   41370   41388       2   41376   41355   41370   41391       1
   41376   41355   41370   41394       1   41373   41355   41370   41388       2
   41373   41355   41370   41391       1   41373   41355   41370   41394       1
   41370   41388   41400   41412       2   41370   41388   41400   41415       2
   41367   41352   41364   41379       4   41367   41352   41364   41385       4
   41364   41379   41358   41382       4   41361   41349   41358   41379       4
   41361   41349   41358   41382       4   41358   41379   41364   41385       4
   41355   41370   41388   41403       2   41355   41370   41388   41406       2
   41352   41331   41349   41361       4   41352   41364   41379   41397       4
   41349   41331   41352   41367       4   41349   41358   41379   41397       4
   41343   41325   41337   41355       4   41340   41319   41337   41355       4
   41337   41355   41370   41391       5   41337   41355   41370   41394       5
   41334   41316   41328   41346       4   41331   41310   41328   41346       4
   41331   41349   41358   41382       4   41331   41352   41364   41385       4
   41325   41337   41319   41340       4   41325   41337   41355   41373       8
   41325   41337   41355   41376       8   41322   41301   41319   41337       4
   41322   41301   41319   41340       4   41319   41337   41325   41343       4
   41319   41337   41355   41373       8   41319   41337   41355   41376       8
   41313   41295   41310   41328       4   41313   41295   41310   41331       4
   41310   41328   41316   41334       4   41310   41331   41349   41361       4
   41310   41331   41352   41367       4   41307   41304   41325   41343       4
   41304   41289   41301   41322       4   41298   41286   41295   41313       4
   41298   41316   41328   41346       4   41295   41310   41328   41346       4
   41292   41298   41316   41334       4   41289   41301   41319   41340       4
   41289   41304   41325   41343       4   41286   41298   41316   41334       4
   41283   41289   41301   41322       4   41280   41286   41295   41313       4
   41652   41637   41649   41655       1   41652   41637   41649   41658       1
   41652   41637   41649   41661       1   41646   41637   41649   41655       1
   41646   41637   41649   41658       1   41646   41637   41649   41661       1
   41643   41634   41637   41646       1   41643   41634   41637   41649       2
   41643   41634   41637   41652       1   41640   41634   41637   41646       1
   41640   41634   41637   41649       2   41640   41634   41637   41652       1
   41634   41637   41649   41655       2   41634   41637   41649   41658       2
   41634   41637   41649   41661       2   41631   41619   41634   41637       2
   41631   41619   41634   41640       1   41631   41619   41634   41643       1
   41628   41619   41634   41637       2   41628   41619   41634   41640       1
   41628   41619   41634   41643       1   41625   41610   41619   41628       1
   41625   41610   41619   41631       1   41625   41610   41619   41634       2
   41622   41610   41619   41628       1   41622   41610   41619   41631       1
   41622   41610   41619   41634       2   41619   41634   41637   41646       2
   41619   41634   41637   41652       2   41616   41601   41610   41619       2
   41616   41601   41610   41622       1   41616   41601   41610   41625       1
   41613   41601   41610   41619       2   41613   41601   41610   41622       1
   41613   41601   41610   41625       1   41610   41619   41634   41640       2
   41610   41619   41634   41643       2   41607   41592   41601   41610       2
   41607   41592   41601   41613       1   41607   41592   41601   41616       1
   41604   41592   41601   41610       2   41604   41592   41601   41613       1
   41604   41592   41601   41616       1   41601   41610   41619   41628       2
   41601   41610   41619   41631       2   41598   41580   41592   41601       2
   41598   41580   41592   41604       1   41598   41580   41592   41607       1
   41595   41580   41592   41601       2   41595   41580   41592   41604       1
   41595   41580   41592   41607       1   41592   41601   41610   41622       2
   41592   41601   41610   41625       2   41586   41562   41580   41592       2
   41586   41562   41580   41595       1   41586   41562   41580   41598       1
   41583   41562   41580   41592       2   41583   41562   41580   41595       1
   41583   41562   41580   41598       1   41580   41592   41601   41613       2
   41580   41592   41601   41616       2   41577   41556   41571   41589       4
   41574   41550   41571   41589       4   41568   41547   41562   41580       2
   41568   41547   41562   41583       1   41568   41547   41562   41586       1
   41565   41547   41562   41580       2   41565   41547   41562   41583       1
   41565   41547   41562   41586       1   41562   41580   41592   41604       2
   41562   41580   41592   41607       2   41559   41544   41556   41571       4
   41559   41544   41556   41577       4   41556   41571   41550   41574       4
   41553   41541   41550   41571       4   41553   41541   41550   41574       4
   41550   41571   41556   41577       4   41547   41562   41580   41595       2
   41547   41562   41580   41598       2   41544   41523   41541   41553       4
   41544   41556   41571   41589       4   41541   41523   41544   41559       4
   41541   41550   41571   41589       4   41535   41517   41529   41547       4
   41532   41511   41529   41547       4   41529   41547   41562   41583       5
   41529   41547   41562   41586       5   41526   41508   41520   41538       4
   41523   41502   41520   41538       4   41523   41541   41550   41574       4
   41523   41544   41556   41577       4   41517   41529   41511   41532       4
   41517   41529   41547   41565       8   41517   41529   41547   41568       8
   41514   41493   41511   41529       4   41514   41493   41511   41532       4
   41511   41529   41517   41535       4   41511   41529   41547   41565       8
   41511   41529   41547   41568       8   41505   41487   41502   41520       4
   41505   41487   41502   41523       4   41502   41520   41508   41526       4
   41502   41523   41541   41553       4   41502   41523   41544   41559       4
   41499   41496   41517   41535       4   41496   41481   41493   41514       4
   41490   41478   41487   41505       4   41490   41508   41520   41538       4
   41487   41502   41520   41538       4   41484   41490   41508   41526       4
   41481   41493   41511   41532       4   41481   41496   41517   41535       4
   41478   41490   41508   41526       4   41475   41481   41493   41514       4
   41472   41478   41487   41505       4   41844   41829   41841   41847       1
   41844   41829   41841   41850       1   41844   41829   41841   41853       1
   41838   41829   41841   41847       1   41838   41829   41841   41850       1
   41838   41829   41841   41853       1   41835   41826   41829   41838       1
   41835   41826   41829   41841       2   41835   41826   41829   41844       1
   41832   41826   41829   41838       1   41832   41826   41829   41841       2
   41832   41826   41829   41844       1   41826   41829   41841   41847       2
   41826   41829   41841   41850       2   41826   41829   41841   41853       2
   41823   41811   41826   41829       2   41823   41811   41826   41832       1
   41823   41811   41826   41835       1   41820   41811   41826   41829       2
   41820   41811   41826   41832       1   41820   41811   41826   41835       1
   41817   41802   41811   41820       1   41817   41802   41811   41823       1
   41817   41802   41811   41826       2   41814   41802   41811   41820       1
   41814   41802   41811   41823       1   41814   41802   41811   41826       2
   41811   41826   41829   41838       2   41811   41826   41829   41844       2
   41808   41793   41802   41811       2   41808   41793   41802   41814       1
   41808   41793   41802   41817       1   41805   41793   41802   41811       2
   41805   41793   41802   41814       1   41805   41793   41802   41817       1
   41802   41811   41826   41832       2   41802   41811   41826   41835       2
   41799   41784   41793   41802       2   41799   41784   41793   41805       1
   41799   41784   41793   41808       1   41796   41784   41793   41802       2
   41796   41784   41793   41805       1   41796   41784   41793   41808       1
   41793   41802   41811   41820       2   41793   41802   41811   41823       2
   41790   41772   41784   41793       2   41790   41772   41784   41796       1
   41790   41772   41784   41799       1   41787   41772   41784   41793       2
   41787   41772   41784   41796       1   41787   41772   41784   41799       1
   41784   41793   41802   41814       2   41784   41793   41802   41817       2
   41778   41754   41772   41784       2   41778   41754   41772   41787       1
   41778   41754   41772   41790       1   41775   41754   41772   41784       2
   41775   41754   41772   41787       1   41775   41754   41772   41790       1
   41772   41784   41793   41805       2   41772   41784   41793   41808       2
   41769   41748   41763   41781       4   41766   41742   41763   41781       4
   41760   41739   41754   41772       2   41760   41739   41754   41775       1
   41760   41739   41754   41778       1   41757   41739   41754   41772       2
   41757   41739   41754   41775       1   41757   41739   41754   41778       1
   41754   41772   41784   41796       2   41754   41772   41784   41799       2
   41751   41736   41748   41763       4   41751   41736   41748   41769       4
   41748   41763   41742   41766       4   41745   41733   41742   41763       4
   41745   41733   41742   41766       4   41742   41763   41748   41769       4
   41739   41754   41772   41787       2   41739   41754   41772   41790       2
   41736   41715   41733   41745       4   41736   41748   41763   41781       4
   41733   41715   41736   41751       4   41733   41742   41763   41781       4
   41727   41709   41721   41739       4   41724   41703   41721   41739       4
   41721   41739   41754   41775       5   41721   41739   41754   41778       5
   41718   41700   41712   41730       4   41715   41694   41712   41730       4
   41715   41733   41742   41766       4   41715   41736   41748   41769       4
   41709   41721   41703   41724       4   41709   41721   41739   41757       8
   41709   41721   41739   41760       8   41706   41685   41703   41721       4
   41706   41685   41703   41724       4   41703   41721   41709   41727       4
   41703   41721   41739   41757       8   41703   41721   41739   41760       8
   41697   41679   41694   41712       4   41697   41679   41694   41715       4
   41694   41712   41700   41718       4   41694   41715   41733   41745       4
   41694   41715   41736   41751       4   41691   41688   41709   41727       4
   41688   41673   41685   41706       4   41682   41670   41679   41697       4
   41682   41700   41712   41730       4   41679   41694   41712   41730       4
   41676   41682   41700   41718       4   41673   41685   41703   41724       4
   41673   41688   41709   41727       4   41670   41682   41700   41718       4
   41667   41673   41685   41706       4   41664   41670   41679   41697       4
   42036   42021   42033   42039       1   42036   42021   42033   42042       1
   42036   42021   42033   42045       1   42030   42021   42033   42039       1
   42030   42021   42033   42042       1   42030   42021   42033   42045       1
   42027   42018   42021   42030       1   42027   42018   42021   42033       2
   42027   42018   42021   42036       1   42024   42018   42021   42030       1
   42024   42018   42021   42033       2   42024   42018   42021   42036       1
   42018   42021   42033   42039       2   42018   42021   42033   42042       2
   42018   42021   42033   42045       2   42015   42003   42018   42021       2
   42015   42003   42018   42024       1   42015   42003   42018   42027       1
   42012   42003   42018   42021       2   42012   42003   42018   42024       1
   42012   42003   42018   42027       1   42009   41994   42003   42012       1
   42009   41994   42003   42015       1   42009   41994   42003   42018       2
   42006   41994   42003   42012       1   42006   41994   42003   42015       1
   42006   41994   42003   42018       2   42003   42018   42021   42030       2
   42003   42018   42021   42036       2   42000   41985   41994   42003       2
   42000   41985   41994   42006       1   42000   41985   41994   42009       1
   41997   41985   41994   42003       2   41997   41985   41994   42006       1
   41997   41985   41994   42009       1   41994   42003   42018   42024       2
   41994   42003   42018   42027       2   41991   41976   41985   41994       2
   41991   41976   41985   41997       1   41991   41976   41985   42000       1
   41988   41976   41985   41994       2   41988   41976   41985   41997       1
   41988   41976   41985   42000       1   41985   41994   42003   42012       2
   41985   41994   42003   42015       2   41982   41964   41976   41985       2
   41982   41964   41976   41988       1   41982   41964   41976   41991       1
   41979   41964   41976   41985       2   41979   41964   41976   41988       1
   41979   41964   41976   41991       1   41976   41985   41994   42006       2
   41976   41985   41994   42009       2   41970   41946   41964   41976       2
   41970   41946   41964   41979       1   41970   41946   41964   41982       1
   41967   41946   41964   41976       2   41967   41946   41964   41979       1
   41967   41946   41964   41982       1   41964   41976   41985   41997       2
   41964   41976   41985   42000       2   41961   41940   41955   41973       4
   41958   41934   41955   41973       4   41952   41931   41946   41964       2
   41952   41931   41946   41967       1   41952   41931   41946   41970       1
   41949   41931   41946   41964       2   41949   41931   41946   41967       1
   41949   41931   41946   41970       1   41946   41964   41976   41988       2
   41946   41964   41976   41991       2   41943   41928   41940   41955       4
   41943   41928   41940   41961       4   41940   41955   41934   41958       4
   41937   41925   41934   41955       4   41937   41925   41934   41958       4
   41934   41955   41940   41961       4   41931   41946   41964   41979       2
   41931   41946   41964   41982       2   41928   41907   41925   41937       4
   41928   41940   41955   41973       4   41925   41907   41928   41943       4
   41925   41934   41955   41973       4   41919   41901   41913   41931       4
   41916   41895   41913   41931       4   41913   41931   41946   41967       5
   41913   41931   41946   41970       5   41910   41892   41904   41922       4
   41907   41886   41904   41922       4   41907   41925   41934   41958       4
   41907   41928   41940   41961       4   41901   41913   41895   41916       4
   41901   41913   41931   41949       8   41901   41913   41931   41952       8
   41898   41877   41895   41913       4   41898   41877   41895   41916       4
   41895   41913   41901   41919       4   41895   41913   41931   41949       8
   41895   41913   41931   41952       8   41889   41871   41886   41904       4
   41889   41871   41886   41907       4   41886   41904   41892   41910       4
   41886   41907   41925   41937       4   41886   41907   41928   41943       4
   41883   41880   41901   41919       4   41880   41865   41877   41898       4
   41874   41862   41871   41889       4   41874   41892   41904   41922       4
   41871   41886   41904   41922       4   41868   41874   41892   41910       4
   41865   41877   41895   41916       4   41865   41880   41901   41919       4
   41862   41874   41892   41910       4   41859   41865   41877   41898       4
   41856   41862   41871   41889       4   42228   42213   42225   42231       1
   42228   42213   42225   42234       1   42228   42213   42225   42237       1
   42222   42213   42225   42231       1   42222   42213   42225   42234       1
   42222   42213   42225   42237       1   42219   42210   42213   42222       1
   42219   42210   42213   42225       2   42219   42210   42213   42228       1
   42216   42210   42213   42222       1   42216   42210   42213   42225       2
   42216   42210   42213   42228       1   42210   42213   42225   42231       2
   42210   42213   42225   42234       2   42210   42213   42225   42237       2
   42207   42195   42210   42213       2   42207   42195   42210   42216       1
   42207   42195   42210   42219       1   42204   42195   42210   42213       2
   42204   42195   42210   42216       1   42204   42195   42210   42219       1
   42201   42186   42195   42204       1   42201   42186   42195   42207       1
   42201   42186   42195   42210       2   42198   42186   42195   42204       1
   42198   42186   42195   42207       1   42198   42186   42195   42210       2
   42195   42210   42213   42222       2   42195   42210   42213   42228       2
   42192   42177   42186   42195       2   42192   42177   42186   42198       1
   42192   42177   42186   42201       1   42189   42177   42186   42195       2
   42189   42177   42186   42198       1   42189   42177   42186   42201       1
   42186   42195   42210   42216       2   42186   42195   42210   42219       2
   42183   42168   42177   42186       2   42183   42168   42177   42189       1
   42183   42168   42177   42192       1   42180   42168   42177   42186       2
   42180   42168   42177   42189       1   42180   42168   42177   42192       1
   42177   42186   42195   42204       2   42177   42186   42195   42207       2
   42174   42156   42168   42177       2   42174   42156   42168   42180       1
   42174   42156   42168   42183       1   42171   42156   42168   42177       2
   42171   42156   42168   42180       1   42171   42156   42168   42183       1
   42168   42177   42186   42198       2   42168   42177   42186   42201       2
   42162   42138   42156   42168       2   42162   42138   42156   42171       1
   42162   42138   42156   42174       1   42159   42138   42156   42168       2
   42159   42138   42156   42171       1   42159   42138   42156   42174       1
   42156   42168   42177   42189       2   42156   42168   42177   42192       2
   42153   42132   42147   42165       4   42150   42126   42147   42165       4
   42144   42123   42138   42156       2   42144   42123   42138   42159       1
   42144   42123   42138   42162       1   42141   42123   42138   42156       2
   42141   42123   42138   42159       1   42141   42123   42138   42162       1
   42138   42156   42168   42180       2   42138   42156   42168   42183       2
   42135   42120   42132   42147       4   42135   42120   42132   42153       4
   42132   42147   42126   42150       4   42129   42117   42126   42147       4
   42129   42117   42126   42150       4   42126   42147   42132   42153       4
   42123   42138   42156   42171       2   42123   42138   42156   42174       2
   42120   42099   42117   42129       4   42120   42132   42147   42165       4
   42117   42099   42120   42135       4   42117   42126   42147   42165       4
   42111   42093   42105   42123       4   42108   42087   42105   42123       4
   42105   42123   42138   42159       5   42105   42123   42138   42162       5
   42102   42084   42096   42114       4   42099   42078   42096   42114       4
   42099   42117   42126   42150       4   42099   42120   42132   42153       4
   42093   42105   42087   42108       4   42093   42105   42123   42141       8
   42093   42105   42123   42144       8   42090   42069   42087   42105       4
   42090   42069   42087   42108       4   42087   42105   42093   42111       4
   42087   42105   42123   42141       8   42087   42105   42123   42144       8
   42081   42063   42078   42096       4   42081   42063   42078   42099       4
   42078   42096   42084   42102       4   42078   42099   42117   42129       4
   42078   42099   42120   42135       4   42075   42072   42093   42111       4
   42072   42057   42069   42090       4   42066   42054   42063   42081       4
   42066   42084   42096   42114       4   42063   42078   42096   42114       4
   42060   42066   42084   42102       4   42057   42069   42087   42108       4
   42057   42072   42093   42111       4   42054   42066   42084   42102       4
   42051   42057   42069   42090       4   42048   42054   42063   42081       4
   42420   42405   42417   42423       1   42420   42405   42417   42426       1
   42420   42405   42417   42429       1   42414   42405   42417   42423       1
   42414   42405   42417   42426       1   42414   42405   42417   42429       1
   42411   42402   42405   42414       1   42411   42402   42405   42417       2
   42411   42402   42405   42420       1   42408   42402   42405   42414       1
   42408   42402   42405   42417       2   42408   42402   42405   42420       1
   42402   42405   42417   42423       2   42402   42405   42417   42426       2
   42402   42405   42417   42429       2   42399   42387   42402   42405       2
   42399   42387   42402   42408       1   42399   42387   42402   42411       1
   42396   42387   42402   42405       2   42396   42387   42402   42408       1
   42396   42387   42402   42411       1   42393   42378   42387   42396       1
   42393   42378   42387   42399       1   42393   42378   42387   42402       2
   42390   42378   42387   42396       1   42390   42378   42387   42399       1
   42390   42378   42387   42402       2   42387   42402   42405   42414       2
   42387   42402   42405   42420       2   42384   42369   42378   42387       2
   42384   42369   42378   42390       1   42384   42369   42378   42393       1
   42381   42369   42378   42387       2   42381   42369   42378   42390       1
   42381   42369   42378   42393       1   42378   42387   42402   42408       2
   42378   42387   42402   42411       2   42375   42360   42369   42378       2
   42375   42360   42369   42381       1   42375   42360   42369   42384       1
   42372   42360   42369   42378       2   42372   42360   42369   42381       1
   42372   42360   42369   42384       1   42369   42378   42387   42396       2
   42369   42378   42387   42399       2   42366   42348   42360   42369       2
   42366   42348   42360   42372       1   42366   42348   42360   42375       1
   42363   42348   42360   42369       2   42363   42348   42360   42372       1
   42363   42348   42360   42375       1   42360   42369   42378   42390       2
   42360   42369   42378   42393       2   42354   42330   42348   42360       2
   42354   42330   42348   42363       1   42354   42330   42348   42366       1
   42351   42330   42348   42360       2   42351   42330   42348   42363       1
   42351   42330   42348   42366       1   42348   42360   42369   42381       2
   42348   42360   42369   42384       2   42345   42324   42339   42357       4
   42342   42318   42339   42357       4   42336   42315   42330   42348       2
   42336   42315   42330   42351       1   42336   42315   42330   42354       1
   42333   42315   42330   42348       2   42333   42315   42330   42351       1
   42333   42315   42330   42354       1   42330   42348   42360   42372       2
   42330   42348   42360   42375       2   42327   42312   42324   42339       4
   42327   42312   42324   42345       4   42324   42339   42318   42342       4
   42321   42309   42318   42339       4   42321   42309   42318   42342       4
   42318   42339   42324   42345       4   42315   42330   42348   42363       2
   42315   42330   42348   42366       2   42312   42291   42309   42321       4
   42312   42324   42339   42357       4   42309   42291   42312   42327       4
   42309   42318   42339   42357       4   42303   42285   42297   42315       4
   42300   42279   42297   42315       4   42297   42315   42330   42351       5
   42297   42315   42330   42354       5   42294   42276   42288   42306       4
   42291   42270   42288   42306       4   42291   42309   42318   42342       4
   42291   42312   42324   42345       4   42285   42297   42279   42300       4
   42285   42297   42315   42333       8   42285   42297   42315   42336       8
   42282   42261   42279   42297       4   42282   42261   42279   42300       4
   42279   42297   42285   42303       4   42279   42297   42315   42333       8
   42279   42297   42315   42336       8   42273   42255   42270   42288       4
   42273   42255   42270   42291       4   42270   42288   42276   42294       4
   42270   42291   42309   42321       4   42270   42291   42312   42327       4
   42267   42264   42285   42303       4   42264   42249   42261   42282       4
   42258   42246   42255   42273       4   42258   42276   42288   42306       4
   42255   42270   42288   42306       4   42252   42258   42276   42294       4
   42249   42261   42279   42300       4   42249   42264   42285   42303       4
   42246   42258   42276   42294       4   42243   42249   42261   42282       4
   42240   42246   42255   42273       4   42612   42597   42609   42615       1
   42612   42597   42609   42618       1   42612   42597   42609   42621       1
   42606   42597   42609   42615       1   42606   42597   42609   42618       1
   42606   42597   42609   42621       1   42603   42594   42597   42606       1
   42603   42594   42597   42609       2   42603   42594   42597   42612       1
   42600   42594   42597   42606       1   42600   42594   42597   42609       2
   42600   42594   42597   42612       1   42594   42597   42609   42615       2
   42594   42597   42609   42618       2   42594   42597   42609   42621       2
   42591   42579   42594   42597       2   42591   42579   42594   42600       1
   42591   42579   42594   42603       1   42588   42579   42594   42597       2
   42588   42579   42594   42600       1   42588   42579   42594   42603       1
   42585   42570   42579   42588       1   42585   42570   42579   42591       1
   42585   42570   42579   42594       2   42582   42570   42579   42588       1
   42582   42570   42579   42591       1   42582   42570   42579   42594       2
   42579   42594   42597   42606       2   42579   42594   42597   42612       2
   42576   42561   42570   42579       2   42576   42561   42570   42582       1
   42576   42561   42570   42585       1   42573   42561   42570   42579       2
   42573   42561   42570   42582       1   42573   42561   42570   42585       1
   42570   42579   42594   42600       2   42570   42579   42594   42603       2
   42567   42552   42561   42570       2   42567   42552   42561   42573       1
   42567   42552   42561   42576       1   42564   42552   42561   42570       2
   42564   42552   42561   42573       1   42564   42552   42561   42576       1
   42561   42570   42579   42588       2   42561   42570   42579   42591       2
   42558   42540   42552   42561       2   42558   42540   42552   42564       1
   42558   42540   42552   42567       1   42555   42540   42552   42561       2
   42555   42540   42552   42564       1   42555   42540   42552   42567       1
   42552   42561   42570   42582       2   42552   42561   42570   42585       2
   42546   42522   42540   42552       2   42546   42522   42540   42555       1
   42546   42522   42540   42558       1   42543   42522   42540   42552       2
   42543   42522   42540   42555       1   42543   42522   42540   42558       1
   42540   42552   42561   42573       2   42540   42552   42561   42576       2
   42537   42516   42531   42549       4   42534   42510   42531   42549       4
   42528   42507   42522   42540       2   42528   42507   42522   42543       1
   42528   42507   42522   42546       1   42525   42507   42522   42540       2
   42525   42507   42522   42543       1   42525   42507   42522   42546       1
   42522   42540   42552   42564       2   42522   42540   42552   42567       2
   42519   42504   42516   42531       4   42519   42504   42516   42537       4
   42516   42531   42510   42534       4   42513   42501   42510   42531       4
   42513   42501   42510   42534       4   42510   42531   42516   42537       4
   42507   42522   42540   42555       2   42507   42522   42540   42558       2
   42504   42483   42501   42513       4   42504   42516   42531   42549       4
   42501   42483   42504   42519       4   42501   42510   42531   42549       4
   42495   42477   42489   42507       4   42492   42471   42489   42507       4
   42489   42507   42522   42543       5   42489   42507   42522   42546       5
   42486   42468   42480   42498       4   42483   42462   42480   42498       4
   42483   42501   42510   42534       4   42483   42504   42516   42537       4
   42477   42489   42471   42492       4   42477   42489   42507   42525       8
   42477   42489   42507   42528       8   42474   42453   42471   42489       4
   42474   42453   42471   42492       4   42471   42489   42477   42495       4
   42471   42489   42507   42525       8   42471   42489   42507   42528       8
   42465   42447   42462   42480       4   42465   42447   42462   42483       4
   42462   42480   42468   42486       4   42462   42483   42501   42513       4
   42462   42483   42504   42519       4   42459   42456   42477   42495       4
   42456   42441   42453   42474       4   42450   42438   42447   42465       4
   42450   42468   42480   42498       4   42447   42462   42480   42498       4
   42444   42450   42468   42486       4   42441   42453   42471   42492       4
   42441   42456   42477   42495       4   42438   42450   42468   42486       4
   42435   42441   42453   42474       4   42432   42438   42447   42465       4
   42804   42789   42801   42807       1   42804   42789   42801   42810       1
   42804   42789   42801   42813       1   42798   42789   42801   42807       1
   42798   42789   42801   42810       1   42798   42789   42801   42813       1
   42795   42786   42789   42798       1   42795   42786   42789   42801       2
   42795   42786   42789   42804       1   42792   42786   42789   42798       1
   42792   42786   42789   42801       2   42792   42786   42789   42804       1
   42786   42789   42801   42807       2   42786   42789   42801   42810       2
   42786   42789   42801   42813       2   42783   42771   42786   42789       2
   42783   42771   42786   42792       1   42783   42771   42786   42795       1
   42780   42771   42786   42789       2   42780   42771   42786   42792       1
   42780   42771   42786   42795       1   42777   42762   42771   42780       1
   42777   42762   42771   42783       1   42777   42762   42771   42786       2
   42774   42762   42771   42780       1   42774   42762   42771   42783       1
   42774   42762   42771   42786       2   42771   42786   42789   42798       2
   42771   42786   42789   42804       2   42768   42753   42762   42771       2
   42768   42753   42762   42774       1   42768   42753   42762   42777       1
   42765   42753   42762   42771       2   42765   42753   42762   42774       1
   42765   42753   42762   42777       1   42762   42771   42786   42792       2
   42762   42771   42786   42795       2   42759   42744   42753   42762       2
   42759   42744   42753   42765       1   42759   42744   42753   42768       1
   42756   42744   42753   42762       2   42756   42744   42753   42765       1
   42756   42744   42753   42768       1   42753   42762   42771   42780       2
   42753   42762   42771   42783       2   42750   42732   42744   42753       2
   42750   42732   42744   42756       1   42750   42732   42744   42759       1
   42747   42732   42744   42753       2   42747   42732   42744   42756       1
   42747   42732   42744   42759       1   42744   42753   42762   42774       2
   42744   42753   42762   42777       2   42738   42714   42732   42744       2
   42738   42714   42732   42747       1   42738   42714   42732   42750       1
   42735   42714   42732   42744       2   42735   42714   42732   42747       1
   42735   42714   42732   42750       1   42732   42744   42753   42765       2
   42732   42744   42753   42768       2   42729   42708   42723   42741       4
   42726   42702   42723   42741       4   42720   42699   42714   42732       2
   42720   42699   42714   42735       1   42720   42699   42714   42738       1
   42717   42699   42714   42732       2   42717   42699   42714   42735       1
   42717   42699   42714   42738       1   42714   42732   42744   42756       2
   42714   42732   42744   42759       2   42711   42696   42708   42723       4
   42711   42696   42708   42729       4   42708   42723   42702   42726       4
   42705   42693   42702   42723       4   42705   42693   42702   42726       4
   42702   42723   42708   42729       4   42699   42714   42732   42747       2
   42699   42714   42732   42750       2   42696   42675   42693   42705       4
   42696   42708   42723   42741       4   42693   42675   42696   42711       4
   42693   42702   42723   42741       4   42687   42669   42681   42699       4
   42684   42663   42681   42699       4   42681   42699   42714   42735       5
   42681   42699   42714   42738       5   42678   42660   42672   42690       4
   42675   42654   42672   42690       4   42675   42693   42702   42726       4
   42675   42696   42708   42729       4   42669   42681   42663   42684       4
   42669   42681   42699   42717       8   42669   42681   42699   42720       8
   42666   42645   42663   42681       4   42666   42645   42663   42684       4
   42663   42681   42669   42687       4   42663   42681   42699   42717       8
   42663   42681   42699   42720       8   42657   42639   42654   42672       4
   42657   42639   42654   42675       4   42654   42672   42660   42678       4
   42654   42675   42693   42705       4   42654   42675   42696   42711       4
   42651   42648   42669   42687       4   42648   42633   42645   42666       4
   42642   42630   42639   42657       4   42642   42660   42672   42690       4
   42639   42654   42672   42690       4   42636   42642   42660   42678       4
   42633   42645   42663   42684       4   42633   42648   42669   42687       4
   42630   42642   42660   42678       4   42627   42633   42645   42666       4
   42624   42630   42639   42657       4   42996   42981   42993   42999       1
   42996   42981   42993   43002       1   42996   42981   42993   43005       1
   42990   42981   42993   42999       1   42990   42981   42993   43002       1
   42990   42981   42993   43005       1   42987   42978   42981   42990       1
   42987   42978   42981   42993       2   42987   42978   42981   42996       1
   42984   42978   42981   42990       1   42984   42978   42981   42993       2
   42984   42978   42981   42996       1   42978   42981   42993   42999       2
   42978   42981   42993   43002       2   42978   42981   42993   43005       2
   42975   42963   42978   42981       2   42975   42963   42978   42984       1
   42975   42963   42978   42987       1   42972   42963   42978   42981       2
   42972   42963   42978   42984       1   42972   42963   42978   42987       1
   42969   42954   42963   42972       1   42969   42954   42963   42975       1
   42969   42954   42963   42978       2   42966   42954   42963   42972       1
   42966   42954   42963   42975       1   42966   42954   42963   42978       2
   42963   42978   42981   42990       2   42963   42978   42981   42996       2
   42960   42945   42954   42963       2   42960   42945   42954   42966       1
   42960   42945   42954   42969       1   42957   42945   42954   42963       2
   42957   42945   42954   42966       1   42957   42945   42954   42969       1
   42954   42963   42978   42984       2   42954   42963   42978   42987       2
   42951   42936   42945   42954       2   42951   42936   42945   42957       1
   42951   42936   42945   42960       1   42948   42936   42945   42954       2
   42948   42936   42945   42957       1   42948   42936   42945   42960       1
   42945   42954   42963   42972       2   42945   42954   42963   42975       2
   42942   42924   42936   42945       2   42942   42924   42936   42948       1
   42942   42924   42936   42951       1   42939   42924   42936   42945       2
   42939   42924   42936   42948       1   42939   42924   42936   42951       1
   42936   42945   42954   42966       2   42936   42945   42954   42969       2
   42930   42906   42924   42936       2   42930   42906   42924   42939       1
   42930   42906   42924   42942       1   42927   42906   42924   42936       2
   42927   42906   42924   42939       1   42927   42906   42924   42942       1
   42924   42936   42945   42957       2   42924   42936   42945   42960       2
   42921   42900   42915   42933       4   42918   42894   42915   42933       4
   42912   42891   42906   42924       2   42912   42891   42906   42927       1
   42912   42891   42906   42930       1   42909   42891   42906   42924       2
   42909   42891   42906   42927       1   42909   42891   42906   42930       1
   42906   42924   42936   42948       2   42906   42924   42936   42951       2
   42903   42888   42900   42915       4   42903   42888   42900   42921       4
   42900   42915   42894   42918       4   42897   42885   42894   42915       4
   42897   42885   42894   42918       4   42894   42915   42900   42921       4
   42891   42906   42924   42939       2   42891   42906   42924   42942       2
   42888   42867   42885   42897       4   42888   42900   42915   42933       4
   42885   42867   42888   42903       4   42885   42894   42915   42933       4
   42879   42861   42873   42891       4   42876   42855   42873   42891       4
   42873   42891   42906   42927       5   42873   42891   42906   42930       5
   42870   42852   42864   42882       4   42867   42846   42864   42882       4
   42867   42885   42894   42918       4   42867   42888   42900   42921       4
   42861   42873   42855   42876       4   42861   42873   42891   42909       8
   42861   42873   42891   42912       8   42858   42837   42855   42873       4
   42858   42837   42855   42876       4   42855   42873   42861   42879       4
   42855   42873   42891   42909       8   42855   42873   42891   42912       8
   42849   42831   42846   42864       4   42849   42831   42846   42867       4
   42846   42864   42852   42870       4   42846   42867   42885   42897       4
   42846   42867   42888   42903       4   42843   42840   42861   42879       4
   42840   42825   42837   42858       4   42834   42822   42831   42849       4
   42834   42852   42864   42882       4   42831   42846   42864   42882       4
   42828   42834   42852   42870       4   42825   42837   42855   42876       4
   42825   42840   42861   42879       4   42822   42834   42852   42870       4
   42819   42825   42837   42858       4   42816   42822   42831   42849       4
   43188   43173   43185   43191       1   43188   43173   43185   43194       1
   43188   43173   43185   43197       1   43182   43173   43185   43191       1
   43182   43173   43185   43194       1   43182   43173   43185   43197       1
   43179   43170   43173   43182       1   43179   43170   43173   43185       2
   43179   43170   43173   43188       1   43176   43170   43173   43182       1
   43176   43170   43173   43185       2   43176   43170   43173   43188       1
   43170   43173   43185   43191       2   43170   43173   43185   43194       2
   43170   43173   43185   43197       2   43167   43155   43170   43173       2
   43167   43155   43170   43176       1   43167   43155   43170   43179       1
   43164   43155   43170   43173       2   43164   43155   43170   43176       1
   43164   43155   43170   43179       1   43161   43146   43155   43164       1
   43161   43146   43155   43167       1   43161   43146   43155   43170       2
   43158   43146   43155   43164       1   43158   43146   43155   43167       1
   43158   43146   43155   43170       2   43155   43170   43173   43182       2
   43155   43170   43173   43188       2   43152   43137   43146   43155       2
   43152   43137   43146   43158       1   43152   43137   43146   43161       1
   43149   43137   43146   43155       2   43149   43137   43146   43158       1
   43149   43137   43146   43161       1   43146   43155   43170   43176       2
   43146   43155   43170   43179       2   43143   43128   43137   43146       2
   43143   43128   43137   43149       1   43143   43128   43137   43152       1
   43140   43128   43137   43146       2   43140   43128   43137   43149       1
   43140   43128   43137   43152       1   43137   43146   43155   43164       2
   43137   43146   43155   43167       2   43134   43116   43128   43137       2
   43134   43116   43128   43140       1   43134   43116   43128   43143       1
   43131   43116   43128   43137       2   43131   43116   43128   43140       1
   43131   43116   43128   43143       1   43128   43137   43146   43158       2
   43128   43137   43146   43161       2   43122   43098   43116   43128       2
   43122   43098   43116   43131       1   43122   43098   43116   43134       1
   43119   43098   43116   43128       2   43119   43098   43116   43131       1
   43119   43098   43116   43134       1   43116   43128   43137   43149       2
   43116   43128   43137   43152       2   43113   43092   43107   43125       4
   43110   43086   43107   43125       4   43104   43083   43098   43116       2
   43104   43083   43098   43119       1   43104   43083   43098   43122       1
   43101   43083   43098   43116       2   43101   43083   43098   43119       1
   43101   43083   43098   43122       1   43098   43116   43128   43140       2
   43098   43116   43128   43143       2   43095   43080   43092   43107       4
   43095   43080   43092   43113       4   43092   43107   43086   43110       4
   43089   43077   43086   43107       4   43089   43077   43086   43110       4
   43086   43107   43092   43113       4   43083   43098   43116   43131       2
   43083   43098   43116   43134       2   43080   43059   43077   43089       4
   43080   43092   43107   43125       4   43077   43059   43080   43095       4
   43077   43086   43107   43125       4   43071   43053   43065   43083       4
   43068   43047   43065   43083       4   43065   43083   43098   43119       5
   43065   43083   43098   43122       5   43062   43044   43056   43074       4
   43059   43038   43056   43074       4   43059   43077   43086   43110       4
   43059   43080   43092   43113       4   43053   43065   43047   43068       4
   43053   43065   43083   43101       8   43053   43065   43083   43104       8
   43050   43029   43047   43065       4   43050   43029   43047   43068       4
   43047   43065   43053   43071       4   43047   43065   43083   43101       8
   43047   43065   43083   43104       8   43041   43023   43038   43056       4
   43041   43023   43038   43059       4   43038   43056   43044   43062       4
   43038   43059   43077   43089       4   43038   43059   43080   43095       4
   43035   43032   43053   43071       4   43032   43017   43029   43050       4
   43026   43014   43023   43041       4   43026   43044   43056   43074       4
   43023   43038   43056   43074       4   43020   43026   43044   43062       4
   43017   43029   43047   43068       4   43017   43032   43053   43071       4
   43014   43026   43044   43062       4   43011   43017   43029   43050       4
   43008   43014   43023   43041       4   43380   43365   43377   43383       1
   43380   43365   43377   43386       1   43380   43365   43377   43389       1
   43374   43365   43377   43383       1   43374   43365   43377   43386       1
   43374   43365   43377   43389       1   43371   43362   43365   43374       1
   43371   43362   43365   43377       2   43371   43362   43365   43380       1
   43368   43362   43365   43374       1   43368   43362   43365   43377       2
   43368   43362   43365   43380       1   43362   43365   43377   43383       2
   43362   43365   43377   43386       2   43362   43365   43377   43389       2
   43359   43347   43362   43365       2   43359   43347   43362   43368       1
   43359   43347   43362   43371       1   43356   43347   43362   43365       2
   43356   43347   43362   43368       1   43356   43347   43362   43371       1
   43353   43338   43347   43356       1   43353   43338   43347   43359       1
   43353   43338   43347   43362       2   43350   43338   43347   43356       1
   43350   43338   43347   43359       1   43350   43338   43347   43362       2
   43347   43362   43365   43374       2   43347   43362   43365   43380       2
   43344   43329   43338   43347       2   43344   43329   43338   43350       1
   43344   43329   43338   43353       1   43341   43329   43338   43347       2
   43341   43329   43338   43350       1   43341   43329   43338   43353       1
   43338   43347   43362   43368       2   43338   43347   43362   43371       2
   43335   43320   43329   43338       2   43335   43320   43329   43341       1
   43335   43320   43329   43344       1   43332   43320   43329   43338       2
   43332   43320   43329   43341       1   43332   43320   43329   43344       1
   43329   43338   43347   43356       2   43329   43338   43347   43359       2
   43326   43308   43320   43329       2   43326   43308   43320   43332       1
   43326   43308   43320   43335       1   43323   43308   43320   43329       2
   43323   43308   43320   43332       1   43323   43308   43320   43335       1
   43320   43329   43338   43350       2   43320   43329   43338   43353       2
   43314   43290   43308   43320       2   43314   43290   43308   43323       1
   43314   43290   43308   43326       1   43311   43290   43308   43320       2
   43311   43290   43308   43323       1   43311   43290   43308   43326       1
   43308   43320   43329   43341       2   43308   43320   43329   43344       2
   43305   43284   43299   43317       4   43302   43278   43299   43317       4
   43296   43275   43290   43308       2   43296   43275   43290   43311       1
   43296   43275   43290   43314       1   43293   43275   43290   43308       2
   43293   43275   43290   43311       1   43293   43275   43290   43314       1
   43290   43308   43320   43332       2   43290   43308   43320   43335       2
   43287   43272   43284   43299       4   43287   43272   43284   43305       4
   43284   43299   43278   43302       4   43281   43269   43278   43299       4
   43281   43269   43278   43302       4   43278   43299   43284   43305       4
   43275   43290   43308   43323       2   43275   43290   43308   43326       2
   43272   43251   43269   43281       4   43272   43284   43299   43317       4
   43269   43251   43272   43287       4   43269   43278   43299   43317       4
   43263   43245   43257   43275       4   43260   43239   43257   43275       4
   43257   43275   43290   43311       5   43257   43275   43290   43314       5
   43254   43236   43248   43266       4   43251   43230   43248   43266       4
   43251   43269   43278   43302       4   43251   43272   43284   43305       4
   43245   43257   43239   43260       4   43245   43257   43275   43293       8
   43245   43257   43275   43296       8   43242   43221   43239   43257       4
   43242   43221   43239   43260       4   43239   43257   43245   43263       4
   43239   43257   43275   43293       8   43239   43257   43275   43296       8
   43233   43215   43230   43248       4   43233   43215   43230   43251       4
   43230   43248   43236   43254       4   43230   43251   43269   43281       4
   43230   43251   43272   43287       4   43227   43224   43245   43263       4
   43224   43209   43221   43242       4   43218   43206   43215   43233       4
   43218   43236   43248   43266       4   43215   43230   43248   43266       4
   43212   43218   43236   43254       4   43209   43221   43239   43260       4
   43209   43224   43245   43263       4   43206   43218   43236   43254       4
   43203   43209   43221   43242       4   43200   43206   43215   43233       4
   43572   43557   43569   43575       1   43572   43557   43569   43578       1
   43572   43557   43569   43581       1   43566   43557   43569   43575       1
   43566   43557   43569   43578       1   43566   43557   43569   43581       1
   43563   43554   43557   43566       1   43563   43554   43557   43569       2
   43563   43554   43557   43572       1   43560   43554   43557   43566       1
   43560   43554   43557   43569       2   43560   43554   43557   43572       1
   43554   43557   43569   43575       2   43554   43557   43569   43578       2
   43554   43557   43569   43581       2   43551   43539   43554   43557       2
   43551   43539   43554   43560       1   43551   43539   43554   43563       1
   43548   43539   43554   43557       2   43548   43539   43554   43560       1
   43548   43539   43554   43563       1   43545   43530   43539   43548       1
   43545   43530   43539   43551       1   43545   43530   43539   43554       2
   43542   43530   43539   43548       1   43542   43530   43539   43551       1
   43542   43530   43539   43554       2   43539   43554   43557   43566       2
   43539   43554   43557   43572       2   43536   43521   43530   43539       2
   43536   43521   43530   43542       1   43536   43521   43530   43545       1
   43533   43521   43530   43539       2   43533   43521   43530   43542       1
   43533   43521   43530   43545       1   43530   43539   43554   43560       2
   43530   43539   43554   43563       2   43527   43512   43521   43530       2
   43527   43512   43521   43533       1   43527   43512   43521   43536       1
   43524   43512   43521   43530       2   43524   43512   43521   43533       1
   43524   43512   43521   43536       1   43521   43530   43539   43548       2
   43521   43530   43539   43551       2   43518   43500   43512   43521       2
   43518   43500   43512   43524       1   43518   43500   43512   43527       1
   43515   43500   43512   43521       2   43515   43500   43512   43524       1
   43515   43500   43512   43527       1   43512   43521   43530   43542       2
   43512   43521   43530   43545       2   43506   43482   43500   43512       2
   43506   43482   43500   43515       1   43506   43482   43500   43518       1
   43503   43482   43500   43512       2   43503   43482   43500   43515       1
   43503   43482   43500   43518       1   43500   43512   43521   43533       2
   43500   43512   43521   43536       2   43497   43476   43491   43509       4
   43494   43470   43491   43509       4   43488   43467   43482   43500       2
   43488   43467   43482   43503       1   43488   43467   43482   43506       1
   43485   43467   43482   43500       2   43485   43467   43482   43503       1
   43485   43467   43482   43506       1   43482   43500   43512   43524       2
   43482   43500   43512   43527       2   43479   43464   43476   43491       4
   43479   43464   43476   43497       4   43476   43491   43470   43494       4
   43473   43461   43470   43491       4   43473   43461   43470   43494       4
   43470   43491   43476   43497       4   43467   43482   43500   43515       2
   43467   43482   43500   43518       2   43464   43443   43461   43473       4
   43464   43476   43491   43509       4   43461   43443   43464   43479       4
   43461   43470   43491   43509       4   43455   43437   43449   43467       4
   43452   43431   43449   43467       4   43449   43467   43482   43503       5
   43449   43467   43482   43506       5   43446   43428   43440   43458       4
   43443   43422   43440   43458       4   43443   43461   43470   43494       4
   43443   43464   43476   43497       4   43437   43449   43431   43452       4
   43437   43449   43467   43485       8   43437   43449   43467   43488       8
   43434   43413   43431   43449       4   43434   43413   43431   43452       4
   43431   43449   43437   43455       4   43431   43449   43467   43485       8
   43431   43449   43467   43488       8   43425   43407   43422   43440       4
   43425   43407   43422   43443       4   43422   43440   43428   43446       4
   43422   43443   43461   43473       4   43422   43443   43464   43479       4
   43419   43416   43437   43455       4   43416   43401   43413   43434       4
   43410   43398   43407   43425       4   43410   43428   43440   43458       4
   43407   43422   43440   43458       4   43404   43410   43428   43446       4
   43401   43413   43431   43452       4   43401   43416   43437   43455       4
   43398   43410   43428   43446       4   43395   43401   43413   43434       4
   43392   43398   43407   43425       4   43764   43749   43761   43767       1
   43764   43749   43761   43770       1   43764   43749   43761   43773       1
   43758   43749   43761   43767       1   43758   43749   43761   43770       1
   43758   43749   43761   43773       1   43755   43746   43749   43758       1
   43755   43746   43749   43761       2   43755   43746   43749   43764       1
   43752   43746   43749   43758       1   43752   43746   43749   43761       2
   43752   43746   43749   43764       1   43746   43749   43761   43767       2
   43746   43749   43761   43770       2   43746   43749   43761   43773       2
   43743   43731   43746   43749       2   43743   43731   43746   43752       1
   43743   43731   43746   43755       1   43740   43731   43746   43749       2
   43740   43731   43746   43752       1   43740   43731   43746   43755       1
   43737   43722   43731   43740       1   43737   43722   43731   43743       1
   43737   43722   43731   43746       2   43734   43722   43731   43740       1
   43734   43722   43731   43743       1   43734   43722   43731   43746       2
   43731   43746   43749   43758       2   43731   43746   43749   43764       2
   43728   43713   43722   43731       2   43728   43713   43722   43734       1
   43728   43713   43722   43737       1   43725   43713   43722   43731       2
   43725   43713   43722   43734       1   43725   43713   43722   43737       1
   43722   43731   43746   43752       2   43722   43731   43746   43755       2
   43719   43704   43713   43722       2   43719   43704   43713   43725       1
   43719   43704   43713   43728       1   43716   43704   43713   43722       2
   43716   43704   43713   43725       1   43716   43704   43713   43728       1
   43713   43722   43731   43740       2   43713   43722   43731   43743       2
   43710   43692   43704   43713       2   43710   43692   43704   43716       1
   43710   43692   43704   43719       1   43707   43692   43704   43713       2
   43707   43692   43704   43716       1   43707   43692   43704   43719       1
   43704   43713   43722   43734       2   43704   43713   43722   43737       2
   43698   43674   43692   43704       2   43698   43674   43692   43707       1
   43698   43674   43692   43710       1   43695   43674   43692   43704       2
   43695   43674   43692   43707       1   43695   43674   43692   43710       1
   43692   43704   43713   43725       2   43692   43704   43713   43728       2
   43689   43668   43683   43701       4   43686   43662   43683   43701       4
   43680   43659   43674   43692       2   43680   43659   43674   43695       1
   43680   43659   43674   43698       1   43677   43659   43674   43692       2
   43677   43659   43674   43695       1   43677   43659   43674   43698       1
   43674   43692   43704   43716       2   43674   43692   43704   43719       2
   43671   43656   43668   43683       4   43671   43656   43668   43689       4
   43668   43683   43662   43686       4   43665   43653   43662   43683       4
   43665   43653   43662   43686       4   43662   43683   43668   43689       4
   43659   43674   43692   43707       2   43659   43674   43692   43710       2
   43656   43635   43653   43665       4   43656   43668   43683   43701       4
   43653   43635   43656   43671       4   43653   43662   43683   43701       4
   43647   43629   43641   43659       4   43644   43623   43641   43659       4
   43641   43659   43674   43695       5   43641   43659   43674   43698       5
   43638   43620   43632   43650       4   43635   43614   43632   43650       4
   43635   43653   43662   43686       4   43635   43656   43668   43689       4
   43629   43641   43623   43644       4   43629   43641   43659   43677       8
   43629   43641   43659   43680       8   43626   43605   43623   43641       4
   43626   43605   43623   43644       4   43623   43641   43629   43647       4
   43623   43641   43659   43677       8   43623   43641   43659   43680       8
   43617   43599   43614   43632       4   43617   43599   43614   43635       4
   43614   43632   43620   43638       4   43614   43635   43653   43665       4
   43614   43635   43656   43671       4   43611   43608   43629   43647       4
   43608   43593   43605   43626       4   43602   43590   43599   43617       4
   43602   43620   43632   43650       4   43599   43614   43632   43650       4
   43596   43602   43620   43638       4   43593   43605   43623   43644       4
   43593   43608   43629   43647       4   43590   43602   43620   43638       4
   43587   43593   43605   43626       4   43584   43590   43599   43617       4
   43956   43941   43953   43959       1   43956   43941   43953   43962       1
   43956   43941   43953   43965       1   43950   43941   43953   43959       1
   43950   43941   43953   43962       1   43950   43941   43953   43965       1
   43947   43938   43941   43950       1   43947   43938   43941   43953       2
   43947   43938   43941   43956       1   43944   43938   43941   43950       1
   43944   43938   43941   43953       2   43944   43938   43941   43956       1
   43938   43941   43953   43959       2   43938   43941   43953   43962       2
   43938   43941   43953   43965       2   43935   43923   43938   43941       2
   43935   43923   43938   43944       1   43935   43923   43938   43947       1
   43932   43923   43938   43941       2   43932   43923   43938   43944       1
   43932   43923   43938   43947       1   43929   43914   43923   43932       1
   43929   43914   43923   43935       1   43929   43914   43923   43938       2
   43926   43914   43923   43932       1   43926   43914   43923   43935       1
   43926   43914   43923   43938       2   43923   43938   43941   43950       2
   43923   43938   43941   43956       2   43920   43905   43914   43923       2
   43920   43905   43914   43926       1   43920   43905   43914   43929       1
   43917   43905   43914   43923       2   43917   43905   43914   43926       1
   43917   43905   43914   43929       1   43914   43923   43938   43944       2
   43914   43923   43938   43947       2   43911   43896   43905   43914       2
   43911   43896   43905   43917       1   43911   43896   43905   43920       1
   43908   43896   43905   43914       2   43908   43896   43905   43917       1
   43908   43896   43905   43920       1   43905   43914   43923   43932       2
   43905   43914   43923   43935       2   43902   43884   43896   43905       2
   43902   43884   43896   43908       1   43902   43884   43896   43911       1
   43899   43884   43896   43905       2   43899   43884   43896   43908       1
   43899   43884   43896   43911       1   43896   43905   43914   43926       2
   43896   43905   43914   43929       2   43890   43866   43884   43896       2
   43890   43866   43884   43899       1   43890   43866   43884   43902       1
   43887   43866   43884   43896       2   43887   43866   43884   43899       1
   43887   43866   43884   43902       1   43884   43896   43905   43917       2
   43884   43896   43905   43920       2   43881   43860   43875   43893       4
   43878   43854   43875   43893       4   43872   43851   43866   43884       2
   43872   43851   43866   43887       1   43872   43851   43866   43890       1
   43869   43851   43866   43884       2   43869   43851   43866   43887       1
   43869   43851   43866   43890       1   43866   43884   43896   43908       2
   43866   43884   43896   43911       2   43863   43848   43860   43875       4
   43863   43848   43860   43881       4   43860   43875   43854   43878       4
   43857   43845   43854   43875       4   43857   43845   43854   43878       4
   43854   43875   43860   43881       4   43851   43866   43884   43899       2
   43851   43866   43884   43902       2   43848   43827   43845   43857       4
   43848   43860   43875   43893       4   43845   43827   43848   43863       4
   43845   43854   43875   43893       4   43839   43821   43833   43851       4
   43836   43815   43833   43851       4   43833   43851   43866   43887       5
   43833   43851   43866   43890       5   43830   43812   43824   43842       4
   43827   43806   43824   43842       4   43827   43845   43854   43878       4
   43827   43848   43860   43881       4   43821   43833   43815   43836       4
   43821   43833   43851   43869       8   43821   43833   43851   43872       8
   43818   43797   43815   43833       4   43818   43797   43815   43836       4
   43815   43833   43821   43839       4   43815   43833   43851   43869       8
   43815   43833   43851   43872       8   43809   43791   43806   43824       4
   43809   43791   43806   43827       4   43806   43824   43812   43830       4
   43806   43827   43845   43857       4   43806   43827   43848   43863       4
   43803   43800   43821   43839       4   43800   43785   43797   43818       4
   43794   43782   43791   43809       4   43794   43812   43824   43842       4
   43791   43806   43824   43842       4   43788   43794   43812   43830       4
   43785   43797   43815   43836       4   43785   43800   43821   43839       4
   43782   43794   43812   43830       4   43779   43785   43797   43818       4
   43776   43782   43791   43809       4   44148   44133   44145   44151       1
   44148   44133   44145   44154       1   44148   44133   44145   44157       1
   44142   44133   44145   44151       1   44142   44133   44145   44154       1
   44142   44133   44145   44157       1   44139   44130   44133   44142       1
   44139   44130   44133   44145       2   44139   44130   44133   44148       1
   44136   44130   44133   44142       1   44136   44130   44133   44145       2
   44136   44130   44133   44148       1   44130   44133   44145   44151       2
   44130   44133   44145   44154       2   44130   44133   44145   44157       2
   44127   44115   44130   44133       2   44127   44115   44130   44136       1
   44127   44115   44130   44139       1   44124   44115   44130   44133       2
   44124   44115   44130   44136       1   44124   44115   44130   44139       1
   44121   44106   44115   44124       1   44121   44106   44115   44127       1
   44121   44106   44115   44130       2   44118   44106   44115   44124       1
   44118   44106   44115   44127       1   44118   44106   44115   44130       2
   44115   44130   44133   44142       2   44115   44130   44133   44148       2
   44112   44097   44106   44115       2   44112   44097   44106   44118       1
   44112   44097   44106   44121       1   44109   44097   44106   44115       2
   44109   44097   44106   44118       1   44109   44097   44106   44121       1
   44106   44115   44130   44136       2   44106   44115   44130   44139       2
   44103   44088   44097   44106       2   44103   44088   44097   44109       1
   44103   44088   44097   44112       1   44100   44088   44097   44106       2
   44100   44088   44097   44109       1   44100   44088   44097   44112       1
   44097   44106   44115   44124       2   44097   44106   44115   44127       2
   44094   44076   44088   44097       2   44094   44076   44088   44100       1
   44094   44076   44088   44103       1   44091   44076   44088   44097       2
   44091   44076   44088   44100       1   44091   44076   44088   44103       1
   44088   44097   44106   44118       2   44088   44097   44106   44121       2
   44082   44058   44076   44088       2   44082   44058   44076   44091       1
   44082   44058   44076   44094       1   44079   44058   44076   44088       2
   44079   44058   44076   44091       1   44079   44058   44076   44094       1
   44076   44088   44097   44109       2   44076   44088   44097   44112       2
   44073   44052   44067   44085       4   44070   44046   44067   44085       4
   44064   44043   44058   44076       2   44064   44043   44058   44079       1
   44064   44043   44058   44082       1   44061   44043   44058   44076       2
   44061   44043   44058   44079       1   44061   44043   44058   44082       1
   44058   44076   44088   44100       2   44058   44076   44088   44103       2
   44055   44040   44052   44067       4   44055   44040   44052   44073       4
   44052   44067   44046   44070       4   44049   44037   44046   44067       4
   44049   44037   44046   44070       4   44046   44067   44052   44073       4
   44043   44058   44076   44091       2   44043   44058   44076   44094       2
   44040   44019   44037   44049       4   44040   44052   44067   44085       4
   44037   44019   44040   44055       4   44037   44046   44067   44085       4
   44031   44013   44025   44043       4   44028   44007   44025   44043       4
   44025   44043   44058   44079       5   44025   44043   44058   44082       5
   44022   44004   44016   44034       4   44019   43998   44016   44034       4
   44019   44037   44046   44070       4   44019   44040   44052   44073       4
   44013   44025   44007   44028       4   44013   44025   44043   44061       8
   44013   44025   44043   44064       8   44010   43989   44007   44025       4
   44010   43989   44007   44028       4   44007   44025   44013   44031       4
   44007   44025   44043   44061       8   44007   44025   44043   44064       8
   44001   43983   43998   44016       4   44001   43983   43998   44019       4
   43998   44016   44004   44022       4   43998   44019   44037   44049       4
   43998   44019   44040   44055       4   43995   43992   44013   44031       4
   43992   43977   43989   44010       4   43986   43974   43983   44001       4
   43986   44004   44016   44034       4   43983   43998   44016   44034       4
   43980   43986   44004   44022       4   43977   43989   44007   44028       4
   43977   43992   44013   44031       4   43974   43986   44004   44022       4
   43971   43977   43989   44010       4   43968   43974   43983   44001       4
   44340   44325   44337   44343       1   44340   44325   44337   44346       1
   44340   44325   44337   44349       1   44334   44325   44337   44343       1
   44334   44325   44337   44346       1   44334   44325   44337   44349       1
   44331   44322   44325   44334       1   44331   44322   44325   44337       2
   44331   44322   44325   44340       1   44328   44322   44325   44334       1
   44328   44322   44325   44337       2   44328   44322   44325   44340       1
   44322   44325   44337   44343       2   44322   44325   44337   44346       2
   44322   44325   44337   44349       2   44319   44307   44322   44325       2
   44319   44307   44322   44328       1   44319   44307   44322   44331       1
   44316   44307   44322   44325       2   44316   44307   44322   44328       1
   44316   44307   44322   44331       1   44313   44298   44307   44316       1
   44313   44298   44307   44319       1   44313   44298   44307   44322       2
   44310   44298   44307   44316       1   44310   44298   44307   44319       1
   44310   44298   44307   44322       2   44307   44322   44325   44334       2
   44307   44322   44325   44340       2   44304   44289   44298   44307       2
   44304   44289   44298   44310       1   44304   44289   44298   44313       1
   44301   44289   44298   44307       2   44301   44289   44298   44310       1
   44301   44289   44298   44313       1   44298   44307   44322   44328       2
   44298   44307   44322   44331       2   44295   44280   44289   44298       2
   44295   44280   44289   44301       1   44295   44280   44289   44304       1
   44292   44280   44289   44298       2   44292   44280   44289   44301       1
   44292   44280   44289   44304       1   44289   44298   44307   44316       2
   44289   44298   44307   44319       2   44286   44268   44280   44289       2
   44286   44268   44280   44292       1   44286   44268   44280   44295       1
   44283   44268   44280   44289       2   44283   44268   44280   44292       1
   44283   44268   44280   44295       1   44280   44289   44298   44310       2
   44280   44289   44298   44313       2   44274   44250   44268   44280       2
   44274   44250   44268   44283       1   44274   44250   44268   44286       1
   44271   44250   44268   44280       2   44271   44250   44268   44283       1
   44271   44250   44268   44286       1   44268   44280   44289   44301       2
   44268   44280   44289   44304       2   44265   44244   44259   44277       4
   44262   44238   44259   44277       4   44256   44235   44250   44268       2
   44256   44235   44250   44271       1   44256   44235   44250   44274       1
   44253   44235   44250   44268       2   44253   44235   44250   44271       1
   44253   44235   44250   44274       1   44250   44268   44280   44292       2
   44250   44268   44280   44295       2   44247   44232   44244   44259       4
   44247   44232   44244   44265       4   44244   44259   44238   44262       4
   44241   44229   44238   44259       4   44241   44229   44238   44262       4
   44238   44259   44244   44265       4   44235   44250   44268   44283       2
   44235   44250   44268   44286       2   44232   44211   44229   44241       4
   44232   44244   44259   44277       4   44229   44211   44232   44247       4
   44229   44238   44259   44277       4   44223   44205   44217   44235       4
   44220   44199   44217   44235       4   44217   44235   44250   44271       5
   44217   44235   44250   44274       5   44214   44196   44208   44226       4
   44211   44190   44208   44226       4   44211   44229   44238   44262       4
   44211   44232   44244   44265       4   44205   44217   44199   44220       4
   44205   44217   44235   44253       8   44205   44217   44235   44256       8
   44202   44181   44199   44217       4   44202   44181   44199   44220       4
   44199   44217   44205   44223       4   44199   44217   44235   44253       8
   44199   44217   44235   44256       8   44193   44175   44190   44208       4
   44193   44175   44190   44211       4   44190   44208   44196   44214       4
   44190   44211   44229   44241       4   44190   44211   44232   44247       4
   44187   44184   44205   44223       4   44184   44169   44181   44202       4
   44178   44166   44175   44193       4   44178   44196   44208   44226       4
   44175   44190   44208   44226       4   44172   44178   44196   44214       4
   44169   44181   44199   44220       4   44169   44184   44205   44223       4
   44166   44178   44196   44214       4   44163   44169   44181   44202       4
   44160   44166   44175   44193       4   44532   44517   44529   44535       1
   44532   44517   44529   44538       1   44532   44517   44529   44541       1
   44526   44517   44529   44535       1   44526   44517   44529   44538       1
   44526   44517   44529   44541       1   44523   44514   44517   44526       1
   44523   44514   44517   44529       2   44523   44514   44517   44532       1
   44520   44514   44517   44526       1   44520   44514   44517   44529       2
   44520   44514   44517   44532       1   44514   44517   44529   44535       2
   44514   44517   44529   44538       2   44514   44517   44529   44541       2
   44511   44499   44514   44517       2   44511   44499   44514   44520       1
   44511   44499   44514   44523       1   44508   44499   44514   44517       2
   44508   44499   44514   44520       1   44508   44499   44514   44523       1
   44505   44490   44499   44508       1   44505   44490   44499   44511       1
   44505   44490   44499   44514       2   44502   44490   44499   44508       1
   44502   44490   44499   44511       1   44502   44490   44499   44514       2
   44499   44514   44517   44526       2   44499   44514   44517   44532       2
   44496   44481   44490   44499       2   44496   44481   44490   44502       1
   44496   44481   44490   44505       1   44493   44481   44490   44499       2
   44493   44481   44490   44502       1   44493   44481   44490   44505       1
   44490   44499   44514   44520       2   44490   44499   44514   44523       2
   44487   44472   44481   44490       2   44487   44472   44481   44493       1
   44487   44472   44481   44496       1   44484   44472   44481   44490       2
   44484   44472   44481   44493       1   44484   44472   44481   44496       1
   44481   44490   44499   44508       2   44481   44490   44499   44511       2
   44478   44460   44472   44481       2   44478   44460   44472   44484       1
   44478   44460   44472   44487       1   44475   44460   44472   44481       2
   44475   44460   44472   44484       1   44475   44460   44472   44487       1
   44472   44481   44490   44502       2   44472   44481   44490   44505       2
   44466   44442   44460   44472       2   44466   44442   44460   44475       1
   44466   44442   44460   44478       1   44463   44442   44460   44472       2
   44463   44442   44460   44475       1   44463   44442   44460   44478       1
   44460   44472   44481   44493       2   44460   44472   44481   44496       2
   44457   44436   44451   44469       4   44454   44430   44451   44469       4
   44448   44427   44442   44460       2   44448   44427   44442   44463       1
   44448   44427   44442   44466       1   44445   44427   44442   44460       2
   44445   44427   44442   44463       1   44445   44427   44442   44466       1
   44442   44460   44472   44484       2   44442   44460   44472   44487       2
   44439   44424   44436   44451       4   44439   44424   44436   44457       4
   44436   44451   44430   44454       4   44433   44421   44430   44451       4
   44433   44421   44430   44454       4   44430   44451   44436   44457       4
   44427   44442   44460   44475       2   44427   44442   44460   44478       2
   44424   44403   44421   44433       4   44424   44436   44451   44469       4
   44421   44403   44424   44439       4   44421   44430   44451   44469       4
   44415   44397   44409   44427       4   44412   44391   44409   44427       4
   44409   44427   44442   44463       5   44409   44427   44442   44466       5
   44406   44388   44400   44418       4   44403   44382   44400   44418       4
   44403   44421   44430   44454       4   44403   44424   44436   44457       4
   44397   44409   44391   44412       4   44397   44409   44427   44445       8
   44397   44409   44427   44448       8   44394   44373   44391   44409       4
   44394   44373   44391   44412       4   44391   44409   44397   44415       4
   44391   44409   44427   44445       8   44391   44409   44427   44448       8
   44385   44367   44382   44400       4   44385   44367   44382   44403       4
   44382   44400   44388   44406       4   44382   44403   44421   44433       4
   44382   44403   44424   44439       4   44379   44376   44397   44415       4
   44376   44361   44373   44394       4   44370   44358   44367   44385       4
   44370   44388   44400   44418       4   44367   44382   44400   44418       4
   44364   44370   44388   44406       4   44361   44373   44391   44412       4
   44361   44376   44397   44415       4   44358   44370   44388   44406       4
   44355   44361   44373   44394       4   44352   44358   44367   44385       4
   44724   44709   44721   44727       1   44724   44709   44721   44730       1
   44724   44709   44721   44733       1   44718   44709   44721   44727       1
   44718   44709   44721   44730       1   44718   44709   44721   44733       1
   44715   44706   44709   44718       1   44715   44706   44709   44721       2
   44715   44706   44709   44724       1   44712   44706   44709   44718       1
   44712   44706   44709   44721       2   44712   44706   44709   44724       1
   44706   44709   44721   44727       2   44706   44709   44721   44730       2
   44706   44709   44721   44733       2   44703   44691   44706   44709       2
   44703   44691   44706   44712       1   44703   44691   44706   44715       1
   44700   44691   44706   44709       2   44700   44691   44706   44712       1
   44700   44691   44706   44715       1   44697   44682   44691   44700       1
   44697   44682   44691   44703       1   44697   44682   44691   44706       2
   44694   44682   44691   44700       1   44694   44682   44691   44703       1
   44694   44682   44691   44706       2   44691   44706   44709   44718       2
   44691   44706   44709   44724       2   44688   44673   44682   44691       2
   44688   44673   44682   44694       1   44688   44673   44682   44697       1
   44685   44673   44682   44691       2   44685   44673   44682   44694       1
   44685   44673   44682   44697       1   44682   44691   44706   44712       2
   44682   44691   44706   44715       2   44679   44664   44673   44682       2
   44679   44664   44673   44685       1   44679   44664   44673   44688       1
   44676   44664   44673   44682       2   44676   44664   44673   44685       1
   44676   44664   44673   44688       1   44673   44682   44691   44700       2
   44673   44682   44691   44703       2   44670   44652   44664   44673       2
   44670   44652   44664   44676       1   44670   44652   44664   44679       1
   44667   44652   44664   44673       2   44667   44652   44664   44676       1
   44667   44652   44664   44679       1   44664   44673   44682   44694       2
   44664   44673   44682   44697       2   44658   44634   44652   44664       2
   44658   44634   44652   44667       1   44658   44634   44652   44670       1
   44655   44634   44652   44664       2   44655   44634   44652   44667       1
   44655   44634   44652   44670       1   44652   44664   44673   44685       2
   44652   44664   44673   44688       2   44649   44628   44643   44661       4
   44646   44622   44643   44661       4   44640   44619   44634   44652       2
   44640   44619   44634   44655       1   44640   44619   44634   44658       1
   44637   44619   44634   44652       2   44637   44619   44634   44655       1
   44637   44619   44634   44658       1   44634   44652   44664   44676       2
   44634   44652   44664   44679       2   44631   44616   44628   44643       4
   44631   44616   44628   44649       4   44628   44643   44622   44646       4
   44625   44613   44622   44643       4   44625   44613   44622   44646       4
   44622   44643   44628   44649       4   44619   44634   44652   44667       2
   44619   44634   44652   44670       2   44616   44595   44613   44625       4
   44616   44628   44643   44661       4   44613   44595   44616   44631       4
   44613   44622   44643   44661       4   44607   44589   44601   44619       4
   44604   44583   44601   44619       4   44601   44619   44634   44655       5
   44601   44619   44634   44658       5   44598   44580   44592   44610       4
   44595   44574   44592   44610       4   44595   44613   44622   44646       4
   44595   44616   44628   44649       4   44589   44601   44583   44604       4
   44589   44601   44619   44637       8   44589   44601   44619   44640       8
   44586   44565   44583   44601       4   44586   44565   44583   44604       4
   44583   44601   44589   44607       4   44583   44601   44619   44637       8
   44583   44601   44619   44640       8   44577   44559   44574   44592       4
   44577   44559   44574   44595       4   44574   44592   44580   44598       4
   44574   44595   44613   44625       4   44574   44595   44616   44631       4
   44571   44568   44589   44607       4   44568   44553   44565   44586       4
   44562   44550   44559   44577       4   44562   44580   44592   44610       4
   44559   44574   44592   44610       4   44556   44562   44580   44598       4
   44553   44565   44583   44604       4   44553   44568   44589   44607       4
   44550   44562   44580   44598       4   44547   44553   44565   44586       4
   44544   44550   44559   44577       4   44916   44901   44913   44919       1
   44916   44901   44913   44922       1   44916   44901   44913   44925       1
   44910   44901   44913   44919       1   44910   44901   44913   44922       1
   44910   44901   44913   44925       1   44907   44898   44901   44910       1
   44907   44898   44901   44913       2   44907   44898   44901   44916       1
   44904   44898   44901   44910       1   44904   44898   44901   44913       2
   44904   44898   44901   44916       1   44898   44901   44913   44919       2
   44898   44901   44913   44922       2   44898   44901   44913   44925       2
   44895   44883   44898   44901       2   44895   44883   44898   44904       1
   44895   44883   44898   44907       1   44892   44883   44898   44901       2
   44892   44883   44898   44904       1   44892   44883   44898   44907       1
   44889   44874   44883   44892       1   44889   44874   44883   44895       1
   44889   44874   44883   44898       2   44886   44874   44883   44892       1
   44886   44874   44883   44895       1   44886   44874   44883   44898       2
   44883   44898   44901   44910       2   44883   44898   44901   44916       2
   44880   44865   44874   44883       2   44880   44865   44874   44886       1
   44880   44865   44874   44889       1   44877   44865   44874   44883       2
   44877   44865   44874   44886       1   44877   44865   44874   44889       1
   44874   44883   44898   44904       2   44874   44883   44898   44907       2
   44871   44856   44865   44874       2   44871   44856   44865   44877       1
   44871   44856   44865   44880       1   44868   44856   44865   44874       2
   44868   44856   44865   44877       1   44868   44856   44865   44880       1
   44865   44874   44883   44892       2   44865   44874   44883   44895       2
   44862   44844   44856   44865       2   44862   44844   44856   44868       1
   44862   44844   44856   44871       1   44859   44844   44856   44865       2
   44859   44844   44856   44868       1   44859   44844   44856   44871       1
   44856   44865   44874   44886       2   44856   44865   44874   44889       2
   44850   44826   44844   44856       2   44850   44826   44844   44859       1
   44850   44826   44844   44862       1   44847   44826   44844   44856       2
   44847   44826   44844   44859       1   44847   44826   44844   44862       1
   44844   44856   44865   44877       2   44844   44856   44865   44880       2
   44841   44820   44835   44853       4   44838   44814   44835   44853       4
   44832   44811   44826   44844       2   44832   44811   44826   44847       1
   44832   44811   44826   44850       1   44829   44811   44826   44844       2
   44829   44811   44826   44847       1   44829   44811   44826   44850       1
   44826   44844   44856   44868       2   44826   44844   44856   44871       2
   44823   44808   44820   44835       4   44823   44808   44820   44841       4
   44820   44835   44814   44838       4   44817   44805   44814   44835       4
   44817   44805   44814   44838       4   44814   44835   44820   44841       4
   44811   44826   44844   44859       2   44811   44826   44844   44862       2
   44808   44787   44805   44817       4   44808   44820   44835   44853       4
   44805   44787   44808   44823       4   44805   44814   44835   44853       4
   44799   44781   44793   44811       4   44796   44775   44793   44811       4
   44793   44811   44826   44847       5   44793   44811   44826   44850       5
   44790   44772   44784   44802       4   44787   44766   44784   44802       4
   44787   44805   44814   44838       4   44787   44808   44820   44841       4
   44781   44793   44775   44796       4   44781   44793   44811   44829       8
   44781   44793   44811   44832       8   44778   44757   44775   44793       4
   44778   44757   44775   44796       4   44775   44793   44781   44799       4
   44775   44793   44811   44829       8   44775   44793   44811   44832       8
   44769   44751   44766   44784       4   44769   44751   44766   44787       4
   44766   44784   44772   44790       4   44766   44787   44805   44817       4
   44766   44787   44808   44823       4   44763   44760   44781   44799       4
   44760   44745   44757   44778       4   44754   44742   44751   44769       4
   44754   44772   44784   44802       4   44751   44766   44784   44802       4
   44748   44754   44772   44790       4   44745   44757   44775   44796       4
   44745   44760   44781   44799       4   44742   44754   44772   44790       4
   44739   44745   44757   44778       4   44736   44742   44751   44769       4
   45108   45093   45105   45111       1   45108   45093   45105   45114       1
   45108   45093   45105   45117       1   45102   45093   45105   45111       1
   45102   45093   45105   45114       1   45102   45093   45105   45117       1
   45099   45090   45093   45102       1   45099   45090   45093   45105       2
   45099   45090   45093   45108       1   45096   45090   45093   45102       1
   45096   45090   45093   45105       2   45096   45090   45093   45108       1
   45090   45093   45105   45111       2   45090   45093   45105   45114       2
   45090   45093   45105   45117       2   45087   45075   45090   45093       2
   45087   45075   45090   45096       1   45087   45075   45090   45099       1
   45084   45075   45090   45093       2   45084   45075   45090   45096       1
   45084   45075   45090   45099       1   45081   45066   45075   45084       1
   45081   45066   45075   45087       1   45081   45066   45075   45090       2
   45078   45066   45075   45084       1   45078   45066   45075   45087       1
   45078   45066   45075   45090       2   45075   45090   45093   45102       2
   45075   45090   45093   45108       2   45072   45057   45066   45075       2
   45072   45057   45066   45078       1   45072   45057   45066   45081       1
   45069   45057   45066   45075       2   45069   45057   45066   45078       1
   45069   45057   45066   45081       1   45066   45075   45090   45096       2
   45066   45075   45090   45099       2   45063   45048   45057   45066       2
   45063   45048   45057   45069       1   45063   45048   45057   45072       1
   45060   45048   45057   45066       2   45060   45048   45057   45069       1
   45060   45048   45057   45072       1   45057   45066   45075   45084       2
   45057   45066   45075   45087       2   45054   45036   45048   45057       2
   45054   45036   45048   45060       1   45054   45036   45048   45063       1
   45051   45036   45048   45057       2   45051   45036   45048   45060       1
   45051   45036   45048   45063       1   45048   45057   45066   45078       2
   45048   45057   45066   45081       2   45042   45018   45036   45048       2
   45042   45018   45036   45051       1   45042   45018   45036   45054       1
   45039   45018   45036   45048       2   45039   45018   45036   45051       1
   45039   45018   45036   45054       1   45036   45048   45057   45069       2
   45036   45048   45057   45072       2   45033   45012   45027   45045       4
   45030   45006   45027   45045       4   45024   45003   45018   45036       2
   45024   45003   45018   45039       1   45024   45003   45018   45042       1
   45021   45003   45018   45036       2   45021   45003   45018   45039       1
   45021   45003   45018   45042       1   45018   45036   45048   45060       2
   45018   45036   45048   45063       2   45015   45000   45012   45027       4
   45015   45000   45012   45033       4   45012   45027   45006   45030       4
   45009   44997   45006   45027       4   45009   44997   45006   45030       4
   45006   45027   45012   45033       4   45003   45018   45036   45051       2
   45003   45018   45036   45054       2   45000   44979   44997   45009       4
   45000   45012   45027   45045       4   44997   44979   45000   45015       4
   44997   45006   45027   45045       4   44991   44973   44985   45003       4
   44988   44967   44985   45003       4   44985   45003   45018   45039       5
   44985   45003   45018   45042       5   44982   44964   44976   44994       4
   44979   44958   44976   44994       4   44979   44997   45006   45030       4
   44979   45000   45012   45033       4   44973   44985   44967   44988       4
   44973   44985   45003   45021       8   44973   44985   45003   45024       8
   44970   44949   44967   44985       4   44970   44949   44967   44988       4
   44967   44985   44973   44991       4   44967   44985   45003   45021       8
   44967   44985   45003   45024       8   44961   44943   44958   44976       4
   44961   44943   44958   44979       4   44958   44976   44964   44982       4
   44958   44979   44997   45009       4   44958   44979   45000   45015       4
   44955   44952   44973   44991       4   44952   44937   44949   44970       4
   44946   44934   44943   44961       4   44946   44964   44976   44994       4
   44943   44958   44976   44994       4   44940   44946   44964   44982       4
   44937   44949   44967   44988       4   44937   44952   44973   44991       4
   44934   44946   44964   44982       4   44931   44937   44949   44970       4
   44928   44934   44943   44961       4   45300   45285   45297   45303       1
   45300   45285   45297   45306       1   45300   45285   45297   45309       1
   45294   45285   45297   45303       1   45294   45285   45297   45306       1
   45294   45285   45297   45309       1   45291   45282   45285   45294       1
   45291   45282   45285   45297       2   45291   45282   45285   45300       1
   45288   45282   45285   45294       1   45288   45282   45285   45297       2
   45288   45282   45285   45300       1   45282   45285   45297   45303       2
   45282   45285   45297   45306       2   45282   45285   45297   45309       2
   45279   45267   45282   45285       2   45279   45267   45282   45288       1
   45279   45267   45282   45291       1   45276   45267   45282   45285       2
   45276   45267   45282   45288       1   45276   45267   45282   45291       1
   45273   45258   45267   45276       1   45273   45258   45267   45279       1
   45273   45258   45267   45282       2   45270   45258   45267   45276       1
   45270   45258   45267   45279       1   45270   45258   45267   45282       2
   45267   45282   45285   45294       2   45267   45282   45285   45300       2
   45264   45249   45258   45267       2   45264   45249   45258   45270       1
   45264   45249   45258   45273       1   45261   45249   45258   45267       2
   45261   45249   45258   45270       1   45261   45249   45258   45273       1
   45258   45267   45282   45288       2   45258   45267   45282   45291       2
   45255   45240   45249   45258       2   45255   45240   45249   45261       1
   45255   45240   45249   45264       1   45252   45240   45249   45258       2
   45252   45240   45249   45261       1   45252   45240   45249   45264       1
   45249   45258   45267   45276       2   45249   45258   45267   45279       2
   45246   45228   45240   45249       2   45246   45228   45240   45252       1
   45246   45228   45240   45255       1   45243   45228   45240   45249       2
   45243   45228   45240   45252       1   45243   45228   45240   45255       1
   45240   45249   45258   45270       2   45240   45249   45258   45273       2
   45234   45210   45228   45240       2   45234   45210   45228   45243       1
   45234   45210   45228   45246       1   45231   45210   45228   45240       2
   45231   45210   45228   45243       1   45231   45210   45228   45246       1
   45228   45240   45249   45261       2   45228   45240   45249   45264       2
   45225   45204   45219   45237       4   45222   45198   45219   45237       4
   45216   45195   45210   45228       2   45216   45195   45210   45231       1
   45216   45195   45210   45234       1   45213   45195   45210   45228       2
   45213   45195   45210   45231       1   45213   45195   45210   45234       1
   45210   45228   45240   45252       2   45210   45228   45240   45255       2
   45207   45192   45204   45219       4   45207   45192   45204   45225       4
   45204   45219   45198   45222       4   45201   45189   45198   45219       4
   45201   45189   45198   45222       4   45198   45219   45204   45225       4
   45195   45210   45228   45243       2   45195   45210   45228   45246       2
   45192   45171   45189   45201       4   45192   45204   45219   45237       4
   45189   45171   45192   45207       4   45189   45198   45219   45237       4
   45183   45165   45177   45195       4   45180   45159   45177   45195       4
   45177   45195   45210   45231       5   45177   45195   45210   45234       5
   45174   45156   45168   45186       4   45171   45150   45168   45186       4
   45171   45189   45198   45222       4   45171   45192   45204   45225       4
   45165   45177   45159   45180       4   45165   45177   45195   45213       8
   45165   45177   45195   45216       8   45162   45141   45159   45177       4
   45162   45141   45159   45180       4   45159   45177   45165   45183       4
   45159   45177   45195   45213       8   45159   45177   45195   45216       8
   45153   45135   45150   45168       4   45153   45135   45150   45171       4
   45150   45168   45156   45174       4   45150   45171   45189   45201       4
   45150   45171   45192   45207       4   45147   45144   45165   45183       4
   45144   45129   45141   45162       4   45138   45126   45135   45153       4
   45138   45156   45168   45186       4   45135   45150   45168   45186       4
   45132   45138   45156   45174       4   45129   45141   45159   45180       4
   45129   45144   45165   45183       4   45126   45138   45156   45174       4
   45123   45129   45141   45162       4   45120   45126   45135   45153       4
   45492   45477   45489   45495       1   45492   45477   45489   45498       1
   45492   45477   45489   45501       1   45486   45477   45489   45495       1
   45486   45477   45489   45498       1   45486   45477   45489   45501       1
   45483   45474   45477   45486       1   45483   45474   45477   45489       2
   45483   45474   45477   45492       1   45480   45474   45477   45486       1
   45480   45474   45477   45489       2   45480   45474   45477   45492       1
   45474   45477   45489   45495       2   45474   45477   45489   45498       2
   45474   45477   45489   45501       2   45471   45459   45474   45477       2
   45471   45459   45474   45480       1   45471   45459   45474   45483       1
   45468   45459   45474   45477       2   45468   45459   45474   45480       1
   45468   45459   45474   45483       1   45465   45450   45459   45468       1
   45465   45450   45459   45471       1   45465   45450   45459   45474       2
   45462   45450   45459   45468       1   45462   45450   45459   45471       1
   45462   45450   45459   45474       2   45459   45474   45477   45486       2
   45459   45474   45477   45492       2   45456   45441   45450   45459       2
   45456   45441   45450   45462       1   45456   45441   45450   45465       1
   45453   45441   45450   45459       2   45453   45441   45450   45462       1
   45453   45441   45450   45465       1   45450   45459   45474   45480       2
   45450   45459   45474   45483       2   45447   45432   45441   45450       2
   45447   45432   45441   45453       1   45447   45432   45441   45456       1
   45444   45432   45441   45450       2   45444   45432   45441   45453       1
   45444   45432   45441   45456       1   45441   45450   45459   45468       2
   45441   45450   45459   45471       2   45438   45420   45432   45441       2
   45438   45420   45432   45444       1   45438   45420   45432   45447       1
   45435   45420   45432   45441       2   45435   45420   45432   45444       1
   45435   45420   45432   45447       1   45432   45441   45450   45462       2
   45432   45441   45450   45465       2   45426   45402   45420   45432       2
   45426   45402   45420   45435       1   45426   45402   45420   45438       1
   45423   45402   45420   45432       2   45423   45402   45420   45435       1
   45423   45402   45420   45438       1   45420   45432   45441   45453       2
   45420   45432   45441   45456       2   45417   45396   45411   45429       4
   45414   45390   45411   45429       4   45408   45387   45402   45420       2
   45408   45387   45402   45423       1   45408   45387   45402   45426       1
   45405   45387   45402   45420       2   45405   45387   45402   45423       1
   45405   45387   45402   45426       1   45402   45420   45432   45444       2
   45402   45420   45432   45447       2   45399   45384   45396   45411       4
   45399   45384   45396   45417       4   45396   45411   45390   45414       4
   45393   45381   45390   45411       4   45393   45381   45390   45414       4
   45390   45411   45396   45417       4   45387   45402   45420   45435       2
   45387   45402   45420   45438       2   45384   45363   45381   45393       4
   45384   45396   45411   45429       4   45381   45363   45384   45399       4
   45381   45390   45411   45429       4   45375   45357   45369   45387       4
   45372   45351   45369   45387       4   45369   45387   45402   45423       5
   45369   45387   45402   45426       5   45366   45348   45360   45378       4
   45363   45342   45360   45378       4   45363   45381   45390   45414       4
   45363   45384   45396   45417       4   45357   45369   45351   45372       4
   45357   45369   45387   45405       8   45357   45369   45387   45408       8
   45354   45333   45351   45369       4   45354   45333   45351   45372       4
   45351   45369   45357   45375       4   45351   45369   45387   45405       8
   45351   45369   45387   45408       8   45345   45327   45342   45360       4
   45345   45327   45342   45363       4   45342   45360   45348   45366       4
   45342   45363   45381   45393       4   45342   45363   45384   45399       4
   45339   45336   45357   45375       4   45336   45321   45333   45354       4
   45330   45318   45327   45345       4   45330   45348   45360   45378       4
   45327   45342   45360   45378       4   45324   45330   45348   45366       4
   45321   45333   45351   45372       4   45321   45336   45357   45375       4
   45318   45330   45348   45366       4   45315   45321   45333   45354       4
   45312   45318   45327   45345       4   45684   45669   45681   45687       1
   45684   45669   45681   45690       1   45684   45669   45681   45693       1
   45678   45669   45681   45687       1   45678   45669   45681   45690       1
   45678   45669   45681   45693       1   45675   45666   45669   45678       1
   45675   45666   45669   45681       2   45675   45666   45669   45684       1
   45672   45666   45669   45678       1   45672   45666   45669   45681       2
   45672   45666   45669   45684       1   45666   45669   45681   45687       2
   45666   45669   45681   45690       2   45666   45669   45681   45693       2
   45663   45651   45666   45669       2   45663   45651   45666   45672       1
   45663   45651   45666   45675       1   45660   45651   45666   45669       2
   45660   45651   45666   45672       1   45660   45651   45666   45675       1
   45657   45642   45651   45660       1   45657   45642   45651   45663       1
   45657   45642   45651   45666       2   45654   45642   45651   45660       1
   45654   45642   45651   45663       1   45654   45642   45651   45666       2
   45651   45666   45669   45678       2   45651   45666   45669   45684       2
   45648   45633   45642   45651       2   45648   45633   45642   45654       1
   45648   45633   45642   45657       1   45645   45633   45642   45651       2
   45645   45633   45642   45654       1   45645   45633   45642   45657       1
   45642   45651   45666   45672       2   45642   45651   45666   45675       2
   45639   45624   45633   45642       2   45639   45624   45633   45645       1
   45639   45624   45633   45648       1   45636   45624   45633   45642       2
   45636   45624   45633   45645       1   45636   45624   45633   45648       1
   45633   45642   45651   45660       2   45633   45642   45651   45663       2
   45630   45612   45624   45633       2   45630   45612   45624   45636       1
   45630   45612   45624   45639       1   45627   45612   45624   45633       2
   45627   45612   45624   45636       1   45627   45612   45624   45639       1
   45624   45633   45642   45654       2   45624   45633   45642   45657       2
   45618   45594   45612   45624       2   45618   45594   45612   45627       1
   45618   45594   45612   45630       1   45615   45594   45612   45624       2
   45615   45594   45612   45627       1   45615   45594   45612   45630       1
   45612   45624   45633   45645       2   45612   45624   45633   45648       2
   45609   45588   45603   45621       4   45606   45582   45603   45621       4
   45600   45579   45594   45612       2   45600   45579   45594   45615       1
   45600   45579   45594   45618       1   45597   45579   45594   45612       2
   45597   45579   45594   45615       1   45597   45579   45594   45618       1
   45594   45612   45624   45636       2   45594   45612   45624   45639       2
   45591   45576   45588   45603       4   45591   45576   45588   45609       4
   45588   45603   45582   45606       4   45585   45573   45582   45603       4
   45585   45573   45582   45606       4   45582   45603   45588   45609       4
   45579   45594   45612   45627       2   45579   45594   45612   45630       2
   45576   45555   45573   45585       4   45576   45588   45603   45621       4
   45573   45555   45576   45591       4   45573   45582   45603   45621       4
   45567   45549   45561   45579       4   45564   45543   45561   45579       4
   45561   45579   45594   45615       5   45561   45579   45594   45618       5
   45558   45540   45552   45570       4   45555   45534   45552   45570       4
   45555   45573   45582   45606       4   45555   45576   45588   45609       4
   45549   45561   45543   45564       4   45549   45561   45579   45597       8
   45549   45561   45579   45600       8   45546   45525   45543   45561       4
   45546   45525   45543   45564       4   45543   45561   45549   45567       4
   45543   45561   45579   45597       8   45543   45561   45579   45600       8
   45537   45519   45534   45552       4   45537   45519   45534   45555       4
   45534   45552   45540   45558       4   45534   45555   45573   45585       4
   45534   45555   45576   45591       4   45531   45528   45549   45567       4
   45528   45513   45525   45546       4   45522   45510   45519   45537       4
   45522   45540   45552   45570       4   45519   45534   45552   45570       4
   45516   45522   45540   45558       4   45513   45525   45543   45564       4
   45513   45528   45549   45567       4   45510   45522   45540   45558       4
   45507   45513   45525   45546       4   45504   45510   45519   45537       4
   45876   45861   45873   45879       1   45876   45861   45873   45882       1
   45876   45861   45873   45885       1   45870   45861   45873   45879       1
   45870   45861   45873   45882       1   45870   45861   45873   45885       1
   45867   45858   45861   45870       1   45867   45858   45861   45873       2
   45867   45858   45861   45876       1   45864   45858   45861   45870       1
   45864   45858   45861   45873       2   45864   45858   45861   45876       1
   45858   45861   45873   45879       2   45858   45861   45873   45882       2
   45858   45861   45873   45885       2   45855   45843   45858   45861       2
   45855   45843   45858   45864       1   45855   45843   45858   45867       1
   45852   45843   45858   45861       2   45852   45843   45858   45864       1
   45852   45843   45858   45867       1   45849   45834   45843   45852       1
   45849   45834   45843   45855       1   45849   45834   45843   45858       2
   45846   45834   45843   45852       1   45846   45834   45843   45855       1
   45846   45834   45843   45858       2   45843   45858   45861   45870       2
   45843   45858   45861   45876       2   45840   45825   45834   45843       2
   45840   45825   45834   45846       1   45840   45825   45834   45849       1
   45837   45825   45834   45843       2   45837   45825   45834   45846       1
   45837   45825   45834   45849       1   45834   45843   45858   45864       2
   45834   45843   45858   45867       2   45831   45816   45825   45834       2
   45831   45816   45825   45837       1   45831   45816   45825   45840       1
   45828   45816   45825   45834       2   45828   45816   45825   45837       1
   45828   45816   45825   45840       1   45825   45834   45843   45852       2
   45825   45834   45843   45855       2   45822   45804   45816   45825       2
   45822   45804   45816   45828       1   45822   45804   45816   45831       1
   45819   45804   45816   45825       2   45819   45804   45816   45828       1
   45819   45804   45816   45831       1   45816   45825   45834   45846       2
   45816   45825   45834   45849       2   45810   45786   45804   45816       2
   45810   45786   45804   45819       1   45810   45786   45804   45822       1
   45807   45786   45804   45816       2   45807   45786   45804   45819       1
   45807   45786   45804   45822       1   45804   45816   45825   45837       2
   45804   45816   45825   45840       2   45801   45780   45795   45813       4
   45798   45774   45795   45813       4   45792   45771   45786   45804       2
   45792   45771   45786   45807       1   45792   45771   45786   45810       1
   45789   45771   45786   45804       2   45789   45771   45786   45807       1
   45789   45771   45786   45810       1   45786   45804   45816   45828       2
   45786   45804   45816   45831       2   45783   45768   45780   45795       4
   45783   45768   45780   45801       4   45780   45795   45774   45798       4
   45777   45765   45774   45795       4   45777   45765   45774   45798       4
   45774   45795   45780   45801       4   45771   45786   45804   45819       2
   45771   45786   45804   45822       2   45768   45747   45765   45777       4
   45768   45780   45795   45813       4   45765   45747   45768   45783       4
   45765   45774   45795   45813       4   45759   45741   45753   45771       4
   45756   45735   45753   45771       4   45753   45771   45786   45807       5
   45753   45771   45786   45810       5   45750   45732   45744   45762       4
   45747   45726   45744   45762       4   45747   45765   45774   45798       4
   45747   45768   45780   45801       4   45741   45753   45735   45756       4
   45741   45753   45771   45789       8   45741   45753   45771   45792       8
   45738   45717   45735   45753       4   45738   45717   45735   45756       4
   45735   45753   45741   45759       4   45735   45753   45771   45789       8
   45735   45753   45771   45792       8   45729   45711   45726   45744       4
   45729   45711   45726   45747       4   45726   45744   45732   45750       4
   45726   45747   45765   45777       4   45726   45747   45768   45783       4
   45723   45720   45741   45759       4   45720   45705   45717   45738       4
   45714   45702   45711   45729       4   45714   45732   45744   45762       4
   45711   45726   45744   45762       4   45708   45714   45732   45750       4
   45705   45717   45735   45756       4   45705   45720   45741   45759       4
   45702   45714   45732   45750       4   45699   45705   45717   45738       4
   45696   45702   45711   45729       4   46068   46053   46065   46071       1
   46068   46053   46065   46074       1   46068   46053   46065   46077       1
   46062   46053   46065   46071       1   46062   46053   46065   46074       1
   46062   46053   46065   46077       1   46059   46050   46053   46062       1
   46059   46050   46053   46065       2   46059   46050   46053   46068       1
   46056   46050   46053   46062       1   46056   46050   46053   46065       2
   46056   46050   46053   46068       1   46050   46053   46065   46071       2
   46050   46053   46065   46074       2   46050   46053   46065   46077       2
   46047   46035   46050   46053       2   46047   46035   46050   46056       1
   46047   46035   46050   46059       1   46044   46035   46050   46053       2
   46044   46035   46050   46056       1   46044   46035   46050   46059       1
   46041   46026   46035   46044       1   46041   46026   46035   46047       1
   46041   46026   46035   46050       2   46038   46026   46035   46044       1
   46038   46026   46035   46047       1   46038   46026   46035   46050       2
   46035   46050   46053   46062       2   46035   46050   46053   46068       2
   46032   46017   46026   46035       2   46032   46017   46026   46038       1
   46032   46017   46026   46041       1   46029   46017   46026   46035       2
   46029   46017   46026   46038       1   46029   46017   46026   46041       1
   46026   46035   46050   46056       2   46026   46035   46050   46059       2
   46023   46008   46017   46026       2   46023   46008   46017   46029       1
   46023   46008   46017   46032       1   46020   46008   46017   46026       2
   46020   46008   46017   46029       1   46020   46008   46017   46032       1
   46017   46026   46035   46044       2   46017   46026   46035   46047       2
   46014   45996   46008   46017       2   46014   45996   46008   46020       1
   46014   45996   46008   46023       1   46011   45996   46008   46017       2
   46011   45996   46008   46020       1   46011   45996   46008   46023       1
   46008   46017   46026   46038       2   46008   46017   46026   46041       2
   46002   45978   45996   46008       2   46002   45978   45996   46011       1
   46002   45978   45996   46014       1   45999   45978   45996   46008       2
   45999   45978   45996   46011       1   45999   45978   45996   46014       1
   45996   46008   46017   46029       2   45996   46008   46017   46032       2
   45993   45972   45987   46005       4   45990   45966   45987   46005       4
   45984   45963   45978   45996       2   45984   45963   45978   45999       1
   45984   45963   45978   46002       1   45981   45963   45978   45996       2
   45981   45963   45978   45999       1   45981   45963   45978   46002       1
   45978   45996   46008   46020       2   45978   45996   46008   46023       2
   45975   45960   45972   45987       4   45975   45960   45972   45993       4
   45972   45987   45966   45990       4   45969   45957   45966   45987       4
   45969   45957   45966   45990       4   45966   45987   45972   45993       4
   45963   45978   45996   46011       2   45963   45978   45996   46014       2
   45960   45939   45957   45969       4   45960   45972   45987   46005       4
   45957   45939   45960   45975       4   45957   45966   45987   46005       4
   45951   45933   45945   45963       4   45948   45927   45945   45963       4
   45945   45963   45978   45999       5   45945   45963   45978   46002       5
   45942   45924   45936   45954       4   45939   45918   45936   45954       4
   45939   45957   45966   45990       4   45939   45960   45972   45993       4
   45933   45945   45927   45948       4   45933   45945   45963   45981       8
   45933   45945   45963   45984       8   45930   45909   45927   45945       4
   45930   45909   45927   45948       4   45927   45945   45933   45951       4
   45927   45945   45963   45981       8   45927   45945   45963   45984       8
   45921   45903   45918   45936       4   45921   45903   45918   45939       4
   45918   45936   45924   45942       4   45918   45939   45957   45969       4
   45918   45939   45960   45975       4   45915   45912   45933   45951       4
   45912   45897   45909   45930       4   45906   45894   45903   45921       4
   45906   45924   45936   45954       4   45903   45918   45936   45954       4
   45900   45906   45924   45942       4   45897   45909   45927   45948       4
   45897   45912   45933   45951       4   45894   45906   45924   45942       4
   45891   45897   45909   45930       4   45888   45894   45903   45921       4
   46260   46245   46257   46263       1   46260   46245   46257   46266       1
   46260   46245   46257   46269       1   46254   46245   46257   46263       1
   46254   46245   46257   46266       1   46254   46245   46257   46269       1
   46251   46242   46245   46254       1   46251   46242   46245   46257       2
   46251   46242   46245   46260       1   46248   46242   46245   46254       1
   46248   46242   46245   46257       2   46248   46242   46245   46260       1
   46242   46245   46257   46263       2   46242   46245   46257   46266       2
   46242   46245   46257   46269       2   46239   46227   46242   46245       2
   46239   46227   46242   46248       1   46239   46227   46242   46251       1
   46236   46227   46242   46245       2   46236   46227   46242   46248       1
   46236   46227   46242   46251       1   46233   46218   46227   46236       1
   46233   46218   46227   46239       1   46233   46218   46227   46242       2
   46230   46218   46227   46236       1   46230   46218   46227   46239       1
   46230   46218   46227   46242       2   46227   46242   46245   46254       2
   46227   46242   46245   46260       2   46224   46209   46218   46227       2
   46224   46209   46218   46230       1   46224   46209   46218   46233       1
   46221   46209   46218   46227       2   46221   46209   46218   46230       1
   46221   46209   46218   46233       1   46218   46227   46242   46248       2
   46218   46227   46242   46251       2   46215   46200   46209   46218       2
   46215   46200   46209   46221       1   46215   46200   46209   46224       1
   46212   46200   46209   46218       2   46212   46200   46209   46221       1
   46212   46200   46209   46224       1   46209   46218   46227   46236       2
   46209   46218   46227   46239       2   46206   46188   46200   46209       2
   46206   46188   46200   46212       1   46206   46188   46200   46215       1
   46203   46188   46200   46209       2   46203   46188   46200   46212       1
   46203   46188   46200   46215       1   46200   46209   46218   46230       2
   46200   46209   46218   46233       2   46194   46170   46188   46200       2
   46194   46170   46188   46203       1   46194   46170   46188   46206       1
   46191   46170   46188   46200       2   46191   46170   46188   46203       1
   46191   46170   46188   46206       1   46188   46200   46209   46221       2
   46188   46200   46209   46224       2   46185   46164   46179   46197       4
   46182   46158   46179   46197       4   46176   46155   46170   46188       2
   46176   46155   46170   46191       1   46176   46155   46170   46194       1
   46173   46155   46170   46188       2   46173   46155   46170   46191       1
   46173   46155   46170   46194       1   46170   46188   46200   46212       2
   46170   46188   46200   46215       2   46167   46152   46164   46179       4
   46167   46152   46164   46185       4   46164   46179   46158   46182       4
   46161   46149   46158   46179       4   46161   46149   46158   46182       4
   46158   46179   46164   46185       4   46155   46170   46188   46203       2
   46155   46170   46188   46206       2   46152   46131   46149   46161       4
   46152   46164   46179   46197       4   46149   46131   46152   46167       4
   46149   46158   46179   46197       4   46143   46125   46137   46155       4
   46140   46119   46137   46155       4   46137   46155   46170   46191       5
   46137   46155   46170   46194       5   46134   46116   46128   46146       4
   46131   46110   46128   46146       4   46131   46149   46158   46182       4
   46131   46152   46164   46185       4   46125   46137   46119   46140       4
   46125   46137   46155   46173       8   46125   46137   46155   46176       8
   46122   46101   46119   46137       4   46122   46101   46119   46140       4
   46119   46137   46125   46143       4   46119   46137   46155   46173       8
   46119   46137   46155   46176       8   46113   46095   46110   46128       4
   46113   46095   46110   46131       4   46110   46128   46116   46134       4
   46110   46131   46149   46161       4   46110   46131   46152   46167       4
   46107   46104   46125   46143       4   46104   46089   46101   46122       4
   46098   46086   46095   46113       4   46098   46116   46128   46146       4
   46095   46110   46128   46146       4   46092   46098   46116   46134       4
   46089   46101   46119   46140       4   46089   46104   46125   46143       4
   46086   46098   46116   46134       4   46083   46089   46101   46122       4
   46080   46086   46095   46113       4   46452   46437   46449   46455       1
   46452   46437   46449   46458       1   46452   46437   46449   46461       1
   46446   46437   46449   46455       1   46446   46437   46449   46458       1
   46446   46437   46449   46461       1   46443   46434   46437   46446       1
   46443   46434   46437   46449       2   46443   46434   46437   46452       1
   46440   46434   46437   46446       1   46440   46434   46437   46449       2
   46440   46434   46437   46452       1   46434   46437   46449   46455       2
   46434   46437   46449   46458       2   46434   46437   46449   46461       2
   46431   46419   46434   46437       2   46431   46419   46434   46440       1
   46431   46419   46434   46443       1   46428   46419   46434   46437       2
   46428   46419   46434   46440       1   46428   46419   46434   46443       1
   46425   46410   46419   46428       1   46425   46410   46419   46431       1
   46425   46410   46419   46434       2   46422   46410   46419   46428       1
   46422   46410   46419   46431       1   46422   46410   46419   46434       2
   46419   46434   46437   46446       2   46419   46434   46437   46452       2
   46416   46401   46410   46419       2   46416   46401   46410   46422       1
   46416   46401   46410   46425       1   46413   46401   46410   46419       2
   46413   46401   46410   46422       1   46413   46401   46410   46425       1
   46410   46419   46434   46440       2   46410   46419   46434   46443       2
   46407   46392   46401   46410       2   46407   46392   46401   46413       1
   46407   46392   46401   46416       1   46404   46392   46401   46410       2
   46404   46392   46401   46413       1   46404   46392   46401   46416       1
   46401   46410   46419   46428       2   46401   46410   46419   46431       2
   46398   46380   46392   46401       2   46398   46380   46392   46404       1
   46398   46380   46392   46407       1   46395   46380   46392   46401       2
   46395   46380   46392   46404       1   46395   46380   46392   46407       1
   46392   46401   46410   46422       2   46392   46401   46410   46425       2
   46386   46362   46380   46392       2   46386   46362   46380   46395       1
   46386   46362   46380   46398       1   46383   46362   46380   46392       2
   46383   46362   46380   46395       1   46383   46362   46380   46398       1
   46380   46392   46401   46413       2   46380   46392   46401   46416       2
   46377   46356   46371   46389       4   46374   46350   46371   46389       4
   46368   46347   46362   46380       2   46368   46347   46362   46383       1
   46368   46347   46362   46386       1   46365   46347   46362   46380       2
   46365   46347   46362   46383       1   46365   46347   46362   46386       1
   46362   46380   46392   46404       2   46362   46380   46392   46407       2
   46359   46344   46356   46371       4   46359   46344   46356   46377       4
   46356   46371   46350   46374       4   46353   46341   46350   46371       4
   46353   46341   46350   46374       4   46350   46371   46356   46377       4
   46347   46362   46380   46395       2   46347   46362   46380   46398       2
   46344   46323   46341   46353       4   46344   46356   46371   46389       4
   46341   46323   46344   46359       4   46341   46350   46371   46389       4
   46335   46317   46329   46347       4   46332   46311   46329   46347       4
   46329   46347   46362   46383       5   46329   46347   46362   46386       5
   46326   46308   46320   46338       4   46323   46302   46320   46338       4
   46323   46341   46350   46374       4   46323   46344   46356   46377       4
   46317   46329   46311   46332       4   46317   46329   46347   46365       8
   46317   46329   46347   46368       8   46314   46293   46311   46329       4
   46314   46293   46311   46332       4   46311   46329   46317   46335       4
   46311   46329   46347   46365       8   46311   46329   46347   46368       8
   46305   46287   46302   46320       4   46305   46287   46302   46323       4
   46302   46320   46308   46326       4   46302   46323   46341   46353       4
   46302   46323   46344   46359       4   46299   46296   46317   46335       4
   46296   46281   46293   46314       4   46290   46278   46287   46305       4
   46290   46308   46320   46338       4   46287   46302   46320   46338       4
   46284   46290   46308   46326       4   46281   46293   46311   46332       4
   46281   46296   46317   46335       4   46278   46290   46308   46326       4
   46275   46281   46293   46314       4   46272   46278   46287   46305       4
   46644   46629   46641   46647       1   46644   46629   46641   46650       1
   46644   46629   46641   46653       1   46638   46629   46641   46647       1
   46638   46629   46641   46650       1   46638   46629   46641   46653       1
   46635   46626   46629   46638       1   46635   46626   46629   46641       2
   46635   46626   46629   46644       1   46632   46626   46629   46638       1
   46632   46626   46629   46641       2   46632   46626   46629   46644       1
   46626   46629   46641   46647       2   46626   46629   46641   46650       2
   46626   46629   46641   46653       2   46623   46611   46626   46629       2
   46623   46611   46626   46632       1   46623   46611   46626   46635       1
   46620   46611   46626   46629       2   46620   46611   46626   46632       1
   46620   46611   46626   46635       1   46617   46602   46611   46620       1
   46617   46602   46611   46623       1   46617   46602   46611   46626       2
   46614   46602   46611   46620       1   46614   46602   46611   46623       1
   46614   46602   46611   46626       2   46611   46626   46629   46638       2
   46611   46626   46629   46644       2   46608   46593   46602   46611       2
   46608   46593   46602   46614       1   46608   46593   46602   46617       1
   46605   46593   46602   46611       2   46605   46593   46602   46614       1
   46605   46593   46602   46617       1   46602   46611   46626   46632       2
   46602   46611   46626   46635       2   46599   46584   46593   46602       2
   46599   46584   46593   46605       1   46599   46584   46593   46608       1
   46596   46584   46593   46602       2   46596   46584   46593   46605       1
   46596   46584   46593   46608       1   46593   46602   46611   46620       2
   46593   46602   46611   46623       2   46590   46572   46584   46593       2
   46590   46572   46584   46596       1   46590   46572   46584   46599       1
   46587   46572   46584   46593       2   46587   46572   46584   46596       1
   46587   46572   46584   46599       1   46584   46593   46602   46614       2
   46584   46593   46602   46617       2   46578   46554   46572   46584       2
   46578   46554   46572   46587       1   46578   46554   46572   46590       1
   46575   46554   46572   46584       2   46575   46554   46572   46587       1
   46575   46554   46572   46590       1   46572   46584   46593   46605       2
   46572   46584   46593   46608       2   46569   46548   46563   46581       4
   46566   46542   46563   46581       4   46560   46539   46554   46572       2
   46560   46539   46554   46575       1   46560   46539   46554   46578       1
   46557   46539   46554   46572       2   46557   46539   46554   46575       1
   46557   46539   46554   46578       1   46554   46572   46584   46596       2
   46554   46572   46584   46599       2   46551   46536   46548   46563       4
   46551   46536   46548   46569       4   46548   46563   46542   46566       4
   46545   46533   46542   46563       4   46545   46533   46542   46566       4
   46542   46563   46548   46569       4   46539   46554   46572   46587       2
   46539   46554   46572   46590       2   46536   46515   46533   46545       4
   46536   46548   46563   46581       4   46533   46515   46536   46551       4
   46533   46542   46563   46581       4   46527   46509   46521   46539       4
   46524   46503   46521   46539       4   46521   46539   46554   46575       5
   46521   46539   46554   46578       5   46518   46500   46512   46530       4
   46515   46494   46512   46530       4   46515   46533   46542   46566       4
   46515   46536   46548   46569       4   46509   46521   46503   46524       4
   46509   46521   46539   46557       8   46509   46521   46539   46560       8
   46506   46485   46503   46521       4   46506   46485   46503   46524       4
   46503   46521   46509   46527       4   46503   46521   46539   46557       8
   46503   46521   46539   46560       8   46497   46479   46494   46512       4
   46497   46479   46494   46515       4   46494   46512   46500   46518       4
   46494   46515   46533   46545       4   46494   46515   46536   46551       4
   46491   46488   46509   46527       4   46488   46473   46485   46506       4
   46482   46470   46479   46497       4   46482   46500   46512   46530       4
   46479   46494   46512   46530       4   46476   46482   46500   46518       4
   46473   46485   46503   46524       4   46473   46488   46509   46527       4
   46470   46482   46500   46518       4   46467   46473   46485   46506       4
   46464   46470   46479   46497       4   46836   46821   46833   46839       1
   46836   46821   46833   46842       1   46836   46821   46833   46845       1
   46830   46821   46833   46839       1   46830   46821   46833   46842       1
   46830   46821   46833   46845       1   46827   46818   46821   46830       1
   46827   46818   46821   46833       2   46827   46818   46821   46836       1
   46824   46818   46821   46830       1   46824   46818   46821   46833       2
   46824   46818   46821   46836       1   46818   46821   46833   46839       2
   46818   46821   46833   46842       2   46818   46821   46833   46845       2
   46815   46803   46818   46821       2   46815   46803   46818   46824       1
   46815   46803   46818   46827       1   46812   46803   46818   46821       2
   46812   46803   46818   46824       1   46812   46803   46818   46827       1
   46809   46794   46803   46812       1   46809   46794   46803   46815       1
   46809   46794   46803   46818       2   46806   46794   46803   46812       1
   46806   46794   46803   46815       1   46806   46794   46803   46818       2
   46803   46818   46821   46830       2   46803   46818   46821   46836       2
   46800   46785   46794   46803       2   46800   46785   46794   46806       1
   46800   46785   46794   46809       1   46797   46785   46794   46803       2
   46797   46785   46794   46806       1   46797   46785   46794   46809       1
   46794   46803   46818   46824       2   46794   46803   46818   46827       2
   46791   46776   46785   46794       2   46791   46776   46785   46797       1
   46791   46776   46785   46800       1   46788   46776   46785   46794       2
   46788   46776   46785   46797       1   46788   46776   46785   46800       1
   46785   46794   46803   46812       2   46785   46794   46803   46815       2
   46782   46764   46776   46785       2   46782   46764   46776   46788       1
   46782   46764   46776   46791       1   46779   46764   46776   46785       2
   46779   46764   46776   46788       1   46779   46764   46776   46791       1
   46776   46785   46794   46806       2   46776   46785   46794   46809       2
   46770   46746   46764   46776       2   46770   46746   46764   46779       1
   46770   46746   46764   46782       1   46767   46746   46764   46776       2
   46767   46746   46764   46779       1   46767   46746   46764   46782       1
   46764   46776   46785   46797       2   46764   46776   46785   46800       2
   46761   46740   46755   46773       4   46758   46734   46755   46773       4
   46752   46731   46746   46764       2   46752   46731   46746   46767       1
   46752   46731   46746   46770       1   46749   46731   46746   46764       2
   46749   46731   46746   46767       1   46749   46731   46746   46770       1
   46746   46764   46776   46788       2   46746   46764   46776   46791       2
   46743   46728   46740   46755       4   46743   46728   46740   46761       4
   46740   46755   46734   46758       4   46737   46725   46734   46755       4
   46737   46725   46734   46758       4   46734   46755   46740   46761       4
   46731   46746   46764   46779       2   46731   46746   46764   46782       2
   46728   46707   46725   46737       4   46728   46740   46755   46773       4
   46725   46707   46728   46743       4   46725   46734   46755   46773       4
   46719   46701   46713   46731       4   46716   46695   46713   46731       4
   46713   46731   46746   46767       5   46713   46731   46746   46770       5
   46710   46692   46704   46722       4   46707   46686   46704   46722       4
   46707   46725   46734   46758       4   46707   46728   46740   46761       4
   46701   46713   46695   46716       4   46701   46713   46731   46749       8
   46701   46713   46731   46752       8   46698   46677   46695   46713       4
   46698   46677   46695   46716       4   46695   46713   46701   46719       4
   46695   46713   46731   46749       8   46695   46713   46731   46752       8
   46689   46671   46686   46704       4   46689   46671   46686   46707       4
   46686   46704   46692   46710       4   46686   46707   46725   46737       4
   46686   46707   46728   46743       4   46683   46680   46701   46719       4
   46680   46665   46677   46698       4   46674   46662   46671   46689       4
   46674   46692   46704   46722       4   46671   46686   46704   46722       4
   46668   46674   46692   46710       4   46665   46677   46695   46716       4
   46665   46680   46701   46719       4   46662   46674   46692   46710       4
   46659   46665   46677   46698       4   46656   46662   46671   46689       4
   47028   47013   47025   47031       1   47028   47013   47025   47034       1
   47028   47013   47025   47037       1   47022   47013   47025   47031       1
   47022   47013   47025   47034       1   47022   47013   47025   47037       1
   47019   47010   47013   47022       1   47019   47010   47013   47025       2
   47019   47010   47013   47028       1   47016   47010   47013   47022       1
   47016   47010   47013   47025       2   47016   47010   47013   47028       1
   47010   47013   47025   47031       2   47010   47013   47025   47034       2
   47010   47013   47025   47037       2   47007   46995   47010   47013       2
   47007   46995   47010   47016       1   47007   46995   47010   47019       1
   47004   46995   47010   47013       2   47004   46995   47010   47016       1
   47004   46995   47010   47019       1   47001   46986   46995   47004       1
   47001   46986   46995   47007       1   47001   46986   46995   47010       2
   46998   46986   46995   47004       1   46998   46986   46995   47007       1
   46998   46986   46995   47010       2   46995   47010   47013   47022       2
   46995   47010   47013   47028       2   46992   46977   46986   46995       2
   46992   46977   46986   46998       1   46992   46977   46986   47001       1
   46989   46977   46986   46995       2   46989   46977   46986   46998       1
   46989   46977   46986   47001       1   46986   46995   47010   47016       2
   46986   46995   47010   47019       2   46983   46968   46977   46986       2
   46983   46968   46977   46989       1   46983   46968   46977   46992       1
   46980   46968   46977   46986       2   46980   46968   46977   46989       1
   46980   46968   46977   46992       1   46977   46986   46995   47004       2
   46977   46986   46995   47007       2   46974   46956   46968   46977       2
   46974   46956   46968   46980       1   46974   46956   46968   46983       1
   46971   46956   46968   46977       2   46971   46956   46968   46980       1
   46971   46956   46968   46983       1   46968   46977   46986   46998       2
   46968   46977   46986   47001       2   46962   46938   46956   46968       2
   46962   46938   46956   46971       1   46962   46938   46956   46974       1
   46959   46938   46956   46968       2   46959   46938   46956   46971       1
   46959   46938   46956   46974       1   46956   46968   46977   46989       2
   46956   46968   46977   46992       2   46953   46932   46947   46965       4
   46950   46926   46947   46965       4   46944   46923   46938   46956       2
   46944   46923   46938   46959       1   46944   46923   46938   46962       1
   46941   46923   46938   46956       2   46941   46923   46938   46959       1
   46941   46923   46938   46962       1   46938   46956   46968   46980       2
   46938   46956   46968   46983       2   46935   46920   46932   46947       4
   46935   46920   46932   46953       4   46932   46947   46926   46950       4
   46929   46917   46926   46947       4   46929   46917   46926   46950       4
   46926   46947   46932   46953       4   46923   46938   46956   46971       2
   46923   46938   46956   46974       2   46920   46899   46917   46929       4
   46920   46932   46947   46965       4   46917   46899   46920   46935       4
   46917   46926   46947   46965       4   46911   46893   46905   46923       4
   46908   46887   46905   46923       4   46905   46923   46938   46959       5
   46905   46923   46938   46962       5   46902   46884   46896   46914       4
   46899   46878   46896   46914       4   46899   46917   46926   46950       4
   46899   46920   46932   46953       4   46893   46905   46887   46908       4
   46893   46905   46923   46941       8   46893   46905   46923   46944       8
   46890   46869   46887   46905       4   46890   46869   46887   46908       4
   46887   46905   46893   46911       4   46887   46905   46923   46941       8
   46887   46905   46923   46944       8   46881   46863   46878   46896       4
   46881   46863   46878   46899       4   46878   46896   46884   46902       4
   46878   46899   46917   46929       4   46878   46899   46920   46935       4
   46875   46872   46893   46911       4   46872   46857   46869   46890       4
   46866   46854   46863   46881       4   46866   46884   46896   46914       4
   46863   46878   46896   46914       4   46860   46866   46884   46902       4
   46857   46869   46887   46908       4   46857   46872   46893   46911       4
   46854   46866   46884   46902       4   46851   46857   46869   46890       4
   46848   46854   46863   46881       4   47220   47205   47217   47223       1
   47220   47205   47217   47226       1   47220   47205   47217   47229       1
   47214   47205   47217   47223       1   47214   47205   47217   47226       1
   47214   47205   47217   47229       1   47211   47202   47205   47214       1
   47211   47202   47205   47217       2   47211   47202   47205   47220       1
   47208   47202   47205   47214       1   47208   47202   47205   47217       2
   47208   47202   47205   47220       1   47202   47205   47217   47223       2
   47202   47205   47217   47226       2   47202   47205   47217   47229       2
   47199   47187   47202   47205       2   47199   47187   47202   47208       1
   47199   47187   47202   47211       1   47196   47187   47202   47205       2
   47196   47187   47202   47208       1   47196   47187   47202   47211       1
   47193   47178   47187   47196       1   47193   47178   47187   47199       1
   47193   47178   47187   47202       2   47190   47178   47187   47196       1
   47190   47178   47187   47199       1   47190   47178   47187   47202       2
   47187   47202   47205   47214       2   47187   47202   47205   47220       2
   47184   47169   47178   47187       2   47184   47169   47178   47190       1
   47184   47169   47178   47193       1   47181   47169   47178   47187       2
   47181   47169   47178   47190       1   47181   47169   47178   47193       1
   47178   47187   47202   47208       2   47178   47187   47202   47211       2
   47175   47160   47169   47178       2   47175   47160   47169   47181       1
   47175   47160   47169   47184       1   47172   47160   47169   47178       2
   47172   47160   47169   47181       1   47172   47160   47169   47184       1
   47169   47178   47187   47196       2   47169   47178   47187   47199       2
   47166   47148   47160   47169       2   47166   47148   47160   47172       1
   47166   47148   47160   47175       1   47163   47148   47160   47169       2
   47163   47148   47160   47172       1   47163   47148   47160   47175       1
   47160   47169   47178   47190       2   47160   47169   47178   47193       2
   47154   47130   47148   47160       2   47154   47130   47148   47163       1
   47154   47130   47148   47166       1   47151   47130   47148   47160       2
   47151   47130   47148   47163       1   47151   47130   47148   47166       1
   47148   47160   47169   47181       2   47148   47160   47169   47184       2
   47145   47124   47139   47157       4   47142   47118   47139   47157       4
   47136   47115   47130   47148       2   47136   47115   47130   47151       1
   47136   47115   47130   47154       1   47133   47115   47130   47148       2
   47133   47115   47130   47151       1   47133   47115   47130   47154       1
   47130   47148   47160   47172       2   47130   47148   47160   47175       2
   47127   47112   47124   47139       4   47127   47112   47124   47145       4
   47124   47139   47118   47142       4   47121   47109   47118   47139       4
   47121   47109   47118   47142       4   47118   47139   47124   47145       4
   47115   47130   47148   47163       2   47115   47130   47148   47166       2
   47112   47091   47109   47121       4   47112   47124   47139   47157       4
   47109   47091   47112   47127       4   47109   47118   47139   47157       4
   47103   47085   47097   47115       4   47100   47079   47097   47115       4
   47097   47115   47130   47151       5   47097   47115   47130   47154       5
   47094   47076   47088   47106       4   47091   47070   47088   47106       4
   47091   47109   47118   47142       4   47091   47112   47124   47145       4
   47085   47097   47079   47100       4   47085   47097   47115   47133       8
   47085   47097   47115   47136       8   47082   47061   47079   47097       4
   47082   47061   47079   47100       4   47079   47097   47085   47103       4
   47079   47097   47115   47133       8   47079   47097   47115   47136       8
   47073   47055   47070   47088       4   47073   47055   47070   47091       4
   47070   47088   47076   47094       4   47070   47091   47109   47121       4
   47070   47091   47112   47127       4   47067   47064   47085   47103       4
   47064   47049   47061   47082       4   47058   47046   47055   47073       4
   47058   47076   47088   47106       4   47055   47070   47088   47106       4
   47052   47058   47076   47094       4   47049   47061   47079   47100       4
   47049   47064   47085   47103       4   47046   47058   47076   47094       4
   47043   47049   47061   47082       4   47040   47046   47055   47073       4
   47412   47397   47409   47415       1   47412   47397   47409   47418       1
   47412   47397   47409   47421       1   47406   47397   47409   47415       1
   47406   47397   47409   47418       1   47406   47397   47409   47421       1
   47403   47394   47397   47406       1   47403   47394   47397   47409       2
   47403   47394   47397   47412       1   47400   47394   47397   47406       1
   47400   47394   47397   47409       2   47400   47394   47397   47412       1
   47394   47397   47409   47415       2   47394   47397   47409   47418       2
   47394   47397   47409   47421       2   47391   47379   47394   47397       2
   47391   47379   47394   47400       1   47391   47379   47394   47403       1
   47388   47379   47394   47397       2   47388   47379   47394   47400       1
   47388   47379   47394   47403       1   47385   47370   47379   47388       1
   47385   47370   47379   47391       1   47385   47370   47379   47394       2
   47382   47370   47379   47388       1   47382   47370   47379   47391       1
   47382   47370   47379   47394       2   47379   47394   47397   47406       2
   47379   47394   47397   47412       2   47376   47361   47370   47379       2
   47376   47361   47370   47382       1   47376   47361   47370   47385       1
   47373   47361   47370   47379       2   47373   47361   47370   47382       1
   47373   47361   47370   47385       1   47370   47379   47394   47400       2
   47370   47379   47394   47403       2   47367   47352   47361   47370       2
   47367   47352   47361   47373       1   47367   47352   47361   47376       1
   47364   47352   47361   47370       2   47364   47352   47361   47373       1
   47364   47352   47361   47376       1   47361   47370   47379   47388       2
   47361   47370   47379   47391       2   47358   47340   47352   47361       2
   47358   47340   47352   47364       1   47358   47340   47352   47367       1
   47355   47340   47352   47361       2   47355   47340   47352   47364       1
   47355   47340   47352   47367       1   47352   47361   47370   47382       2
   47352   47361   47370   47385       2   47346   47322   47340   47352       2
   47346   47322   47340   47355       1   47346   47322   47340   47358       1
   47343   47322   47340   47352       2   47343   47322   47340   47355       1
   47343   47322   47340   47358       1   47340   47352   47361   47373       2
   47340   47352   47361   47376       2   47337   47316   47331   47349       4
   47334   47310   47331   47349       4   47328   47307   47322   47340       2
   47328   47307   47322   47343       1   47328   47307   47322   47346       1
   47325   47307   47322   47340       2   47325   47307   47322   47343       1
   47325   47307   47322   47346       1   47322   47340   47352   47364       2
   47322   47340   47352   47367       2   47319   47304   47316   47331       4
   47319   47304   47316   47337       4   47316   47331   47310   47334       4
   47313   47301   47310   47331       4   47313   47301   47310   47334       4
   47310   47331   47316   47337       4   47307   47322   47340   47355       2
   47307   47322   47340   47358       2   47304   47283   47301   47313       4
   47304   47316   47331   47349       4   47301   47283   47304   47319       4
   47301   47310   47331   47349       4   47295   47277   47289   47307       4
   47292   47271   47289   47307       4   47289   47307   47322   47343       5
   47289   47307   47322   47346       5   47286   47268   47280   47298       4
   47283   47262   47280   47298       4   47283   47301   47310   47334       4
   47283   47304   47316   47337       4   47277   47289   47271   47292       4
   47277   47289   47307   47325       8   47277   47289   47307   47328       8
   47274   47253   47271   47289       4   47274   47253   47271   47292       4
   47271   47289   47277   47295       4   47271   47289   47307   47325       8
   47271   47289   47307   47328       8   47265   47247   47262   47280       4
   47265   47247   47262   47283       4   47262   47280   47268   47286       4
   47262   47283   47301   47313       4   47262   47283   47304   47319       4
   47259   47256   47277   47295       4   47256   47241   47253   47274       4
   47250   47238   47247   47265       4   47250   47268   47280   47298       4
   47247   47262   47280   47298       4   47244   47250   47268   47286       4
   47241   47253   47271   47292       4   47241   47256   47277   47295       4
   47238   47250   47268   47286       4   47235   47241   47253   47274       4
   47232   47238   47247   47265       4   47604   47589   47601   47607       1
   47604   47589   47601   47610       1   47604   47589   47601   47613       1
   47598   47589   47601   47607       1   47598   47589   47601   47610       1
   47598   47589   47601   47613       1   47595   47586   47589   47598       1
   47595   47586   47589   47601       2   47595   47586   47589   47604       1
   47592   47586   47589   47598       1   47592   47586   47589   47601       2
   47592   47586   47589   47604       1   47586   47589   47601   47607       2
   47586   47589   47601   47610       2   47586   47589   47601   47613       2
   47583   47571   47586   47589       2   47583   47571   47586   47592       1
   47583   47571   47586   47595       1   47580   47571   47586   47589       2
   47580   47571   47586   47592       1   47580   47571   47586   47595       1
   47577   47562   47571   47580       1   47577   47562   47571   47583       1
   47577   47562   47571   47586       2   47574   47562   47571   47580       1
   47574   47562   47571   47583       1   47574   47562   47571   47586       2
   47571   47586   47589   47598       2   47571   47586   47589   47604       2
   47568   47553   47562   47571       2   47568   47553   47562   47574       1
   47568   47553   47562   47577       1   47565   47553   47562   47571       2
   47565   47553   47562   47574       1   47565   47553   47562   47577       1
   47562   47571   47586   47592       2   47562   47571   47586   47595       2
   47559   47544   47553   47562       2   47559   47544   47553   47565       1
   47559   47544   47553   47568       1   47556   47544   47553   47562       2
   47556   47544   47553   47565       1   47556   47544   47553   47568       1
   47553   47562   47571   47580       2   47553   47562   47571   47583       2
   47550   47532   47544   47553       2   47550   47532   47544   47556       1
   47550   47532   47544   47559       1   47547   47532   47544   47553       2
   47547   47532   47544   47556       1   47547   47532   47544   47559       1
   47544   47553   47562   47574       2   47544   47553   47562   47577       2
   47538   47514   47532   47544       2   47538   47514   47532   47547       1
   47538   47514   47532   47550       1   47535   47514   47532   47544       2
   47535   47514   47532   47547       1   47535   47514   47532   47550       1
   47532   47544   47553   47565       2   47532   47544   47553   47568       2
   47529   47508   47523   47541       4   47526   47502   47523   47541       4
   47520   47499   47514   47532       2   47520   47499   47514   47535       1
   47520   47499   47514   47538       1   47517   47499   47514   47532       2
   47517   47499   47514   47535       1   47517   47499   47514   47538       1
   47514   47532   47544   47556       2   47514   47532   47544   47559       2
   47511   47496   47508   47523       4   47511   47496   47508   47529       4
   47508   47523   47502   47526       4   47505   47493   47502   47523       4
   47505   47493   47502   47526       4   47502   47523   47508   47529       4
   47499   47514   47532   47547       2   47499   47514   47532   47550       2
   47496   47475   47493   47505       4   47496   47508   47523   47541       4
   47493   47475   47496   47511       4   47493   47502   47523   47541       4
   47487   47469   47481   47499       4   47484   47463   47481   47499       4
   47481   47499   47514   47535       5   47481   47499   47514   47538       5
   47478   47460   47472   47490       4   47475   47454   47472   47490       4
   47475   47493   47502   47526       4   47475   47496   47508   47529       4
   47469   47481   47463   47484       4   47469   47481   47499   47517       8
   47469   47481   47499   47520       8   47466   47445   47463   47481       4
   47466   47445   47463   47484       4   47463   47481   47469   47487       4
   47463   47481   47499   47517       8   47463   47481   47499   47520       8
   47457   47439   47454   47472       4   47457   47439   47454   47475       4
   47454   47472   47460   47478       4   47454   47475   47493   47505       4
   47454   47475   47496   47511       4   47451   47448   47469   47487       4
   47448   47433   47445   47466       4   47442   47430   47439   47457       4
   47442   47460   47472   47490       4   47439   47454   47472   47490       4
   47436   47442   47460   47478       4   47433   47445   47463   47484       4
   47433   47448   47469   47487       4   47430   47442   47460   47478       4
   47427   47433   47445   47466       4   47424   47430   47439   47457       4
   47796   47781   47793   47799       1   47796   47781   47793   47802       1
   47796   47781   47793   47805       1   47790   47781   47793   47799       1
   47790   47781   47793   47802       1   47790   47781   47793   47805       1
   47787   47778   47781   47790       1   47787   47778   47781   47793       2
   47787   47778   47781   47796       1   47784   47778   47781   47790       1
   47784   47778   47781   47793       2   47784   47778   47781   47796       1
   47778   47781   47793   47799       2   47778   47781   47793   47802       2
   47778   47781   47793   47805       2   47775   47763   47778   47781       2
   47775   47763   47778   47784       1   47775   47763   47778   47787       1
   47772   47763   47778   47781       2   47772   47763   47778   47784       1
   47772   47763   47778   47787       1   47769   47754   47763   47772       1
   47769   47754   47763   47775       1   47769   47754   47763   47778       2
   47766   47754   47763   47772       1   47766   47754   47763   47775       1
   47766   47754   47763   47778       2   47763   47778   47781   47790       2
   47763   47778   47781   47796       2   47760   47745   47754   47763       2
   47760   47745   47754   47766       1   47760   47745   47754   47769       1
   47757   47745   47754   47763       2   47757   47745   47754   47766       1
   47757   47745   47754   47769       1   47754   47763   47778   47784       2
   47754   47763   47778   47787       2   47751   47736   47745   47754       2
   47751   47736   47745   47757       1   47751   47736   47745   47760       1
   47748   47736   47745   47754       2   47748   47736   47745   47757       1
   47748   47736   47745   47760       1   47745   47754   47763   47772       2
   47745   47754   47763   47775       2   47742   47724   47736   47745       2
   47742   47724   47736   47748       1   47742   47724   47736   47751       1
   47739   47724   47736   47745       2   47739   47724   47736   47748       1
   47739   47724   47736   47751       1   47736   47745   47754   47766       2
   47736   47745   47754   47769       2   47730   47706   47724   47736       2
   47730   47706   47724   47739       1   47730   47706   47724   47742       1
   47727   47706   47724   47736       2   47727   47706   47724   47739       1
   47727   47706   47724   47742       1   47724   47736   47745   47757       2
   47724   47736   47745   47760       2   47721   47700   47715   47733       4
   47718   47694   47715   47733       4   47712   47691   47706   47724       2
   47712   47691   47706   47727       1   47712   47691   47706   47730       1
   47709   47691   47706   47724       2   47709   47691   47706   47727       1
   47709   47691   47706   47730       1   47706   47724   47736   47748       2
   47706   47724   47736   47751       2   47703   47688   47700   47715       4
   47703   47688   47700   47721       4   47700   47715   47694   47718       4
   47697   47685   47694   47715       4   47697   47685   47694   47718       4
   47694   47715   47700   47721       4   47691   47706   47724   47739       2
   47691   47706   47724   47742       2   47688   47667   47685   47697       4
   47688   47700   47715   47733       4   47685   47667   47688   47703       4
   47685   47694   47715   47733       4   47679   47661   47673   47691       4
   47676   47655   47673   47691       4   47673   47691   47706   47727       5
   47673   47691   47706   47730       5   47670   47652   47664   47682       4
   47667   47646   47664   47682       4   47667   47685   47694   47718       4
   47667   47688   47700   47721       4   47661   47673   47655   47676       4
   47661   47673   47691   47709       8   47661   47673   47691   47712       8
   47658   47637   47655   47673       4   47658   47637   47655   47676       4
   47655   47673   47661   47679       4   47655   47673   47691   47709       8
   47655   47673   47691   47712       8   47649   47631   47646   47664       4
   47649   47631   47646   47667       4   47646   47664   47652   47670       4
   47646   47667   47685   47697       4   47646   47667   47688   47703       4
   47643   47640   47661   47679       4   47640   47625   47637   47658       4
   47634   47622   47631   47649       4   47634   47652   47664   47682       4
   47631   47646   47664   47682       4   47628   47634   47652   47670       4
   47625   47637   47655   47676       4   47625   47640   47661   47679       4
   47622   47634   47652   47670       4   47619   47625   47637   47658       4
   47616   47622   47631   47649       4   47988   47973   47985   47991       1
   47988   47973   47985   47994       1   47988   47973   47985   47997       1
   47982   47973   47985   47991       1   47982   47973   47985   47994       1
   47982   47973   47985   47997       1   47979   47970   47973   47982       1
   47979   47970   47973   47985       2   47979   47970   47973   47988       1
   47976   47970   47973   47982       1   47976   47970   47973   47985       2
   47976   47970   47973   47988       1   47970   47973   47985   47991       2
   47970   47973   47985   47994       2   47970   47973   47985   47997       2
   47967   47955   47970   47973       2   47967   47955   47970   47976       1
   47967   47955   47970   47979       1   47964   47955   47970   47973       2
   47964   47955   47970   47976       1   47964   47955   47970   47979       1
   47961   47946   47955   47964       1   47961   47946   47955   47967       1
   47961   47946   47955   47970       2   47958   47946   47955   47964       1
   47958   47946   47955   47967       1   47958   47946   47955   47970       2
   47955   47970   47973   47982       2   47955   47970   47973   47988       2
   47952   47937   47946   47955       2   47952   47937   47946   47958       1
   47952   47937   47946   47961       1   47949   47937   47946   47955       2
   47949   47937   47946   47958       1   47949   47937   47946   47961       1
   47946   47955   47970   47976       2   47946   47955   47970   47979       2
   47943   47928   47937   47946       2   47943   47928   47937   47949       1
   47943   47928   47937   47952       1   47940   47928   47937   47946       2
   47940   47928   47937   47949       1   47940   47928   47937   47952       1
   47937   47946   47955   47964       2   47937   47946   47955   47967       2
   47934   47916   47928   47937       2   47934   47916   47928   47940       1
   47934   47916   47928   47943       1   47931   47916   47928   47937       2
   47931   47916   47928   47940       1   47931   47916   47928   47943       1
   47928   47937   47946   47958       2   47928   47937   47946   47961       2
   47922   47898   47916   47928       2   47922   47898   47916   47931       1
   47922   47898   47916   47934       1   47919   47898   47916   47928       2
   47919   47898   47916   47931       1   47919   47898   47916   47934       1
   47916   47928   47937   47949       2   47916   47928   47937   47952       2
   47913   47892   47907   47925       4   47910   47886   47907   47925       4
   47904   47883   47898   47916       2   47904   47883   47898   47919       1
   47904   47883   47898   47922       1   47901   47883   47898   47916       2
   47901   47883   47898   47919       1   47901   47883   47898   47922       1
   47898   47916   47928   47940       2   47898   47916   47928   47943       2
   47895   47880   47892   47907       4   47895   47880   47892   47913       4
   47892   47907   47886   47910       4   47889   47877   47886   47907       4
   47889   47877   47886   47910       4   47886   47907   47892   47913       4
   47883   47898   47916   47931       2   47883   47898   47916   47934       2
   47880   47859   47877   47889       4   47880   47892   47907   47925       4
   47877   47859   47880   47895       4   47877   47886   47907   47925       4
   47871   47853   47865   47883       4   47868   47847   47865   47883       4
   47865   47883   47898   47919       5   47865   47883   47898   47922       5
   47862   47844   47856   47874       4   47859   47838   47856   47874       4
   47859   47877   47886   47910       4   47859   47880   47892   47913       4
   47853   47865   47847   47868       4   47853   47865   47883   47901       8
   47853   47865   47883   47904       8   47850   47829   47847   47865       4
   47850   47829   47847   47868       4   47847   47865   47853   47871       4
   47847   47865   47883   47901       8   47847   47865   47883   47904       8
   47841   47823   47838   47856       4   47841   47823   47838   47859       4
   47838   47856   47844   47862       4   47838   47859   47877   47889       4
   47838   47859   47880   47895       4   47835   47832   47853   47871       4
   47832   47817   47829   47850       4   47826   47814   47823   47841       4
   47826   47844   47856   47874       4   47823   47838   47856   47874       4
   47820   47826   47844   47862       4   47817   47829   47847   47868       4
   47817   47832   47853   47871       4   47814   47826   47844   47862       4
   47811   47817   47829   47850       4   47808   47814   47823   47841       4
   48180   48165   48177   48183       1   48180   48165   48177   48186       1
   48180   48165   48177   48189       1   48174   48165   48177   48183       1
   48174   48165   48177   48186       1   48174   48165   48177   48189       1
   48171   48162   48165   48174       1   48171   48162   48165   48177       2
   48171   48162   48165   48180       1   48168   48162   48165   48174       1
   48168   48162   48165   48177       2   48168   48162   48165   48180       1
   48162   48165   48177   48183       2   48162   48165   48177   48186       2
   48162   48165   48177   48189       2   48159   48147   48162   48165       2
   48159   48147   48162   48168       1   48159   48147   48162   48171       1
   48156   48147   48162   48165       2   48156   48147   48162   48168       1
   48156   48147   48162   48171       1   48153   48138   48147   48156       1
   48153   48138   48147   48159       1   48153   48138   48147   48162       2
   48150   48138   48147   48156       1   48150   48138   48147   48159       1
   48150   48138   48147   48162       2   48147   48162   48165   48174       2
   48147   48162   48165   48180       2   48144   48129   48138   48147       2
   48144   48129   48138   48150       1   48144   48129   48138   48153       1
   48141   48129   48138   48147       2   48141   48129   48138   48150       1
   48141   48129   48138   48153       1   48138   48147   48162   48168       2
   48138   48147   48162   48171       2   48135   48120   48129   48138       2
   48135   48120   48129   48141       1   48135   48120   48129   48144       1
   48132   48120   48129   48138       2   48132   48120   48129   48141       1
   48132   48120   48129   48144       1   48129   48138   48147   48156       2
   48129   48138   48147   48159       2   48126   48108   48120   48129       2
   48126   48108   48120   48132       1   48126   48108   48120   48135       1
   48123   48108   48120   48129       2   48123   48108   48120   48132       1
   48123   48108   48120   48135       1   48120   48129   48138   48150       2
   48120   48129   48138   48153       2   48114   48090   48108   48120       2
   48114   48090   48108   48123       1   48114   48090   48108   48126       1
   48111   48090   48108   48120       2   48111   48090   48108   48123       1
   48111   48090   48108   48126       1   48108   48120   48129   48141       2
   48108   48120   48129   48144       2   48105   48084   48099   48117       4
   48102   48078   48099   48117       4   48096   48075   48090   48108       2
   48096   48075   48090   48111       1   48096   48075   48090   48114       1
   48093   48075   48090   48108       2   48093   48075   48090   48111       1
   48093   48075   48090   48114       1   48090   48108   48120   48132       2
   48090   48108   48120   48135       2   48087   48072   48084   48099       4
   48087   48072   48084   48105       4   48084   48099   48078   48102       4
   48081   48069   48078   48099       4   48081   48069   48078   48102       4
   48078   48099   48084   48105       4   48075   48090   48108   48123       2
   48075   48090   48108   48126       2   48072   48051   48069   48081       4
   48072   48084   48099   48117       4   48069   48051   48072   48087       4
   48069   48078   48099   48117       4   48063   48045   48057   48075       4
   48060   48039   48057   48075       4   48057   48075   48090   48111       5
   48057   48075   48090   48114       5   48054   48036   48048   48066       4
   48051   48030   48048   48066       4   48051   48069   48078   48102       4
   48051   48072   48084   48105       4   48045   48057   48039   48060       4
   48045   48057   48075   48093       8   48045   48057   48075   48096       8
   48042   48021   48039   48057       4   48042   48021   48039   48060       4
   48039   48057   48045   48063       4   48039   48057   48075   48093       8
   48039   48057   48075   48096       8   48033   48015   48030   48048       4
   48033   48015   48030   48051       4   48030   48048   48036   48054       4
   48030   48051   48069   48081       4   48030   48051   48072   48087       4
   48027   48024   48045   48063       4   48024   48009   48021   48042       4
   48018   48006   48015   48033       4   48018   48036   48048   48066       4
   48015   48030   48048   48066       4   48012   48018   48036   48054       4
   48009   48021   48039   48060       4   48009   48024   48045   48063       4
   48006   48018   48036   48054       4   48003   48009   48021   48042       4
   48000   48006   48015   48033       4   48372   48357   48369   48375       1
   48372   48357   48369   48378       1   48372   48357   48369   48381       1
   48366   48357   48369   48375       1   48366   48357   48369   48378       1
   48366   48357   48369   48381       1   48363   48354   48357   48366       1
   48363   48354   48357   48369       2   48363   48354   48357   48372       1
   48360   48354   48357   48366       1   48360   48354   48357   48369       2
   48360   48354   48357   48372       1   48354   48357   48369   48375       2
   48354   48357   48369   48378       2   48354   48357   48369   48381       2
   48351   48339   48354   48357       2   48351   48339   48354   48360       1
   48351   48339   48354   48363       1   48348   48339   48354   48357       2
   48348   48339   48354   48360       1   48348   48339   48354   48363       1
   48345   48330   48339   48348       1   48345   48330   48339   48351       1
   48345   48330   48339   48354       2   48342   48330   48339   48348       1
   48342   48330   48339   48351       1   48342   48330   48339   48354       2
   48339   48354   48357   48366       2   48339   48354   48357   48372       2
   48336   48321   48330   48339       2   48336   48321   48330   48342       1
   48336   48321   48330   48345       1   48333   48321   48330   48339       2
   48333   48321   48330   48342       1   48333   48321   48330   48345       1
   48330   48339   48354   48360       2   48330   48339   48354   48363       2
   48327   48312   48321   48330       2   48327   48312   48321   48333       1
   48327   48312   48321   48336       1   48324   48312   48321   48330       2
   48324   48312   48321   48333       1   48324   48312   48321   48336       1
   48321   48330   48339   48348       2   48321   48330   48339   48351       2
   48318   48300   48312   48321       2   48318   48300   48312   48324       1
   48318   48300   48312   48327       1   48315   48300   48312   48321       2
   48315   48300   48312   48324       1   48315   48300   48312   48327       1
   48312   48321   48330   48342       2   48312   48321   48330   48345       2
   48306   48282   48300   48312       2   48306   48282   48300   48315       1
   48306   48282   48300   48318       1   48303   48282   48300   48312       2
   48303   48282   48300   48315       1   48303   48282   48300   48318       1
   48300   48312   48321   48333       2   48300   48312   48321   48336       2
   48297   48276   48291   48309       4   48294   48270   48291   48309       4
   48288   48267   48282   48300       2   48288   48267   48282   48303       1
   48288   48267   48282   48306       1   48285   48267   48282   48300       2
   48285   48267   48282   48303       1   48285   48267   48282   48306       1
   48282   48300   48312   48324       2   48282   48300   48312   48327       2
   48279   48264   48276   48291       4   48279   48264   48276   48297       4
   48276   48291   48270   48294       4   48273   48261   48270   48291       4
   48273   48261   48270   48294       4   48270   48291   48276   48297       4
   48267   48282   48300   48315       2   48267   48282   48300   48318       2
   48264   48243   48261   48273       4   48264   48276   48291   48309       4
   48261   48243   48264   48279       4   48261   48270   48291   48309       4
   48255   48237   48249   48267       4   48252   48231   48249   48267       4
   48249   48267   48282   48303       5   48249   48267   48282   48306       5
   48246   48228   48240   48258       4   48243   48222   48240   48258       4
   48243   48261   48270   48294       4   48243   48264   48276   48297       4
   48237   48249   48231   48252       4   48237   48249   48267   48285       8
   48237   48249   48267   48288       8   48234   48213   48231   48249       4
   48234   48213   48231   48252       4   48231   48249   48237   48255       4
   48231   48249   48267   48285       8   48231   48249   48267   48288       8
   48225   48207   48222   48240       4   48225   48207   48222   48243       4
   48222   48240   48228   48246       4   48222   48243   48261   48273       4
   48222   48243   48264   48279       4   48219   48216   48237   48255       4
   48216   48201   48213   48234       4   48210   48198   48207   48225       4
   48210   48228   48240   48258       4   48207   48222   48240   48258       4
   48204   48210   48228   48246       4   48201   48213   48231   48252       4
   48201   48216   48237   48255       4   48198   48210   48228   48246       4
   48195   48201   48213   48234       4   48192   48198   48207   48225       4
   48564   48549   48561   48567       1   48564   48549   48561   48570       1
   48564   48549   48561   48573       1   48558   48549   48561   48567       1
   48558   48549   48561   48570       1   48558   48549   48561   48573       1
   48555   48546   48549   48558       1   48555   48546   48549   48561       2
   48555   48546   48549   48564       1   48552   48546   48549   48558       1
   48552   48546   48549   48561       2   48552   48546   48549   48564       1
   48546   48549   48561   48567       2   48546   48549   48561   48570       2
   48546   48549   48561   48573       2   48543   48531   48546   48549       2
   48543   48531   48546   48552       1   48543   48531   48546   48555       1
   48540   48531   48546   48549       2   48540   48531   48546   48552       1
   48540   48531   48546   48555       1   48537   48522   48531   48540       1
   48537   48522   48531   48543       1   48537   48522   48531   48546       2
   48534   48522   48531   48540       1   48534   48522   48531   48543       1
   48534   48522   48531   48546       2   48531   48546   48549   48558       2
   48531   48546   48549   48564       2   48528   48513   48522   48531       2
   48528   48513   48522   48534       1   48528   48513   48522   48537       1
   48525   48513   48522   48531       2   48525   48513   48522   48534       1
   48525   48513   48522   48537       1   48522   48531   48546   48552       2
   48522   48531   48546   48555       2   48519   48504   48513   48522       2
   48519   48504   48513   48525       1   48519   48504   48513   48528       1
   48516   48504   48513   48522       2   48516   48504   48513   48525       1
   48516   48504   48513   48528       1   48513   48522   48531   48540       2
   48513   48522   48531   48543       2   48510   48492   48504   48513       2
   48510   48492   48504   48516       1   48510   48492   48504   48519       1
   48507   48492   48504   48513       2   48507   48492   48504   48516       1
   48507   48492   48504   48519       1   48504   48513   48522   48534       2
   48504   48513   48522   48537       2   48498   48474   48492   48504       2
   48498   48474   48492   48507       1   48498   48474   48492   48510       1
   48495   48474   48492   48504       2   48495   48474   48492   48507       1
   48495   48474   48492   48510       1   48492   48504   48513   48525       2
   48492   48504   48513   48528       2   48489   48468   48483   48501       4
   48486   48462   48483   48501       4   48480   48459   48474   48492       2
   48480   48459   48474   48495       1   48480   48459   48474   48498       1
   48477   48459   48474   48492       2   48477   48459   48474   48495       1
   48477   48459   48474   48498       1   48474   48492   48504   48516       2
   48474   48492   48504   48519       2   48471   48456   48468   48483       4
   48471   48456   48468   48489       4   48468   48483   48462   48486       4
   48465   48453   48462   48483       4   48465   48453   48462   48486       4
   48462   48483   48468   48489       4   48459   48474   48492   48507       2
   48459   48474   48492   48510       2   48456   48435   48453   48465       4
   48456   48468   48483   48501       4   48453   48435   48456   48471       4
   48453   48462   48483   48501       4   48447   48429   48441   48459       4
   48444   48423   48441   48459       4   48441   48459   48474   48495       5
   48441   48459   48474   48498       5   48438   48420   48432   48450       4
   48435   48414   48432   48450       4   48435   48453   48462   48486       4
   48435   48456   48468   48489       4   48429   48441   48423   48444       4
   48429   48441   48459   48477       8   48429   48441   48459   48480       8
   48426   48405   48423   48441       4   48426   48405   48423   48444       4
   48423   48441   48429   48447       4   48423   48441   48459   48477       8
   48423   48441   48459   48480       8   48417   48399   48414   48432       4
   48417   48399   48414   48435       4   48414   48432   48420   48438       4
   48414   48435   48453   48465       4   48414   48435   48456   48471       4
   48411   48408   48429   48447       4   48408   48393   48405   48426       4
   48402   48390   48399   48417       4   48402   48420   48432   48450       4
   48399   48414   48432   48450       4   48396   48402   48420   48438       4
   48393   48405   48423   48444       4   48393   48408   48429   48447       4
   48390   48402   48420   48438       4   48387   48393   48405   48426       4
   48384   48390   48399   48417       4   48756   48741   48753   48759       1
   48756   48741   48753   48762       1   48756   48741   48753   48765       1
   48750   48741   48753   48759       1   48750   48741   48753   48762       1
   48750   48741   48753   48765       1   48747   48738   48741   48750       1
   48747   48738   48741   48753       2   48747   48738   48741   48756       1
   48744   48738   48741   48750       1   48744   48738   48741   48753       2
   48744   48738   48741   48756       1   48738   48741   48753   48759       2
   48738   48741   48753   48762       2   48738   48741   48753   48765       2
   48735   48723   48738   48741       2   48735   48723   48738   48744       1
   48735   48723   48738   48747       1   48732   48723   48738   48741       2
   48732   48723   48738   48744       1   48732   48723   48738   48747       1
   48729   48714   48723   48732       1   48729   48714   48723   48735       1
   48729   48714   48723   48738       2   48726   48714   48723   48732       1
   48726   48714   48723   48735       1   48726   48714   48723   48738       2
   48723   48738   48741   48750       2   48723   48738   48741   48756       2
   48720   48705   48714   48723       2   48720   48705   48714   48726       1
   48720   48705   48714   48729       1   48717   48705   48714   48723       2
   48717   48705   48714   48726       1   48717   48705   48714   48729       1
   48714   48723   48738   48744       2   48714   48723   48738   48747       2
   48711   48696   48705   48714       2   48711   48696   48705   48717       1
   48711   48696   48705   48720       1   48708   48696   48705   48714       2
   48708   48696   48705   48717       1   48708   48696   48705   48720       1
   48705   48714   48723   48732       2   48705   48714   48723   48735       2
   48702   48684   48696   48705       2   48702   48684   48696   48708       1
   48702   48684   48696   48711       1   48699   48684   48696   48705       2
   48699   48684   48696   48708       1   48699   48684   48696   48711       1
   48696   48705   48714   48726       2   48696   48705   48714   48729       2
   48690   48666   48684   48696       2   48690   48666   48684   48699       1
   48690   48666   48684   48702       1   48687   48666   48684   48696       2
   48687   48666   48684   48699       1   48687   48666   48684   48702       1
   48684   48696   48705   48717       2   48684   48696   48705   48720       2
   48681   48660   48675   48693       4   48678   48654   48675   48693       4
   48672   48651   48666   48684       2   48672   48651   48666   48687       1
   48672   48651   48666   48690       1   48669   48651   48666   48684       2
   48669   48651   48666   48687       1   48669   48651   48666   48690       1
   48666   48684   48696   48708       2   48666   48684   48696   48711       2
   48663   48648   48660   48675       4   48663   48648   48660   48681       4
   48660   48675   48654   48678       4   48657   48645   48654   48675       4
   48657   48645   48654   48678       4   48654   48675   48660   48681       4
   48651   48666   48684   48699       2   48651   48666   48684   48702       2
   48648   48627   48645   48657       4   48648   48660   48675   48693       4
   48645   48627   48648   48663       4   48645   48654   48675   48693       4
   48639   48621   48633   48651       4   48636   48615   48633   48651       4
   48633   48651   48666   48687       5   48633   48651   48666   48690       5
   48630   48612   48624   48642       4   48627   48606   48624   48642       4
   48627   48645   48654   48678       4   48627   48648   48660   48681       4
   48621   48633   48615   48636       4   48621   48633   48651   48669       8
   48621   48633   48651   48672       8   48618   48597   48615   48633       4
   48618   48597   48615   48636       4   48615   48633   48621   48639       4
   48615   48633   48651   48669       8   48615   48633   48651   48672       8
   48609   48591   48606   48624       4   48609   48591   48606   48627       4
   48606   48624   48612   48630       4   48606   48627   48645   48657       4
   48606   48627   48648   48663       4   48603   48600   48621   48639       4
   48600   48585   48597   48618       4   48594   48582   48591   48609       4
   48594   48612   48624   48642       4   48591   48606   48624   48642       4
   48588   48594   48612   48630       4   48585   48597   48615   48636       4
   48585   48600   48621   48639       4   48582   48594   48612   48630       4
   48579   48585   48597   48618       4   48576   48582   48591   48609       4
   48948   48933   48945   48951       1   48948   48933   48945   48954       1
   48948   48933   48945   48957       1   48942   48933   48945   48951       1
   48942   48933   48945   48954       1   48942   48933   48945   48957       1
   48939   48930   48933   48942       1   48939   48930   48933   48945       2
   48939   48930   48933   48948       1   48936   48930   48933   48942       1
   48936   48930   48933   48945       2   48936   48930   48933   48948       1
   48930   48933   48945   48951       2   48930   48933   48945   48954       2
   48930   48933   48945   48957       2   48927   48915   48930   48933       2
   48927   48915   48930   48936       1   48927   48915   48930   48939       1
   48924   48915   48930   48933       2   48924   48915   48930   48936       1
   48924   48915   48930   48939       1   48921   48906   48915   48924       1
   48921   48906   48915   48927       1   48921   48906   48915   48930       2
   48918   48906   48915   48924       1   48918   48906   48915   48927       1
   48918   48906   48915   48930       2   48915   48930   48933   48942       2
   48915   48930   48933   48948       2   48912   48897   48906   48915       2
   48912   48897   48906   48918       1   48912   48897   48906   48921       1
   48909   48897   48906   48915       2   48909   48897   48906   48918       1
   48909   48897   48906   48921       1   48906   48915   48930   48936       2
   48906   48915   48930   48939       2   48903   48888   48897   48906       2
   48903   48888   48897   48909       1   48903   48888   48897   48912       1
   48900   48888   48897   48906       2   48900   48888   48897   48909       1
   48900   48888   48897   48912       1   48897   48906   48915   48924       2
   48897   48906   48915   48927       2   48894   48876   48888   48897       2
   48894   48876   48888   48900       1   48894   48876   48888   48903       1
   48891   48876   48888   48897       2   48891   48876   48888   48900       1
   48891   48876   48888   48903       1   48888   48897   48906   48918       2
   48888   48897   48906   48921       2   48882   48858   48876   48888       2
   48882   48858   48876   48891       1   48882   48858   48876   48894       1
   48879   48858   48876   48888       2   48879   48858   48876   48891       1
   48879   48858   48876   48894       1   48876   48888   48897   48909       2
   48876   48888   48897   48912       2   48873   48852   48867   48885       4
   48870   48846   48867   48885       4   48864   48843   48858   48876       2
   48864   48843   48858   48879       1   48864   48843   48858   48882       1
   48861   48843   48858   48876       2   48861   48843   48858   48879       1
   48861   48843   48858   48882       1   48858   48876   48888   48900       2
   48858   48876   48888   48903       2   48855   48840   48852   48867       4
   48855   48840   48852   48873       4   48852   48867   48846   48870       4
   48849   48837   48846   48867       4   48849   48837   48846   48870       4
   48846   48867   48852   48873       4   48843   48858   48876   48891       2
   48843   48858   48876   48894       2   48840   48819   48837   48849       4
   48840   48852   48867   48885       4   48837   48819   48840   48855       4
   48837   48846   48867   48885       4   48831   48813   48825   48843       4
   48828   48807   48825   48843       4   48825   48843   48858   48879       5
   48825   48843   48858   48882       5   48822   48804   48816   48834       4
   48819   48798   48816   48834       4   48819   48837   48846   48870       4
   48819   48840   48852   48873       4   48813   48825   48807   48828       4
   48813   48825   48843   48861       8   48813   48825   48843   48864       8
   48810   48789   48807   48825       4   48810   48789   48807   48828       4
   48807   48825   48813   48831       4   48807   48825   48843   48861       8
   48807   48825   48843   48864       8   48801   48783   48798   48816       4
   48801   48783   48798   48819       4   48798   48816   48804   48822       4
   48798   48819   48837   48849       4   48798   48819   48840   48855       4
   48795   48792   48813   48831       4   48792   48777   48789   48810       4
   48786   48774   48783   48801       4   48786   48804   48816   48834       4
   48783   48798   48816   48834       4   48780   48786   48804   48822       4
   48777   48789   48807   48828       4   48777   48792   48813   48831       4
   48774   48786   48804   48822       4   48771   48777   48789   48810       4
   48768   48774   48783   48801       4   49140   49125   49137   49143       1
   49140   49125   49137   49146       1   49140   49125   49137   49149       1
   49134   49125   49137   49143       1   49134   49125   49137   49146       1
   49134   49125   49137   49149       1   49131   49122   49125   49134       1
   49131   49122   49125   49137       2   49131   49122   49125   49140       1
   49128   49122   49125   49134       1   49128   49122   49125   49137       2
   49128   49122   49125   49140       1   49122   49125   49137   49143       2
   49122   49125   49137   49146       2   49122   49125   49137   49149       2
   49119   49107   49122   49125       2   49119   49107   49122   49128       1
   49119   49107   49122   49131       1   49116   49107   49122   49125       2
   49116   49107   49122   49128       1   49116   49107   49122   49131       1
   49113   49098   49107   49116       1   49113   49098   49107   49119       1
   49113   49098   49107   49122       2   49110   49098   49107   49116       1
   49110   49098   49107   49119       1   49110   49098   49107   49122       2
   49107   49122   49125   49134       2   49107   49122   49125   49140       2
   49104   49089   49098   49107       2   49104   49089   49098   49110       1
   49104   49089   49098   49113       1   49101   49089   49098   49107       2
   49101   49089   49098   49110       1   49101   49089   49098   49113       1
   49098   49107   49122   49128       2   49098   49107   49122   49131       2
   49095   49080   49089   49098       2   49095   49080   49089   49101       1
   49095   49080   49089   49104       1   49092   49080   49089   49098       2
   49092   49080   49089   49101       1   49092   49080   49089   49104       1
   49089   49098   49107   49116       2   49089   49098   49107   49119       2
   49086   49068   49080   49089       2   49086   49068   49080   49092       1
   49086   49068   49080   49095       1   49083   49068   49080   49089       2
   49083   49068   49080   49092       1   49083   49068   49080   49095       1
   49080   49089   49098   49110       2   49080   49089   49098   49113       2
   49074   49050   49068   49080       2   49074   49050   49068   49083       1
   49074   49050   49068   49086       1   49071   49050   49068   49080       2
   49071   49050   49068   49083       1   49071   49050   49068   49086       1
   49068   49080   49089   49101       2   49068   49080   49089   49104       2
   49065   49044   49059   49077       4   49062   49038   49059   49077       4
   49056   49035   49050   49068       2   49056   49035   49050   49071       1
   49056   49035   49050   49074       1   49053   49035   49050   49068       2
   49053   49035   49050   49071       1   49053   49035   49050   49074       1
   49050   49068   49080   49092       2   49050   49068   49080   49095       2
   49047   49032   49044   49059       4   49047   49032   49044   49065       4
   49044   49059   49038   49062       4   49041   49029   49038   49059       4
   49041   49029   49038   49062       4   49038   49059   49044   49065       4
   49035   49050   49068   49083       2   49035   49050   49068   49086       2
   49032   49011   49029   49041       4   49032   49044   49059   49077       4
   49029   49011   49032   49047       4   49029   49038   49059   49077       4
   49023   49005   49017   49035       4   49020   48999   49017   49035       4
   49017   49035   49050   49071       5   49017   49035   49050   49074       5
   49014   48996   49008   49026       4   49011   48990   49008   49026       4
   49011   49029   49038   49062       4   49011   49032   49044   49065       4
   49005   49017   48999   49020       4   49005   49017   49035   49053       8
   49005   49017   49035   49056       8   49002   48981   48999   49017       4
   49002   48981   48999   49020       4   48999   49017   49005   49023       4
   48999   49017   49035   49053       8   48999   49017   49035   49056       8
   48993   48975   48990   49008       4   48993   48975   48990   49011       4
   48990   49008   48996   49014       4   48990   49011   49029   49041       4
   48990   49011   49032   49047       4   48987   48984   49005   49023       4
   48984   48969   48981   49002       4   48978   48966   48975   48993       4
   48978   48996   49008   49026       4   48975   48990   49008   49026       4
   48972   48978   48996   49014       4   48969   48981   48999   49020       4
   48969   48984   49005   49023       4   48966   48978   48996   49014       4
   48963   48969   48981   49002       4   48960   48966   48975   48993       4
   49332   49317   49329   49335       1   49332   49317   49329   49338       1
   49332   49317   49329   49341       1   49326   49317   49329   49335       1
   49326   49317   49329   49338       1   49326   49317   49329   49341       1
   49323   49314   49317   49326       1   49323   49314   49317   49329       2
   49323   49314   49317   49332       1   49320   49314   49317   49326       1
   49320   49314   49317   49329       2   49320   49314   49317   49332       1
   49314   49317   49329   49335       2   49314   49317   49329   49338       2
   49314   49317   49329   49341       2   49311   49299   49314   49317       2
   49311   49299   49314   49320       1   49311   49299   49314   49323       1
   49308   49299   49314   49317       2   49308   49299   49314   49320       1
   49308   49299   49314   49323       1   49305   49290   49299   49308       1
   49305   49290   49299   49311       1   49305   49290   49299   49314       2
   49302   49290   49299   49308       1   49302   49290   49299   49311       1
   49302   49290   49299   49314       2   49299   49314   49317   49326       2
   49299   49314   49317   49332       2   49296   49281   49290   49299       2
   49296   49281   49290   49302       1   49296   49281   49290   49305       1
   49293   49281   49290   49299       2   49293   49281   49290   49302       1
   49293   49281   49290   49305       1   49290   49299   49314   49320       2
   49290   49299   49314   49323       2   49287   49272   49281   49290       2
   49287   49272   49281   49293       1   49287   49272   49281   49296       1
   49284   49272   49281   49290       2   49284   49272   49281   49293       1
   49284   49272   49281   49296       1   49281   49290   49299   49308       2
   49281   49290   49299   49311       2   49278   49260   49272   49281       2
   49278   49260   49272   49284       1   49278   49260   49272   49287       1
   49275   49260   49272   49281       2   49275   49260   49272   49284       1
   49275   49260   49272   49287       1   49272   49281   49290   49302       2
   49272   49281   49290   49305       2   49266   49242   49260   49272       2
   49266   49242   49260   49275       1   49266   49242   49260   49278       1
   49263   49242   49260   49272       2   49263   49242   49260   49275       1
   49263   49242   49260   49278       1   49260   49272   49281   49293       2
   49260   49272   49281   49296       2   49257   49236   49251   49269       4
   49254   49230   49251   49269       4   49248   49227   49242   49260       2
   49248   49227   49242   49263       1   49248   49227   49242   49266       1
   49245   49227   49242   49260       2   49245   49227   49242   49263       1
   49245   49227   49242   49266       1   49242   49260   49272   49284       2
   49242   49260   49272   49287       2   49239   49224   49236   49251       4
   49239   49224   49236   49257       4   49236   49251   49230   49254       4
   49233   49221   49230   49251       4   49233   49221   49230   49254       4
   49230   49251   49236   49257       4   49227   49242   49260   49275       2
   49227   49242   49260   49278       2   49224   49203   49221   49233       4
   49224   49236   49251   49269       4   49221   49203   49224   49239       4
   49221   49230   49251   49269       4   49215   49197   49209   49227       4
   49212   49191   49209   49227       4   49209   49227   49242   49263       5
   49209   49227   49242   49266       5   49206   49188   49200   49218       4
   49203   49182   49200   49218       4   49203   49221   49230   49254       4
   49203   49224   49236   49257       4   49197   49209   49191   49212       4
   49197   49209   49227   49245       8   49197   49209   49227   49248       8
   49194   49173   49191   49209       4   49194   49173   49191   49212       4
   49191   49209   49197   49215       4   49191   49209   49227   49245       8
   49191   49209   49227   49248       8   49185   49167   49182   49200       4
   49185   49167   49182   49203       4   49182   49200   49188   49206       4
   49182   49203   49221   49233       4   49182   49203   49224   49239       4
   49179   49176   49197   49215       4   49176   49161   49173   49194       4
   49170   49158   49167   49185       4   49170   49188   49200   49218       4
   49167   49182   49200   49218       4   49164   49170   49188   49206       4
   49161   49173   49191   49212       4   49161   49176   49197   49215       4
   49158   49170   49188   49206       4   49155   49161   49173   49194       4
   49152   49158   49167   49185       4   49524   49509   49521   49527       1
   49524   49509   49521   49530       1   49524   49509   49521   49533       1
   49518   49509   49521   49527       1   49518   49509   49521   49530       1
   49518   49509   49521   49533       1   49515   49506   49509   49518       1
   49515   49506   49509   49521       2   49515   49506   49509   49524       1
   49512   49506   49509   49518       1   49512   49506   49509   49521       2
   49512   49506   49509   49524       1   49506   49509   49521   49527       2
   49506   49509   49521   49530       2   49506   49509   49521   49533       2
   49503   49491   49506   49509       2   49503   49491   49506   49512       1
   49503   49491   49506   49515       1   49500   49491   49506   49509       2
   49500   49491   49506   49512       1   49500   49491   49506   49515       1
   49497   49482   49491   49500       1   49497   49482   49491   49503       1
   49497   49482   49491   49506       2   49494   49482   49491   49500       1
   49494   49482   49491   49503       1   49494   49482   49491   49506       2
   49491   49506   49509   49518       2   49491   49506   49509   49524       2
   49488   49473   49482   49491       2   49488   49473   49482   49494       1
   49488   49473   49482   49497       1   49485   49473   49482   49491       2
   49485   49473   49482   49494       1   49485   49473   49482   49497       1
   49482   49491   49506   49512       2   49482   49491   49506   49515       2
   49479   49464   49473   49482       2   49479   49464   49473   49485       1
   49479   49464   49473   49488       1   49476   49464   49473   49482       2
   49476   49464   49473   49485       1   49476   49464   49473   49488       1
   49473   49482   49491   49500       2   49473   49482   49491   49503       2
   49470   49452   49464   49473       2   49470   49452   49464   49476       1
   49470   49452   49464   49479       1   49467   49452   49464   49473       2
   49467   49452   49464   49476       1   49467   49452   49464   49479       1
   49464   49473   49482   49494       2   49464   49473   49482   49497       2
   49458   49434   49452   49464       2   49458   49434   49452   49467       1
   49458   49434   49452   49470       1   49455   49434   49452   49464       2
   49455   49434   49452   49467       1   49455   49434   49452   49470       1
   49452   49464   49473   49485       2   49452   49464   49473   49488       2
   49449   49428   49443   49461       4   49446   49422   49443   49461       4
   49440   49419   49434   49452       2   49440   49419   49434   49455       1
   49440   49419   49434   49458       1   49437   49419   49434   49452       2
   49437   49419   49434   49455       1   49437   49419   49434   49458       1
   49434   49452   49464   49476       2   49434   49452   49464   49479       2
   49431   49416   49428   49443       4   49431   49416   49428   49449       4
   49428   49443   49422   49446       4   49425   49413   49422   49443       4
   49425   49413   49422   49446       4   49422   49443   49428   49449       4
   49419   49434   49452   49467       2   49419   49434   49452   49470       2
   49416   49395   49413   49425       4   49416   49428   49443   49461       4
   49413   49395   49416   49431       4   49413   49422   49443   49461       4
   49407   49389   49401   49419       4   49404   49383   49401   49419       4
   49401   49419   49434   49455       5   49401   49419   49434   49458       5
   49398   49380   49392   49410       4   49395   49374   49392   49410       4
   49395   49413   49422   49446       4   49395   49416   49428   49449       4
   49389   49401   49383   49404       4   49389   49401   49419   49437       8
   49389   49401   49419   49440       8   49386   49365   49383   49401       4
   49386   49365   49383   49404       4   49383   49401   49389   49407       4
   49383   49401   49419   49437       8   49383   49401   49419   49440       8
   49377   49359   49374   49392       4   49377   49359   49374   49395       4
   49374   49392   49380   49398       4   49374   49395   49413   49425       4
   49374   49395   49416   49431       4   49371   49368   49389   49407       4
   49368   49353   49365   49386       4   49362   49350   49359   49377       4
   49362   49380   49392   49410       4   49359   49374   49392   49410       4
   49356   49362   49380   49398       4   49353   49365   49383   49404       4
   49353   49368   49389   49407       4   49350   49362   49380   49398       4
   49347   49353   49365   49386       4   49344   49350   49359   49377       4
   49716   49701   49713   49719       1   49716   49701   49713   49722       1
   49716   49701   49713   49725       1   49710   49701   49713   49719       1
   49710   49701   49713   49722       1   49710   49701   49713   49725       1
   49707   49698   49701   49710       1   49707   49698   49701   49713       2
   49707   49698   49701   49716       1   49704   49698   49701   49710       1
   49704   49698   49701   49713       2   49704   49698   49701   49716       1
   49698   49701   49713   49719       2   49698   49701   49713   49722       2
   49698   49701   49713   49725       2   49695   49683   49698   49701       2
   49695   49683   49698   49704       1   49695   49683   49698   49707       1
   49692   49683   49698   49701       2   49692   49683   49698   49704       1
   49692   49683   49698   49707       1   49689   49674   49683   49692       1
   49689   49674   49683   49695       1   49689   49674   49683   49698       2
   49686   49674   49683   49692       1   49686   49674   49683   49695       1
   49686   49674   49683   49698       2   49683   49698   49701   49710       2
   49683   49698   49701   49716       2   49680   49665   49674   49683       2
   49680   49665   49674   49686       1   49680   49665   49674   49689       1
   49677   49665   49674   49683       2   49677   49665   49674   49686       1
   49677   49665   49674   49689       1   49674   49683   49698   49704       2
   49674   49683   49698   49707       2   49671   49656   49665   49674       2
   49671   49656   49665   49677       1   49671   49656   49665   49680       1
   49668   49656   49665   49674       2   49668   49656   49665   49677       1
   49668   49656   49665   49680       1   49665   49674   49683   49692       2
   49665   49674   49683   49695       2   49662   49644   49656   49665       2
   49662   49644   49656   49668       1   49662   49644   49656   49671       1
   49659   49644   49656   49665       2   49659   49644   49656   49668       1
   49659   49644   49656   49671       1   49656   49665   49674   49686       2
   49656   49665   49674   49689       2   49650   49626   49644   49656       2
   49650   49626   49644   49659       1   49650   49626   49644   49662       1
   49647   49626   49644   49656       2   49647   49626   49644   49659       1
   49647   49626   49644   49662       1   49644   49656   49665   49677       2
   49644   49656   49665   49680       2   49641   49620   49635   49653       4
   49638   49614   49635   49653       4   49632   49611   49626   49644       2
   49632   49611   49626   49647       1   49632   49611   49626   49650       1
   49629   49611   49626   49644       2   49629   49611   49626   49647       1
   49629   49611   49626   49650       1   49626   49644   49656   49668       2
   49626   49644   49656   49671       2   49623   49608   49620   49635       4
   49623   49608   49620   49641       4   49620   49635   49614   49638       4
   49617   49605   49614   49635       4   49617   49605   49614   49638       4
   49614   49635   49620   49641       4   49611   49626   49644   49659       2
   49611   49626   49644   49662       2   49608   49587   49605   49617       4
   49608   49620   49635   49653       4   49605   49587   49608   49623       4
   49605   49614   49635   49653       4   49599   49581   49593   49611       4
   49596   49575   49593   49611       4   49593   49611   49626   49647       5
   49593   49611   49626   49650       5   49590   49572   49584   49602       4
   49587   49566   49584   49602       4   49587   49605   49614   49638       4
   49587   49608   49620   49641       4   49581   49593   49575   49596       4
   49581   49593   49611   49629       8   49581   49593   49611   49632       8
   49578   49557   49575   49593       4   49578   49557   49575   49596       4
   49575   49593   49581   49599       4   49575   49593   49611   49629       8
   49575   49593   49611   49632       8   49569   49551   49566   49584       4
   49569   49551   49566   49587       4   49566   49584   49572   49590       4
   49566   49587   49605   49617       4   49566   49587   49608   49623       4
   49563   49560   49581   49599       4   49560   49545   49557   49578       4
   49554   49542   49551   49569       4   49554   49572   49584   49602       4
   49551   49566   49584   49602       4   49548   49554   49572   49590       4
   49545   49557   49575   49596       4   49545   49560   49581   49599       4
   49542   49554   49572   49590       4   49539   49545   49557   49578       4
   49536   49542   49551   49569       4   49908   49893   49905   49911       1
   49908   49893   49905   49914       1   49908   49893   49905   49917       1
   49902   49893   49905   49911       1   49902   49893   49905   49914       1
   49902   49893   49905   49917       1   49899   49890   49893   49902       1
   49899   49890   49893   49905       2   49899   49890   49893   49908       1
   49896   49890   49893   49902       1   49896   49890   49893   49905       2
   49896   49890   49893   49908       1   49890   49893   49905   49911       2
   49890   49893   49905   49914       2   49890   49893   49905   49917       2
   49887   49875   49890   49893       2   49887   49875   49890   49896       1
   49887   49875   49890   49899       1   49884   49875   49890   49893       2
   49884   49875   49890   49896       1   49884   49875   49890   49899       1
   49881   49866   49875   49884       1   49881   49866   49875   49887       1
   49881   49866   49875   49890       2   49878   49866   49875   49884       1
   49878   49866   49875   49887       1   49878   49866   49875   49890       2
   49875   49890   49893   49902       2   49875   49890   49893   49908       2
   49872   49857   49866   49875       2   49872   49857   49866   49878       1
   49872   49857   49866   49881       1   49869   49857   49866   49875       2
   49869   49857   49866   49878       1   49869   49857   49866   49881       1
   49866   49875   49890   49896       2   49866   49875   49890   49899       2
   49863   49848   49857   49866       2   49863   49848   49857   49869       1
   49863   49848   49857   49872       1   49860   49848   49857   49866       2
   49860   49848   49857   49869       1   49860   49848   49857   49872       1
   49857   49866   49875   49884       2   49857   49866   49875   49887       2
   49854   49836   49848   49857       2   49854   49836   49848   49860       1
   49854   49836   49848   49863       1   49851   49836   49848   49857       2
   49851   49836   49848   49860       1   49851   49836   49848   49863       1
   49848   49857   49866   49878       2   49848   49857   49866   49881       2
   49842   49818   49836   49848       2   49842   49818   49836   49851       1
   49842   49818   49836   49854       1   49839   49818   49836   49848       2
   49839   49818   49836   49851       1   49839   49818   49836   49854       1
   49836   49848   49857   49869       2   49836   49848   49857   49872       2
   49833   49812   49827   49845       4   49830   49806   49827   49845       4
   49824   49803   49818   49836       2   49824   49803   49818   49839       1
   49824   49803   49818   49842       1   49821   49803   49818   49836       2
   49821   49803   49818   49839       1   49821   49803   49818   49842       1
   49818   49836   49848   49860       2   49818   49836   49848   49863       2
   49815   49800   49812   49827       4   49815   49800   49812   49833       4
   49812   49827   49806   49830       4   49809   49797   49806   49827       4
   49809   49797   49806   49830       4   49806   49827   49812   49833       4
   49803   49818   49836   49851       2   49803   49818   49836   49854       2
   49800   49779   49797   49809       4   49800   49812   49827   49845       4
   49797   49779   49800   49815       4   49797   49806   49827   49845       4
   49791   49773   49785   49803       4   49788   49767   49785   49803       4
   49785   49803   49818   49839       5   49785   49803   49818   49842       5
   49782   49764   49776   49794       4   49779   49758   49776   49794       4
   49779   49797   49806   49830       4   49779   49800   49812   49833       4
   49773   49785   49767   49788       4   49773   49785   49803   49821       8
   49773   49785   49803   49824       8   49770   49749   49767   49785       4
   49770   49749   49767   49788       4   49767   49785   49773   49791       4
   49767   49785   49803   49821       8   49767   49785   49803   49824       8
   49761   49743   49758   49776       4   49761   49743   49758   49779       4
   49758   49776   49764   49782       4   49758   49779   49797   49809       4
   49758   49779   49800   49815       4   49755   49752   49773   49791       4
   49752   49737   49749   49770       4   49746   49734   49743   49761       4
   49746   49764   49776   49794       4   49743   49758   49776   49794       4
   49740   49746   49764   49782       4   49737   49749   49767   49788       4
   49737   49752   49773   49791       4   49734   49746   49764   49782       4
   49731   49737   49749   49770       4   49728   49734   49743   49761       4
   50100   50085   50097   50103       1   50100   50085   50097   50106       1
   50100   50085   50097   50109       1   50094   50085   50097   50103       1
   50094   50085   50097   50106       1   50094   50085   50097   50109       1
   50091   50082   50085   50094       1   50091   50082   50085   50097       2
   50091   50082   50085   50100       1   50088   50082   50085   50094       1
   50088   50082   50085   50097       2   50088   50082   50085   50100       1
   50082   50085   50097   50103       2   50082   50085   50097   50106       2
   50082   50085   50097   50109       2   50079   50067   50082   50085       2
   50079   50067   50082   50088       1   50079   50067   50082   50091       1
   50076   50067   50082   50085       2   50076   50067   50082   50088       1
   50076   50067   50082   50091       1   50073   50058   50067   50076       1
   50073   50058   50067   50079       1   50073   50058   50067   50082       2
   50070   50058   50067   50076       1   50070   50058   50067   50079       1
   50070   50058   50067   50082       2   50067   50082   50085   50094       2
   50067   50082   50085   50100       2   50064   50049   50058   50067       2
   50064   50049   50058   50070       1   50064   50049   50058   50073       1
   50061   50049   50058   50067       2   50061   50049   50058   50070       1
   50061   50049   50058   50073       1   50058   50067   50082   50088       2
   50058   50067   50082   50091       2   50055   50040   50049   50058       2
   50055   50040   50049   50061       1   50055   50040   50049   50064       1
   50052   50040   50049   50058       2   50052   50040   50049   50061       1
   50052   50040   50049   50064       1   50049   50058   50067   50076       2
   50049   50058   50067   50079       2   50046   50028   50040   50049       2
   50046   50028   50040   50052       1   50046   50028   50040   50055       1
   50043   50028   50040   50049       2   50043   50028   50040   50052       1
   50043   50028   50040   50055       1   50040   50049   50058   50070       2
   50040   50049   50058   50073       2   50034   50010   50028   50040       2
   50034   50010   50028   50043       1   50034   50010   50028   50046       1
   50031   50010   50028   50040       2   50031   50010   50028   50043       1
   50031   50010   50028   50046       1   50028   50040   50049   50061       2
   50028   50040   50049   50064       2   50025   50004   50019   50037       4
   50022   49998   50019   50037       4   50016   49995   50010   50028       2
   50016   49995   50010   50031       1   50016   49995   50010   50034       1
   50013   49995   50010   50028       2   50013   49995   50010   50031       1
   50013   49995   50010   50034       1   50010   50028   50040   50052       2
   50010   50028   50040   50055       2   50007   49992   50004   50019       4
   50007   49992   50004   50025       4   50004   50019   49998   50022       4
   50001   49989   49998   50019       4   50001   49989   49998   50022       4
   49998   50019   50004   50025       4   49995   50010   50028   50043       2
   49995   50010   50028   50046       2   49992   49971   49989   50001       4
   49992   50004   50019   50037       4   49989   49971   49992   50007       4
   49989   49998   50019   50037       4   49983   49965   49977   49995       4
   49980   49959   49977   49995       4   49977   49995   50010   50031       5
   49977   49995   50010   50034       5   49974   49956   49968   49986       4
   49971   49950   49968   49986       4   49971   49989   49998   50022       4
   49971   49992   50004   50025       4   49965   49977   49959   49980       4
   49965   49977   49995   50013       8   49965   49977   49995   50016       8
   49962   49941   49959   49977       4   49962   49941   49959   49980       4
   49959   49977   49965   49983       4   49959   49977   49995   50013       8
   49959   49977   49995   50016       8   49953   49935   49950   49968       4
   49953   49935   49950   49971       4   49950   49968   49956   49974       4
   49950   49971   49989   50001       4   49950   49971   49992   50007       4
   49947   49944   49965   49983       4   49944   49929   49941   49962       4
   49938   49926   49935   49953       4   49938   49956   49968   49986       4
   49935   49950   49968   49986       4   49932   49938   49956   49974       4
   49929   49941   49959   49980       4   49929   49944   49965   49983       4
   49926   49938   49956   49974       4   49923   49929   49941   49962       4
   49920   49926   49935   49953       4   50292   50277   50289   50295       1
   50292   50277   50289   50298       1   50292   50277   50289   50301       1
   50286   50277   50289   50295       1   50286   50277   50289   50298       1
   50286   50277   50289   50301       1   50283   50274   50277   50286       1
   50283   50274   50277   50289       2   50283   50274   50277   50292       1
   50280   50274   50277   50286       1   50280   50274   50277   50289       2
   50280   50274   50277   50292       1   50274   50277   50289   50295       2
   50274   50277   50289   50298       2   50274   50277   50289   50301       2
   50271   50259   50274   50277       2   50271   50259   50274   50280       1
   50271   50259   50274   50283       1   50268   50259   50274   50277       2
   50268   50259   50274   50280       1   50268   50259   50274   50283       1
   50265   50250   50259   50268       1   50265   50250   50259   50271       1
   50265   50250   50259   50274       2   50262   50250   50259   50268       1
   50262   50250   50259   50271       1   50262   50250   50259   50274       2
   50259   50274   50277   50286       2   50259   50274   50277   50292       2
   50256   50241   50250   50259       2   50256   50241   50250   50262       1
   50256   50241   50250   50265       1   50253   50241   50250   50259       2
   50253   50241   50250   50262       1   50253   50241   50250   50265       1
   50250   50259   50274   50280       2   50250   50259   50274   50283       2
   50247   50232   50241   50250       2   50247   50232   50241   50253       1
   50247   50232   50241   50256       1   50244   50232   50241   50250       2
   50244   50232   50241   50253       1   50244   50232   50241   50256       1
   50241   50250   50259   50268       2   50241   50250   50259   50271       2
   50238   50220   50232   50241       2   50238   50220   50232   50244       1
   50238   50220   50232   50247       1   50235   50220   50232   50241       2
   50235   50220   50232   50244       1   50235   50220   50232   50247       1
   50232   50241   50250   50262       2   50232   50241   50250   50265       2
   50226   50202   50220   50232       2   50226   50202   50220   50235       1
   50226   50202   50220   50238       1   50223   50202   50220   50232       2
   50223   50202   50220   50235       1   50223   50202   50220   50238       1
   50220   50232   50241   50253       2   50220   50232   50241   50256       2
   50217   50196   50211   50229       4   50214   50190   50211   50229       4
   50208   50187   50202   50220       2   50208   50187   50202   50223       1
   50208   50187   50202   50226       1   50205   50187   50202   50220       2
   50205   50187   50202   50223       1   50205   50187   50202   50226       1
   50202   50220   50232   50244       2   50202   50220   50232   50247       2
   50199   50184   50196   50211       4   50199   50184   50196   50217       4
   50196   50211   50190   50214       4   50193   50181   50190   50211       4
   50193   50181   50190   50214       4   50190   50211   50196   50217       4
   50187   50202   50220   50235       2   50187   50202   50220   50238       2
   50184   50163   50181   50193       4   50184   50196   50211   50229       4
   50181   50163   50184   50199       4   50181   50190   50211   50229       4
   50175   50157   50169   50187       4   50172   50151   50169   50187       4
   50169   50187   50202   50223       5   50169   50187   50202   50226       5
   50166   50148   50160   50178       4   50163   50142   50160   50178       4
   50163   50181   50190   50214       4   50163   50184   50196   50217       4
   50157   50169   50151   50172       4   50157   50169   50187   50205       8
   50157   50169   50187   50208       8   50154   50133   50151   50169       4
   50154   50133   50151   50172       4   50151   50169   50157   50175       4
   50151   50169   50187   50205       8   50151   50169   50187   50208       8
   50145   50127   50142   50160       4   50145   50127   50142   50163       4
   50142   50160   50148   50166       4   50142   50163   50181   50193       4
   50142   50163   50184   50199       4   50139   50136   50157   50175       4
   50136   50121   50133   50154       4   50130   50118   50127   50145       4
   50130   50148   50160   50178       4   50127   50142   50160   50178       4
   50124   50130   50148   50166       4   50121   50133   50151   50172       4
   50121   50136   50157   50175       4   50118   50130   50148   50166       4
   50115   50121   50133   50154       4   50112   50118   50127   50145       4
   50484   50469   50481   50487       1   50484   50469   50481   50490       1
   50484   50469   50481   50493       1   50478   50469   50481   50487       1
   50478   50469   50481   50490       1   50478   50469   50481   50493       1
   50475   50466   50469   50478       1   50475   50466   50469   50481       2
   50475   50466   50469   50484       1   50472   50466   50469   50478       1
   50472   50466   50469   50481       2   50472   50466   50469   50484       1
   50466   50469   50481   50487       2   50466   50469   50481   50490       2
   50466   50469   50481   50493       2   50463   50451   50466   50469       2
   50463   50451   50466   50472       1   50463   50451   50466   50475       1
   50460   50451   50466   50469       2   50460   50451   50466   50472       1
   50460   50451   50466   50475       1   50457   50442   50451   50460       1
   50457   50442   50451   50463       1   50457   50442   50451   50466       2
   50454   50442   50451   50460       1   50454   50442   50451   50463       1
   50454   50442   50451   50466       2   50451   50466   50469   50478       2
   50451   50466   50469   50484       2   50448   50433   50442   50451       2
   50448   50433   50442   50454       1   50448   50433   50442   50457       1
   50445   50433   50442   50451       2   50445   50433   50442   50454       1
   50445   50433   50442   50457       1   50442   50451   50466   50472       2
   50442   50451   50466   50475       2   50439   50424   50433   50442       2
   50439   50424   50433   50445       1   50439   50424   50433   50448       1
   50436   50424   50433   50442       2   50436   50424   50433   50445       1
   50436   50424   50433   50448       1   50433   50442   50451   50460       2
   50433   50442   50451   50463       2   50430   50412   50424   50433       2
   50430   50412   50424   50436       1   50430   50412   50424   50439       1
   50427   50412   50424   50433       2   50427   50412   50424   50436       1
   50427   50412   50424   50439       1   50424   50433   50442   50454       2
   50424   50433   50442   50457       2   50418   50394   50412   50424       2
   50418   50394   50412   50427       1   50418   50394   50412   50430       1
   50415   50394   50412   50424       2   50415   50394   50412   50427       1
   50415   50394   50412   50430       1   50412   50424   50433   50445       2
   50412   50424   50433   50448       2   50409   50388   50403   50421       4
   50406   50382   50403   50421       4   50400   50379   50394   50412       2
   50400   50379   50394   50415       1   50400   50379   50394   50418       1
   50397   50379   50394   50412       2   50397   50379   50394   50415       1
   50397   50379   50394   50418       1   50394   50412   50424   50436       2
   50394   50412   50424   50439       2   50391   50376   50388   50403       4
   50391   50376   50388   50409       4   50388   50403   50382   50406       4
   50385   50373   50382   50403       4   50385   50373   50382   50406       4
   50382   50403   50388   50409       4   50379   50394   50412   50427       2
   50379   50394   50412   50430       2   50376   50355   50373   50385       4
   50376   50388   50403   50421       4   50373   50355   50376   50391       4
   50373   50382   50403   50421       4   50367   50349   50361   50379       4
   50364   50343   50361   50379       4   50361   50379   50394   50415       5
   50361   50379   50394   50418       5   50358   50340   50352   50370       4
   50355   50334   50352   50370       4   50355   50373   50382   50406       4
   50355   50376   50388   50409       4   50349   50361   50343   50364       4
   50349   50361   50379   50397       8   50349   50361   50379   50400       8
   50346   50325   50343   50361       4   50346   50325   50343   50364       4
   50343   50361   50349   50367       4   50343   50361   50379   50397       8
   50343   50361   50379   50400       8   50337   50319   50334   50352       4
   50337   50319   50334   50355       4   50334   50352   50340   50358       4
   50334   50355   50373   50385       4   50334   50355   50376   50391       4
   50331   50328   50349   50367       4   50328   50313   50325   50346       4
   50322   50310   50319   50337       4   50322   50340   50352   50370       4
   50319   50334   50352   50370       4   50316   50322   50340   50358       4
   50313   50325   50343   50364       4   50313   50328   50349   50367       4
   50310   50322   50340   50358       4   50307   50313   50325   50346       4
   50304   50310   50319   50337       4   50676   50661   50673   50679       1
   50676   50661   50673   50682       1   50676   50661   50673   50685       1
   50670   50661   50673   50679       1   50670   50661   50673   50682       1
   50670   50661   50673   50685       1   50667   50658   50661   50670       1
   50667   50658   50661   50673       2   50667   50658   50661   50676       1
   50664   50658   50661   50670       1   50664   50658   50661   50673       2
   50664   50658   50661   50676       1   50658   50661   50673   50679       2
   50658   50661   50673   50682       2   50658   50661   50673   50685       2
   50655   50643   50658   50661       2   50655   50643   50658   50664       1
   50655   50643   50658   50667       1   50652   50643   50658   50661       2
   50652   50643   50658   50664       1   50652   50643   50658   50667       1
   50649   50634   50643   50652       1   50649   50634   50643   50655       1
   50649   50634   50643   50658       2   50646   50634   50643   50652       1
   50646   50634   50643   50655       1   50646   50634   50643   50658       2
   50643   50658   50661   50670       2   50643   50658   50661   50676       2
   50640   50625   50634   50643       2   50640   50625   50634   50646       1
   50640   50625   50634   50649       1   50637   50625   50634   50643       2
   50637   50625   50634   50646       1   50637   50625   50634   50649       1
   50634   50643   50658   50664       2   50634   50643   50658   50667       2
   50631   50616   50625   50634       2   50631   50616   50625   50637       1
   50631   50616   50625   50640       1   50628   50616   50625   50634       2
   50628   50616   50625   50637       1   50628   50616   50625   50640       1
   50625   50634   50643   50652       2   50625   50634   50643   50655       2
   50622   50604   50616   50625       2   50622   50604   50616   50628       1
   50622   50604   50616   50631       1   50619   50604   50616   50625       2
   50619   50604   50616   50628       1   50619   50604   50616   50631       1
   50616   50625   50634   50646       2   50616   50625   50634   50649       2
   50610   50586   50604   50616       2   50610   50586   50604   50619       1
   50610   50586   50604   50622       1   50607   50586   50604   50616       2
   50607   50586   50604   50619       1   50607   50586   50604   50622       1
   50604   50616   50625   50637       2   50604   50616   50625   50640       2
   50601   50580   50595   50613       4   50598   50574   50595   50613       4
   50592   50571   50586   50604       2   50592   50571   50586   50607       1
   50592   50571   50586   50610       1   50589   50571   50586   50604       2
   50589   50571   50586   50607       1   50589   50571   50586   50610       1
   50586   50604   50616   50628       2   50586   50604   50616   50631       2
   50583   50568   50580   50595       4   50583   50568   50580   50601       4
   50580   50595   50574   50598       4   50577   50565   50574   50595       4
   50577   50565   50574   50598       4   50574   50595   50580   50601       4
   50571   50586   50604   50619       2   50571   50586   50604   50622       2
   50568   50547   50565   50577       4   50568   50580   50595   50613       4
   50565   50547   50568   50583       4   50565   50574   50595   50613       4
   50559   50541   50553   50571       4   50556   50535   50553   50571       4
   50553   50571   50586   50607       5   50553   50571   50586   50610       5
   50550   50532   50544   50562       4   50547   50526   50544   50562       4
   50547   50565   50574   50598       4   50547   50568   50580   50601       4
   50541   50553   50535   50556       4   50541   50553   50571   50589       8
   50541   50553   50571   50592       8   50538   50517   50535   50553       4
   50538   50517   50535   50556       4   50535   50553   50541   50559       4
   50535   50553   50571   50589       8   50535   50553   50571   50592       8
   50529   50511   50526   50544       4   50529   50511   50526   50547       4
   50526   50544   50532   50550       4   50526   50547   50565   50577       4
   50526   50547   50568   50583       4   50523   50520   50541   50559       4
   50520   50505   50517   50538       4   50514   50502   50511   50529       4
   50514   50532   50544   50562       4   50511   50526   50544   50562       4
   50508   50514   50532   50550       4   50505   50517   50535   50556       4
   50505   50520   50541   50559       4   50502   50514   50532   50550       4
   50499   50505   50517   50538       4   50496   50502   50511   50529       4
   50868   50853   50865   50871       1   50868   50853   50865   50874       1
   50868   50853   50865   50877       1   50862   50853   50865   50871       1
   50862   50853   50865   50874       1   50862   50853   50865   50877       1
   50859   50850   50853   50862       1   50859   50850   50853   50865       2
   50859   50850   50853   50868       1   50856   50850   50853   50862       1
   50856   50850   50853   50865       2   50856   50850   50853   50868       1
   50850   50853   50865   50871       2   50850   50853   50865   50874       2
   50850   50853   50865   50877       2   50847   50835   50850   50853       2
   50847   50835   50850   50856       1   50847   50835   50850   50859       1
   50844   50835   50850   50853       2   50844   50835   50850   50856       1
   50844   50835   50850   50859       1   50841   50826   50835   50844       1
   50841   50826   50835   50847       1   50841   50826   50835   50850       2
   50838   50826   50835   50844       1   50838   50826   50835   50847       1
   50838   50826   50835   50850       2   50835   50850   50853   50862       2
   50835   50850   50853   50868       2   50832   50817   50826   50835       2
   50832   50817   50826   50838       1   50832   50817   50826   50841       1
   50829   50817   50826   50835       2   50829   50817   50826   50838       1
   50829   50817   50826   50841       1   50826   50835   50850   50856       2
   50826   50835   50850   50859       2   50823   50808   50817   50826       2
   50823   50808   50817   50829       1   50823   50808   50817   50832       1
   50820   50808   50817   50826       2   50820   50808   50817   50829       1
   50820   50808   50817   50832       1   50817   50826   50835   50844       2
   50817   50826   50835   50847       2   50814   50796   50808   50817       2
   50814   50796   50808   50820       1   50814   50796   50808   50823       1
   50811   50796   50808   50817       2   50811   50796   50808   50820       1
   50811   50796   50808   50823       1   50808   50817   50826   50838       2
   50808   50817   50826   50841       2   50802   50778   50796   50808       2
   50802   50778   50796   50811       1   50802   50778   50796   50814       1
   50799   50778   50796   50808       2   50799   50778   50796   50811       1
   50799   50778   50796   50814       1   50796   50808   50817   50829       2
   50796   50808   50817   50832       2   50793   50772   50787   50805       4
   50790   50766   50787   50805       4   50784   50763   50778   50796       2
   50784   50763   50778   50799       1   50784   50763   50778   50802       1
   50781   50763   50778   50796       2   50781   50763   50778   50799       1
   50781   50763   50778   50802       1   50778   50796   50808   50820       2
   50778   50796   50808   50823       2   50775   50760   50772   50787       4
   50775   50760   50772   50793       4   50772   50787   50766   50790       4
   50769   50757   50766   50787       4   50769   50757   50766   50790       4
   50766   50787   50772   50793       4   50763   50778   50796   50811       2
   50763   50778   50796   50814       2   50760   50739   50757   50769       4
   50760   50772   50787   50805       4   50757   50739   50760   50775       4
   50757   50766   50787   50805       4   50751   50733   50745   50763       4
   50748   50727   50745   50763       4   50745   50763   50778   50799       5
   50745   50763   50778   50802       5   50742   50724   50736   50754       4
   50739   50718   50736   50754       4   50739   50757   50766   50790       4
   50739   50760   50772   50793       4   50733   50745   50727   50748       4
   50733   50745   50763   50781       8   50733   50745   50763   50784       8
   50730   50709   50727   50745       4   50730   50709   50727   50748       4
   50727   50745   50733   50751       4   50727   50745   50763   50781       8
   50727   50745   50763   50784       8   50721   50703   50718   50736       4
   50721   50703   50718   50739       4   50718   50736   50724   50742       4
   50718   50739   50757   50769       4   50718   50739   50760   50775       4
   50715   50712   50733   50751       4   50712   50697   50709   50730       4
   50706   50694   50703   50721       4   50706   50724   50736   50754       4
   50703   50718   50736   50754       4   50700   50706   50724   50742       4
   50697   50709   50727   50748       4   50697   50712   50733   50751       4
   50694   50706   50724   50742       4   50691   50697   50709   50730       4
   50688   50694   50703   50721       4   51060   51045   51057   51063       1
   51060   51045   51057   51066       1   51060   51045   51057   51069       1
   51054   51045   51057   51063       1   51054   51045   51057   51066       1
   51054   51045   51057   51069       1   51051   51042   51045   51054       1
   51051   51042   51045   51057       2   51051   51042   51045   51060       1
   51048   51042   51045   51054       1   51048   51042   51045   51057       2
   51048   51042   51045   51060       1   51042   51045   51057   51063       2
   51042   51045   51057   51066       2   51042   51045   51057   51069       2
   51039   51027   51042   51045       2   51039   51027   51042   51048       1
   51039   51027   51042   51051       1   51036   51027   51042   51045       2
   51036   51027   51042   51048       1   51036   51027   51042   51051       1
   51033   51018   51027   51036       1   51033   51018   51027   51039       1
   51033   51018   51027   51042       2   51030   51018   51027   51036       1
   51030   51018   51027   51039       1   51030   51018   51027   51042       2
   51027   51042   51045   51054       2   51027   51042   51045   51060       2
   51024   51009   51018   51027       2   51024   51009   51018   51030       1
   51024   51009   51018   51033       1   51021   51009   51018   51027       2
   51021   51009   51018   51030       1   51021   51009   51018   51033       1
   51018   51027   51042   51048       2   51018   51027   51042   51051       2
   51015   51000   51009   51018       2   51015   51000   51009   51021       1
   51015   51000   51009   51024       1   51012   51000   51009   51018       2
   51012   51000   51009   51021       1   51012   51000   51009   51024       1
   51009   51018   51027   51036       2   51009   51018   51027   51039       2
   51006   50988   51000   51009       2   51006   50988   51000   51012       1
   51006   50988   51000   51015       1   51003   50988   51000   51009       2
   51003   50988   51000   51012       1   51003   50988   51000   51015       1
   51000   51009   51018   51030       2   51000   51009   51018   51033       2
   50994   50970   50988   51000       2   50994   50970   50988   51003       1
   50994   50970   50988   51006       1   50991   50970   50988   51000       2
   50991   50970   50988   51003       1   50991   50970   50988   51006       1
   50988   51000   51009   51021       2   50988   51000   51009   51024       2
   50985   50964   50979   50997       4   50982   50958   50979   50997       4
   50976   50955   50970   50988       2   50976   50955   50970   50991       1
   50976   50955   50970   50994       1   50973   50955   50970   50988       2
   50973   50955   50970   50991       1   50973   50955   50970   50994       1
   50970   50988   51000   51012       2   50970   50988   51000   51015       2
   50967   50952   50964   50979       4   50967   50952   50964   50985       4
   50964   50979   50958   50982       4   50961   50949   50958   50979       4
   50961   50949   50958   50982       4   50958   50979   50964   50985       4
   50955   50970   50988   51003       2   50955   50970   50988   51006       2
   50952   50931   50949   50961       4   50952   50964   50979   50997       4
   50949   50931   50952   50967       4   50949   50958   50979   50997       4
   50943   50925   50937   50955       4   50940   50919   50937   50955       4
   50937   50955   50970   50991       5   50937   50955   50970   50994       5
   50934   50916   50928   50946       4   50931   50910   50928   50946       4
   50931   50949   50958   50982       4   50931   50952   50964   50985       4
   50925   50937   50919   50940       4   50925   50937   50955   50973       8
   50925   50937   50955   50976       8   50922   50901   50919   50937       4
   50922   50901   50919   50940       4   50919   50937   50925   50943       4
   50919   50937   50955   50973       8   50919   50937   50955   50976       8
   50913   50895   50910   50928       4   50913   50895   50910   50931       4
   50910   50928   50916   50934       4   50910   50931   50949   50961       4
   50910   50931   50952   50967       4   50907   50904   50925   50943       4
   50904   50889   50901   50922       4   50898   50886   50895   50913       4
   50898   50916   50928   50946       4   50895   50910   50928   50946       4
   50892   50898   50916   50934       4   50889   50901   50919   50940       4
   50889   50904   50925   50943       4   50886   50898   50916   50934       4
   50883   50889   50901   50922       4   50880   50886   50895   50913       4
   51252   51237   51249   51255       1   51252   51237   51249   51258       1
   51252   51237   51249   51261       1   51246   51237   51249   51255       1
   51246   51237   51249   51258       1   51246   51237   51249   51261       1
   51243   51234   51237   51246       1   51243   51234   51237   51249       2
   51243   51234   51237   51252       1   51240   51234   51237   51246       1
   51240   51234   51237   51249       2   51240   51234   51237   51252       1
   51234   51237   51249   51255       2   51234   51237   51249   51258       2
   51234   51237   51249   51261       2   51231   51219   51234   51237       2
   51231   51219   51234   51240       1   51231   51219   51234   51243       1
   51228   51219   51234   51237       2   51228   51219   51234   51240       1
   51228   51219   51234   51243       1   51225   51210   51219   51228       1
   51225   51210   51219   51231       1   51225   51210   51219   51234       2
   51222   51210   51219   51228       1   51222   51210   51219   51231       1
   51222   51210   51219   51234       2   51219   51234   51237   51246       2
   51219   51234   51237   51252       2   51216   51201   51210   51219       2
   51216   51201   51210   51222       1   51216   51201   51210   51225       1
   51213   51201   51210   51219       2   51213   51201   51210   51222       1
   51213   51201   51210   51225       1   51210   51219   51234   51240       2
   51210   51219   51234   51243       2   51207   51192   51201   51210       2
   51207   51192   51201   51213       1   51207   51192   51201   51216       1
   51204   51192   51201   51210       2   51204   51192   51201   51213       1
   51204   51192   51201   51216       1   51201   51210   51219   51228       2
   51201   51210   51219   51231       2   51198   51180   51192   51201       2
   51198   51180   51192   51204       1   51198   51180   51192   51207       1
   51195   51180   51192   51201       2   51195   51180   51192   51204       1
   51195   51180   51192   51207       1   51192   51201   51210   51222       2
   51192   51201   51210   51225       2   51186   51162   51180   51192       2
   51186   51162   51180   51195       1   51186   51162   51180   51198       1
   51183   51162   51180   51192       2   51183   51162   51180   51195       1
   51183   51162   51180   51198       1   51180   51192   51201   51213       2
   51180   51192   51201   51216       2   51177   51156   51171   51189       4
   51174   51150   51171   51189       4   51168   51147   51162   51180       2
   51168   51147   51162   51183       1   51168   51147   51162   51186       1
   51165   51147   51162   51180       2   51165   51147   51162   51183       1
   51165   51147   51162   51186       1   51162   51180   51192   51204       2
   51162   51180   51192   51207       2   51159   51144   51156   51171       4
   51159   51144   51156   51177       4   51156   51171   51150   51174       4
   51153   51141   51150   51171       4   51153   51141   51150   51174       4
   51150   51171   51156   51177       4   51147   51162   51180   51195       2
   51147   51162   51180   51198       2   51144   51123   51141   51153       4
   51144   51156   51171   51189       4   51141   51123   51144   51159       4
   51141   51150   51171   51189       4   51135   51117   51129   51147       4
   51132   51111   51129   51147       4   51129   51147   51162   51183       5
   51129   51147   51162   51186       5   51126   51108   51120   51138       4
   51123   51102   51120   51138       4   51123   51141   51150   51174       4
   51123   51144   51156   51177       4   51117   51129   51111   51132       4
   51117   51129   51147   51165       8   51117   51129   51147   51168       8
   51114   51093   51111   51129       4   51114   51093   51111   51132       4
   51111   51129   51117   51135       4   51111   51129   51147   51165       8
   51111   51129   51147   51168       8   51105   51087   51102   51120       4
   51105   51087   51102   51123       4   51102   51120   51108   51126       4
   51102   51123   51141   51153       4   51102   51123   51144   51159       4
   51099   51096   51117   51135       4   51096   51081   51093   51114       4
   51090   51078   51087   51105       4   51090   51108   51120   51138       4
   51087   51102   51120   51138       4   51084   51090   51108   51126       4
   51081   51093   51111   51132       4   51081   51096   51117   51135       4
   51078   51090   51108   51126       4   51075   51081   51093   51114       4
   51072   51078   51087   51105       4   51444   51429   51441   51447       1
   51444   51429   51441   51450       1   51444   51429   51441   51453       1
   51438   51429   51441   51447       1   51438   51429   51441   51450       1
   51438   51429   51441   51453       1   51435   51426   51429   51438       1
   51435   51426   51429   51441       2   51435   51426   51429   51444       1
   51432   51426   51429   51438       1   51432   51426   51429   51441       2
   51432   51426   51429   51444       1   51426   51429   51441   51447       2
   51426   51429   51441   51450       2   51426   51429   51441   51453       2
   51423   51411   51426   51429       2   51423   51411   51426   51432       1
   51423   51411   51426   51435       1   51420   51411   51426   51429       2
   51420   51411   51426   51432       1   51420   51411   51426   51435       1
   51417   51402   51411   51420       1   51417   51402   51411   51423       1
   51417   51402   51411   51426       2   51414   51402   51411   51420       1
   51414   51402   51411   51423       1   51414   51402   51411   51426       2
   51411   51426   51429   51438       2   51411   51426   51429   51444       2
   51408   51393   51402   51411       2   51408   51393   51402   51414       1
   51408   51393   51402   51417       1   51405   51393   51402   51411       2
   51405   51393   51402   51414       1   51405   51393   51402   51417       1
   51402   51411   51426   51432       2   51402   51411   51426   51435       2
   51399   51384   51393   51402       2   51399   51384   51393   51405       1
   51399   51384   51393   51408       1   51396   51384   51393   51402       2
   51396   51384   51393   51405       1   51396   51384   51393   51408       1
   51393   51402   51411   51420       2   51393   51402   51411   51423       2
   51390   51372   51384   51393       2   51390   51372   51384   51396       1
   51390   51372   51384   51399       1   51387   51372   51384   51393       2
   51387   51372   51384   51396       1   51387   51372   51384   51399       1
   51384   51393   51402   51414       2   51384   51393   51402   51417       2
   51378   51354   51372   51384       2   51378   51354   51372   51387       1
   51378   51354   51372   51390       1   51375   51354   51372   51384       2
   51375   51354   51372   51387       1   51375   51354   51372   51390       1
   51372   51384   51393   51405       2   51372   51384   51393   51408       2
   51369   51348   51363   51381       4   51366   51342   51363   51381       4
   51360   51339   51354   51372       2   51360   51339   51354   51375       1
   51360   51339   51354   51378       1   51357   51339   51354   51372       2
   51357   51339   51354   51375       1   51357   51339   51354   51378       1
   51354   51372   51384   51396       2   51354   51372   51384   51399       2
   51351   51336   51348   51363       4   51351   51336   51348   51369       4
   51348   51363   51342   51366       4   51345   51333   51342   51363       4
   51345   51333   51342   51366       4   51342   51363   51348   51369       4
   51339   51354   51372   51387       2   51339   51354   51372   51390       2
   51336   51315   51333   51345       4   51336   51348   51363   51381       4
   51333   51315   51336   51351       4   51333   51342   51363   51381       4
   51327   51309   51321   51339       4   51324   51303   51321   51339       4
   51321   51339   51354   51375       5   51321   51339   51354   51378       5
   51318   51300   51312   51330       4   51315   51294   51312   51330       4
   51315   51333   51342   51366       4   51315   51336   51348   51369       4
   51309   51321   51303   51324       4   51309   51321   51339   51357       8
   51309   51321   51339   51360       8   51306   51285   51303   51321       4
   51306   51285   51303   51324       4   51303   51321   51309   51327       4
   51303   51321   51339   51357       8   51303   51321   51339   51360       8
   51297   51279   51294   51312       4   51297   51279   51294   51315       4
   51294   51312   51300   51318       4   51294   51315   51333   51345       4
   51294   51315   51336   51351       4   51291   51288   51309   51327       4
   51288   51273   51285   51306       4   51282   51270   51279   51297       4
   51282   51300   51312   51330       4   51279   51294   51312   51330       4
   51276   51282   51300   51318       4   51273   51285   51303   51324       4
   51273   51288   51309   51327       4   51270   51282   51300   51318       4
   51267   51273   51285   51306       4   51264   51270   51279   51297       4
   51636   51621   51633   51639       1   51636   51621   51633   51642       1
   51636   51621   51633   51645       1   51630   51621   51633   51639       1
   51630   51621   51633   51642       1   51630   51621   51633   51645       1
   51627   51618   51621   51630       1   51627   51618   51621   51633       2
   51627   51618   51621   51636       1   51624   51618   51621   51630       1
   51624   51618   51621   51633       2   51624   51618   51621   51636       1
   51618   51621   51633   51639       2   51618   51621   51633   51642       2
   51618   51621   51633   51645       2   51615   51603   51618   51621       2
   51615   51603   51618   51624       1   51615   51603   51618   51627       1
   51612   51603   51618   51621       2   51612   51603   51618   51624       1
   51612   51603   51618   51627       1   51609   51594   51603   51612       1
   51609   51594   51603   51615       1   51609   51594   51603   51618       2
   51606   51594   51603   51612       1   51606   51594   51603   51615       1
   51606   51594   51603   51618       2   51603   51618   51621   51630       2
   51603   51618   51621   51636       2   51600   51585   51594   51603       2
   51600   51585   51594   51606       1   51600   51585   51594   51609       1
   51597   51585   51594   51603       2   51597   51585   51594   51606       1
   51597   51585   51594   51609       1   51594   51603   51618   51624       2
   51594   51603   51618   51627       2   51591   51576   51585   51594       2
   51591   51576   51585   51597       1   51591   51576   51585   51600       1
   51588   51576   51585   51594       2   51588   51576   51585   51597       1
   51588   51576   51585   51600       1   51585   51594   51603   51612       2
   51585   51594   51603   51615       2   51582   51564   51576   51585       2
   51582   51564   51576   51588       1   51582   51564   51576   51591       1
   51579   51564   51576   51585       2   51579   51564   51576   51588       1
   51579   51564   51576   51591       1   51576   51585   51594   51606       2
   51576   51585   51594   51609       2   51570   51546   51564   51576       2
   51570   51546   51564   51579       1   51570   51546   51564   51582       1
   51567   51546   51564   51576       2   51567   51546   51564   51579       1
   51567   51546   51564   51582       1   51564   51576   51585   51597       2
   51564   51576   51585   51600       2   51561   51540   51555   51573       4
   51558   51534   51555   51573       4   51552   51531   51546   51564       2
   51552   51531   51546   51567       1   51552   51531   51546   51570       1
   51549   51531   51546   51564       2   51549   51531   51546   51567       1
   51549   51531   51546   51570       1   51546   51564   51576   51588       2
   51546   51564   51576   51591       2   51543   51528   51540   51555       4
   51543   51528   51540   51561       4   51540   51555   51534   51558       4
   51537   51525   51534   51555       4   51537   51525   51534   51558       4
   51534   51555   51540   51561       4   51531   51546   51564   51579       2
   51531   51546   51564   51582       2   51528   51507   51525   51537       4
   51528   51540   51555   51573       4   51525   51507   51528   51543       4
   51525   51534   51555   51573       4   51519   51501   51513   51531       4
   51516   51495   51513   51531       4   51513   51531   51546   51567       5
   51513   51531   51546   51570       5   51510   51492   51504   51522       4
   51507   51486   51504   51522       4   51507   51525   51534   51558       4
   51507   51528   51540   51561       4   51501   51513   51495   51516       4
   51501   51513   51531   51549       8   51501   51513   51531   51552       8
   51498   51477   51495   51513       4   51498   51477   51495   51516       4
   51495   51513   51501   51519       4   51495   51513   51531   51549       8
   51495   51513   51531   51552       8   51489   51471   51486   51504       4
   51489   51471   51486   51507       4   51486   51504   51492   51510       4
   51486   51507   51525   51537       4   51486   51507   51528   51543       4
   51483   51480   51501   51519       4   51480   51465   51477   51498       4
   51474   51462   51471   51489       4   51474   51492   51504   51522       4
   51471   51486   51504   51522       4   51468   51474   51492   51510       4
   51465   51477   51495   51516       4   51465   51480   51501   51519       4
   51462   51474   51492   51510       4   51459   51465   51477   51498       4
   51456   51462   51471   51489       4   51828   51813   51825   51831       1
   51828   51813   51825   51834       1   51828   51813   51825   51837       1
   51822   51813   51825   51831       1   51822   51813   51825   51834       1
   51822   51813   51825   51837       1   51819   51810   51813   51822       1
   51819   51810   51813   51825       2   51819   51810   51813   51828       1
   51816   51810   51813   51822       1   51816   51810   51813   51825       2
   51816   51810   51813   51828       1   51810   51813   51825   51831       2
   51810   51813   51825   51834       2   51810   51813   51825   51837       2
   51807   51795   51810   51813       2   51807   51795   51810   51816       1
   51807   51795   51810   51819       1   51804   51795   51810   51813       2
   51804   51795   51810   51816       1   51804   51795   51810   51819       1
   51801   51786   51795   51804       1   51801   51786   51795   51807       1
   51801   51786   51795   51810       2   51798   51786   51795   51804       1
   51798   51786   51795   51807       1   51798   51786   51795   51810       2
   51795   51810   51813   51822       2   51795   51810   51813   51828       2
   51792   51777   51786   51795       2   51792   51777   51786   51798       1
   51792   51777   51786   51801       1   51789   51777   51786   51795       2
   51789   51777   51786   51798       1   51789   51777   51786   51801       1
   51786   51795   51810   51816       2   51786   51795   51810   51819       2
   51783   51768   51777   51786       2   51783   51768   51777   51789       1
   51783   51768   51777   51792       1   51780   51768   51777   51786       2
   51780   51768   51777   51789       1   51780   51768   51777   51792       1
   51777   51786   51795   51804       2   51777   51786   51795   51807       2
   51774   51756   51768   51777       2   51774   51756   51768   51780       1
   51774   51756   51768   51783       1   51771   51756   51768   51777       2
   51771   51756   51768   51780       1   51771   51756   51768   51783       1
   51768   51777   51786   51798       2   51768   51777   51786   51801       2
   51762   51738   51756   51768       2   51762   51738   51756   51771       1
   51762   51738   51756   51774       1   51759   51738   51756   51768       2
   51759   51738   51756   51771       1   51759   51738   51756   51774       1
   51756   51768   51777   51789       2   51756   51768   51777   51792       2
   51753   51732   51747   51765       4   51750   51726   51747   51765       4
   51744   51723   51738   51756       2   51744   51723   51738   51759       1
   51744   51723   51738   51762       1   51741   51723   51738   51756       2
   51741   51723   51738   51759       1   51741   51723   51738   51762       1
   51738   51756   51768   51780       2   51738   51756   51768   51783       2
   51735   51720   51732   51747       4   51735   51720   51732   51753       4
   51732   51747   51726   51750       4   51729   51717   51726   51747       4
   51729   51717   51726   51750       4   51726   51747   51732   51753       4
   51723   51738   51756   51771       2   51723   51738   51756   51774       2
   51720   51699   51717   51729       4   51720   51732   51747   51765       4
   51717   51699   51720   51735       4   51717   51726   51747   51765       4
   51711   51693   51705   51723       4   51708   51687   51705   51723       4
   51705   51723   51738   51759       5   51705   51723   51738   51762       5
   51702   51684   51696   51714       4   51699   51678   51696   51714       4
   51699   51717   51726   51750       4   51699   51720   51732   51753       4
   51693   51705   51687   51708       4   51693   51705   51723   51741       8
   51693   51705   51723   51744       8   51690   51669   51687   51705       4
   51690   51669   51687   51708       4   51687   51705   51693   51711       4
   51687   51705   51723   51741       8   51687   51705   51723   51744       8
   51681   51663   51678   51696       4   51681   51663   51678   51699       4
   51678   51696   51684   51702       4   51678   51699   51717   51729       4
   51678   51699   51720   51735       4   51675   51672   51693   51711       4
   51672   51657   51669   51690       4   51666   51654   51663   51681       4
   51666   51684   51696   51714       4   51663   51678   51696   51714       4
   51660   51666   51684   51702       4   51657   51669   51687   51708       4
   51657   51672   51693   51711       4   51654   51666   51684   51702       4
   51651   51657   51669   51690       4   51648   51654   51663   51681       4
   52020   52005   52017   52023       1   52020   52005   52017   52026       1
   52020   52005   52017   52029       1   52014   52005   52017   52023       1
   52014   52005   52017   52026       1   52014   52005   52017   52029       1
   52011   52002   52005   52014       1   52011   52002   52005   52017       2
   52011   52002   52005   52020       1   52008   52002   52005   52014       1
   52008   52002   52005   52017       2   52008   52002   52005   52020       1
   52002   52005   52017   52023       2   52002   52005   52017   52026       2
   52002   52005   52017   52029       2   51999   51987   52002   52005       2
   51999   51987   52002   52008       1   51999   51987   52002   52011       1
   51996   51987   52002   52005       2   51996   51987   52002   52008       1
   51996   51987   52002   52011       1   51993   51978   51987   51996       1
   51993   51978   51987   51999       1   51993   51978   51987   52002       2
   51990   51978   51987   51996       1   51990   51978   51987   51999       1
   51990   51978   51987   52002       2   51987   52002   52005   52014       2
   51987   52002   52005   52020       2   51984   51969   51978   51987       2
   51984   51969   51978   51990       1   51984   51969   51978   51993       1
   51981   51969   51978   51987       2   51981   51969   51978   51990       1
   51981   51969   51978   51993       1   51978   51987   52002   52008       2
   51978   51987   52002   52011       2   51975   51960   51969   51978       2
   51975   51960   51969   51981       1   51975   51960   51969   51984       1
   51972   51960   51969   51978       2   51972   51960   51969   51981       1
   51972   51960   51969   51984       1   51969   51978   51987   51996       2
   51969   51978   51987   51999       2   51966   51948   51960   51969       2
   51966   51948   51960   51972       1   51966   51948   51960   51975       1
   51963   51948   51960   51969       2   51963   51948   51960   51972       1
   51963   51948   51960   51975       1   51960   51969   51978   51990       2
   51960   51969   51978   51993       2   51954   51930   51948   51960       2
   51954   51930   51948   51963       1   51954   51930   51948   51966       1
   51951   51930   51948   51960       2   51951   51930   51948   51963       1
   51951   51930   51948   51966       1   51948   51960   51969   51981       2
   51948   51960   51969   51984       2   51945   51924   51939   51957       4
   51942   51918   51939   51957       4   51936   51915   51930   51948       2
   51936   51915   51930   51951       1   51936   51915   51930   51954       1
   51933   51915   51930   51948       2   51933   51915   51930   51951       1
   51933   51915   51930   51954       1   51930   51948   51960   51972       2
   51930   51948   51960   51975       2   51927   51912   51924   51939       4
   51927   51912   51924   51945       4   51924   51939   51918   51942       4
   51921   51909   51918   51939       4   51921   51909   51918   51942       4
   51918   51939   51924   51945       4   51915   51930   51948   51963       2
   51915   51930   51948   51966       2   51912   51891   51909   51921       4
   51912   51924   51939   51957       4   51909   51891   51912   51927       4
   51909   51918   51939   51957       4   51903   51885   51897   51915       4
   51900   51879   51897   51915       4   51897   51915   51930   51951       5
   51897   51915   51930   51954       5   51894   51876   51888   51906       4
   51891   51870   51888   51906       4   51891   51909   51918   51942       4
   51891   51912   51924   51945       4   51885   51897   51879   51900       4
   51885   51897   51915   51933       8   51885   51897   51915   51936       8
   51882   51861   51879   51897       4   51882   51861   51879   51900       4
   51879   51897   51885   51903       4   51879   51897   51915   51933       8
   51879   51897   51915   51936       8   51873   51855   51870   51888       4
   51873   51855   51870   51891       4   51870   51888   51876   51894       4
   51870   51891   51909   51921       4   51870   51891   51912   51927       4
   51867   51864   51885   51903       4   51864   51849   51861   51882       4
   51858   51846   51855   51873       4   51858   51876   51888   51906       4
   51855   51870   51888   51906       4   51852   51858   51876   51894       4
   51849   51861   51879   51900       4   51849   51864   51885   51903       4
   51846   51858   51876   51894       4   51843   51849   51861   51882       4
   51840   51846   51855   51873       4   52212   52197   52209   52215       1
   52212   52197   52209   52218       1   52212   52197   52209   52221       1
   52206   52197   52209   52215       1   52206   52197   52209   52218       1
   52206   52197   52209   52221       1   52203   52194   52197   52206       1
   52203   52194   52197   52209       2   52203   52194   52197   52212       1
   52200   52194   52197   52206       1   52200   52194   52197   52209       2
   52200   52194   52197   52212       1   52194   52197   52209   52215       2
   52194   52197   52209   52218       2   52194   52197   52209   52221       2
   52191   52179   52194   52197       2   52191   52179   52194   52200       1
   52191   52179   52194   52203       1   52188   52179   52194   52197       2
   52188   52179   52194   52200       1   52188   52179   52194   52203       1
   52185   52170   52179   52188       1   52185   52170   52179   52191       1
   52185   52170   52179   52194       2   52182   52170   52179   52188       1
   52182   52170   52179   52191       1   52182   52170   52179   52194       2
   52179   52194   52197   52206       2   52179   52194   52197   52212       2
   52176   52161   52170   52179       2   52176   52161   52170   52182       1
   52176   52161   52170   52185       1   52173   52161   52170   52179       2
   52173   52161   52170   52182       1   52173   52161   52170   52185       1
   52170   52179   52194   52200       2   52170   52179   52194   52203       2
   52167   52152   52161   52170       2   52167   52152   52161   52173       1
   52167   52152   52161   52176       1   52164   52152   52161   52170       2
   52164   52152   52161   52173       1   52164   52152   52161   52176       1
   52161   52170   52179   52188       2   52161   52170   52179   52191       2
   52158   52140   52152   52161       2   52158   52140   52152   52164       1
   52158   52140   52152   52167       1   52155   52140   52152   52161       2
   52155   52140   52152   52164       1   52155   52140   52152   52167       1
   52152   52161   52170   52182       2   52152   52161   52170   52185       2
   52146   52122   52140   52152       2   52146   52122   52140   52155       1
   52146   52122   52140   52158       1   52143   52122   52140   52152       2
   52143   52122   52140   52155       1   52143   52122   52140   52158       1
   52140   52152   52161   52173       2   52140   52152   52161   52176       2
   52137   52116   52131   52149       4   52134   52110   52131   52149       4
   52128   52107   52122   52140       2   52128   52107   52122   52143       1
   52128   52107   52122   52146       1   52125   52107   52122   52140       2
   52125   52107   52122   52143       1   52125   52107   52122   52146       1
   52122   52140   52152   52164       2   52122   52140   52152   52167       2
   52119   52104   52116   52131       4   52119   52104   52116   52137       4
   52116   52131   52110   52134       4   52113   52101   52110   52131       4
   52113   52101   52110   52134       4   52110   52131   52116   52137       4
   52107   52122   52140   52155       2   52107   52122   52140   52158       2
   52104   52083   52101   52113       4   52104   52116   52131   52149       4
   52101   52083   52104   52119       4   52101   52110   52131   52149       4
   52095   52077   52089   52107       4   52092   52071   52089   52107       4
   52089   52107   52122   52143       5   52089   52107   52122   52146       5
   52086   52068   52080   52098       4   52083   52062   52080   52098       4
   52083   52101   52110   52134       4   52083   52104   52116   52137       4
   52077   52089   52071   52092       4   52077   52089   52107   52125       8
   52077   52089   52107   52128       8   52074   52053   52071   52089       4
   52074   52053   52071   52092       4   52071   52089   52077   52095       4
   52071   52089   52107   52125       8   52071   52089   52107   52128       8
   52065   52047   52062   52080       4   52065   52047   52062   52083       4
   52062   52080   52068   52086       4   52062   52083   52101   52113       4
   52062   52083   52104   52119       4   52059   52056   52077   52095       4
   52056   52041   52053   52074       4   52050   52038   52047   52065       4
   52050   52068   52080   52098       4   52047   52062   52080   52098       4
   52044   52050   52068   52086       4   52041   52053   52071   52092       4
   52041   52056   52077   52095       4   52038   52050   52068   52086       4
   52035   52041   52053   52074       4   52032   52038   52047   52065       4
   52404   52389   52401   52407       1   52404   52389   52401   52410       1
   52404   52389   52401   52413       1   52398   52389   52401   52407       1
   52398   52389   52401   52410       1   52398   52389   52401   52413       1
   52395   52386   52389   52398       1   52395   52386   52389   52401       2
   52395   52386   52389   52404       1   52392   52386   52389   52398       1
   52392   52386   52389   52401       2   52392   52386   52389   52404       1
   52386   52389   52401   52407       2   52386   52389   52401   52410       2
   52386   52389   52401   52413       2   52383   52371   52386   52389       2
   52383   52371   52386   52392       1   52383   52371   52386   52395       1
   52380   52371   52386   52389       2   52380   52371   52386   52392       1
   52380   52371   52386   52395       1   52377   52362   52371   52380       1
   52377   52362   52371   52383       1   52377   52362   52371   52386       2
   52374   52362   52371   52380       1   52374   52362   52371   52383       1
   52374   52362   52371   52386       2   52371   52386   52389   52398       2
   52371   52386   52389   52404       2   52368   52353   52362   52371       2
   52368   52353   52362   52374       1   52368   52353   52362   52377       1
   52365   52353   52362   52371       2   52365   52353   52362   52374       1
   52365   52353   52362   52377       1   52362   52371   52386   52392       2
   52362   52371   52386   52395       2   52359   52344   52353   52362       2
   52359   52344   52353   52365       1   52359   52344   52353   52368       1
   52356   52344   52353   52362       2   52356   52344   52353   52365       1
   52356   52344   52353   52368       1   52353   52362   52371   52380       2
   52353   52362   52371   52383       2   52350   52332   52344   52353       2
   52350   52332   52344   52356       1   52350   52332   52344   52359       1
   52347   52332   52344   52353       2   52347   52332   52344   52356       1
   52347   52332   52344   52359       1   52344   52353   52362   52374       2
   52344   52353   52362   52377       2   52338   52314   52332   52344       2
   52338   52314   52332   52347       1   52338   52314   52332   52350       1
   52335   52314   52332   52344       2   52335   52314   52332   52347       1
   52335   52314   52332   52350       1   52332   52344   52353   52365       2
   52332   52344   52353   52368       2   52329   52308   52323   52341       4
   52326   52302   52323   52341       4   52320   52299   52314   52332       2
   52320   52299   52314   52335       1   52320   52299   52314   52338       1
   52317   52299   52314   52332       2   52317   52299   52314   52335       1
   52317   52299   52314   52338       1   52314   52332   52344   52356       2
   52314   52332   52344   52359       2   52311   52296   52308   52323       4
   52311   52296   52308   52329       4   52308   52323   52302   52326       4
   52305   52293   52302   52323       4   52305   52293   52302   52326       4
   52302   52323   52308   52329       4   52299   52314   52332   52347       2
   52299   52314   52332   52350       2   52296   52275   52293   52305       4
   52296   52308   52323   52341       4   52293   52275   52296   52311       4
   52293   52302   52323   52341       4   52287   52269   52281   52299       4
   52284   52263   52281   52299       4   52281   52299   52314   52335       5
   52281   52299   52314   52338       5   52278   52260   52272   52290       4
   52275   52254   52272   52290       4   52275   52293   52302   52326       4
   52275   52296   52308   52329       4   52269   52281   52263   52284       4
   52269   52281   52299   52317       8   52269   52281   52299   52320       8
   52266   52245   52263   52281       4   52266   52245   52263   52284       4
   52263   52281   52269   52287       4   52263   52281   52299   52317       8
   52263   52281   52299   52320       8   52257   52239   52254   52272       4
   52257   52239   52254   52275       4   52254   52272   52260   52278       4
   52254   52275   52293   52305       4   52254   52275   52296   52311       4
   52251   52248   52269   52287       4   52248   52233   52245   52266       4
   52242   52230   52239   52257       4   52242   52260   52272   52290       4
   52239   52254   52272   52290       4   52236   52242   52260   52278       4
   52233   52245   52263   52284       4   52233   52248   52269   52287       4
   52230   52242   52260   52278       4   52227   52233   52245   52266       4
   52224   52230   52239   52257       4   52596   52581   52593   52599       1
   52596   52581   52593   52602       1   52596   52581   52593   52605       1
   52590   52581   52593   52599       1   52590   52581   52593   52602       1
   52590   52581   52593   52605       1   52587   52578   52581   52590       1
   52587   52578   52581   52593       2   52587   52578   52581   52596       1
   52584   52578   52581   52590       1   52584   52578   52581   52593       2
   52584   52578   52581   52596       1   52578   52581   52593   52599       2
   52578   52581   52593   52602       2   52578   52581   52593   52605       2
   52575   52563   52578   52581       2   52575   52563   52578   52584       1
   52575   52563   52578   52587       1   52572   52563   52578   52581       2
   52572   52563   52578   52584       1   52572   52563   52578   52587       1
   52569   52554   52563   52572       1   52569   52554   52563   52575       1
   52569   52554   52563   52578       2   52566   52554   52563   52572       1
   52566   52554   52563   52575       1   52566   52554   52563   52578       2
   52563   52578   52581   52590       2   52563   52578   52581   52596       2
   52560   52545   52554   52563       2   52560   52545   52554   52566       1
   52560   52545   52554   52569       1   52557   52545   52554   52563       2
   52557   52545   52554   52566       1   52557   52545   52554   52569       1
   52554   52563   52578   52584       2   52554   52563   52578   52587       2
   52551   52536   52545   52554       2   52551   52536   52545   52557       1
   52551   52536   52545   52560       1   52548   52536   52545   52554       2
   52548   52536   52545   52557       1   52548   52536   52545   52560       1
   52545   52554   52563   52572       2   52545   52554   52563   52575       2
   52542   52524   52536   52545       2   52542   52524   52536   52548       1
   52542   52524   52536   52551       1   52539   52524   52536   52545       2
   52539   52524   52536   52548       1   52539   52524   52536   52551       1
   52536   52545   52554   52566       2   52536   52545   52554   52569       2
   52530   52506   52524   52536       2   52530   52506   52524   52539       1
   52530   52506   52524   52542       1   52527   52506   52524   52536       2
   52527   52506   52524   52539       1   52527   52506   52524   52542       1
   52524   52536   52545   52557       2   52524   52536   52545   52560       2
   52521   52500   52515   52533       4   52518   52494   52515   52533       4
   52512   52491   52506   52524       2   52512   52491   52506   52527       1
   52512   52491   52506   52530       1   52509   52491   52506   52524       2
   52509   52491   52506   52527       1   52509   52491   52506   52530       1
   52506   52524   52536   52548       2   52506   52524   52536   52551       2
   52503   52488   52500   52515       4   52503   52488   52500   52521       4
   52500   52515   52494   52518       4   52497   52485   52494   52515       4
   52497   52485   52494   52518       4   52494   52515   52500   52521       4
   52491   52506   52524   52539       2   52491   52506   52524   52542       2
   52488   52467   52485   52497       4   52488   52500   52515   52533       4
   52485   52467   52488   52503       4   52485   52494   52515   52533       4
   52479   52461   52473   52491       4   52476   52455   52473   52491       4
   52473   52491   52506   52527       5   52473   52491   52506   52530       5
   52470   52452   52464   52482       4   52467   52446   52464   52482       4
   52467   52485   52494   52518       4   52467   52488   52500   52521       4
   52461   52473   52455   52476       4   52461   52473   52491   52509       8
   52461   52473   52491   52512       8   52458   52437   52455   52473       4
   52458   52437   52455   52476       4   52455   52473   52461   52479       4
   52455   52473   52491   52509       8   52455   52473   52491   52512       8
   52449   52431   52446   52464       4   52449   52431   52446   52467       4
   52446   52464   52452   52470       4   52446   52467   52485   52497       4
   52446   52467   52488   52503       4   52443   52440   52461   52479       4
   52440   52425   52437   52458       4   52434   52422   52431   52449       4
   52434   52452   52464   52482       4   52431   52446   52464   52482       4
   52428   52434   52452   52470       4   52425   52437   52455   52476       4
   52425   52440   52461   52479       4   52422   52434   52452   52470       4
   52419   52425   52437   52458       4   52416   52422   52431   52449       4
   52788   52773   52785   52791       1   52788   52773   52785   52794       1
   52788   52773   52785   52797       1   52782   52773   52785   52791       1
   52782   52773   52785   52794       1   52782   52773   52785   52797       1
   52779   52770   52773   52782       1   52779   52770   52773   52785       2
   52779   52770   52773   52788       1   52776   52770   52773   52782       1
   52776   52770   52773   52785       2   52776   52770   52773   52788       1
   52770   52773   52785   52791       2   52770   52773   52785   52794       2
   52770   52773   52785   52797       2   52767   52755   52770   52773       2
   52767   52755   52770   52776       1   52767   52755   52770   52779       1
   52764   52755   52770   52773       2   52764   52755   52770   52776       1
   52764   52755   52770   52779       1   52761   52746   52755   52764       1
   52761   52746   52755   52767       1   52761   52746   52755   52770       2
   52758   52746   52755   52764       1   52758   52746   52755   52767       1
   52758   52746   52755   52770       2   52755   52770   52773   52782       2
   52755   52770   52773   52788       2   52752   52737   52746   52755       2
   52752   52737   52746   52758       1   52752   52737   52746   52761       1
   52749   52737   52746   52755       2   52749   52737   52746   52758       1
   52749   52737   52746   52761       1   52746   52755   52770   52776       2
   52746   52755   52770   52779       2   52743   52728   52737   52746       2
   52743   52728   52737   52749       1   52743   52728   52737   52752       1
   52740   52728   52737   52746       2   52740   52728   52737   52749       1
   52740   52728   52737   52752       1   52737   52746   52755   52764       2
   52737   52746   52755   52767       2   52734   52716   52728   52737       2
   52734   52716   52728   52740       1   52734   52716   52728   52743       1
   52731   52716   52728   52737       2   52731   52716   52728   52740       1
   52731   52716   52728   52743       1   52728   52737   52746   52758       2
   52728   52737   52746   52761       2   52722   52698   52716   52728       2
   52722   52698   52716   52731       1   52722   52698   52716   52734       1
   52719   52698   52716   52728       2   52719   52698   52716   52731       1
   52719   52698   52716   52734       1   52716   52728   52737   52749       2
   52716   52728   52737   52752       2   52713   52692   52707   52725       4
   52710   52686   52707   52725       4   52704   52683   52698   52716       2
   52704   52683   52698   52719       1   52704   52683   52698   52722       1
   52701   52683   52698   52716       2   52701   52683   52698   52719       1
   52701   52683   52698   52722       1   52698   52716   52728   52740       2
   52698   52716   52728   52743       2   52695   52680   52692   52707       4
   52695   52680   52692   52713       4   52692   52707   52686   52710       4
   52689   52677   52686   52707       4   52689   52677   52686   52710       4
   52686   52707   52692   52713       4   52683   52698   52716   52731       2
   52683   52698   52716   52734       2   52680   52659   52677   52689       4
   52680   52692   52707   52725       4   52677   52659   52680   52695       4
   52677   52686   52707   52725       4   52671   52653   52665   52683       4
   52668   52647   52665   52683       4   52665   52683   52698   52719       5
   52665   52683   52698   52722       5   52662   52644   52656   52674       4
   52659   52638   52656   52674       4   52659   52677   52686   52710       4
   52659   52680   52692   52713       4   52653   52665   52647   52668       4
   52653   52665   52683   52701       8   52653   52665   52683   52704       8
   52650   52629   52647   52665       4   52650   52629   52647   52668       4
   52647   52665   52653   52671       4   52647   52665   52683   52701       8
   52647   52665   52683   52704       8   52641   52623   52638   52656       4
   52641   52623   52638   52659       4   52638   52656   52644   52662       4
   52638   52659   52677   52689       4   52638   52659   52680   52695       4
   52635   52632   52653   52671       4   52632   52617   52629   52650       4
   52626   52614   52623   52641       4   52626   52644   52656   52674       4
   52623   52638   52656   52674       4   52620   52626   52644   52662       4
   52617   52629   52647   52668       4   52617   52632   52653   52671       4
   52614   52626   52644   52662       4   52611   52617   52629   52650       4
   52608   52614   52623   52641       4   52980   52965   52977   52983       1
   52980   52965   52977   52986       1   52980   52965   52977   52989       1
   52974   52965   52977   52983       1   52974   52965   52977   52986       1
   52974   52965   52977   52989       1   52971   52962   52965   52974       1
   52971   52962   52965   52977       2   52971   52962   52965   52980       1
   52968   52962   52965   52974       1   52968   52962   52965   52977       2
   52968   52962   52965   52980       1   52962   52965   52977   52983       2
   52962   52965   52977   52986       2   52962   52965   52977   52989       2
   52959   52947   52962   52965       2   52959   52947   52962   52968       1
   52959   52947   52962   52971       1   52956   52947   52962   52965       2
   52956   52947   52962   52968       1   52956   52947   52962   52971       1
   52953   52938   52947   52956       1   52953   52938   52947   52959       1
   52953   52938   52947   52962       2   52950   52938   52947   52956       1
   52950   52938   52947   52959       1   52950   52938   52947   52962       2
   52947   52962   52965   52974       2   52947   52962   52965   52980       2
   52944   52929   52938   52947       2   52944   52929   52938   52950       1
   52944   52929   52938   52953       1   52941   52929   52938   52947       2
   52941   52929   52938   52950       1   52941   52929   52938   52953       1
   52938   52947   52962   52968       2   52938   52947   52962   52971       2
   52935   52920   52929   52938       2   52935   52920   52929   52941       1
   52935   52920   52929   52944       1   52932   52920   52929   52938       2
   52932   52920   52929   52941       1   52932   52920   52929   52944       1
   52929   52938   52947   52956       2   52929   52938   52947   52959       2
   52926   52908   52920   52929       2   52926   52908   52920   52932       1
   52926   52908   52920   52935       1   52923   52908   52920   52929       2
   52923   52908   52920   52932       1   52923   52908   52920   52935       1
   52920   52929   52938   52950       2   52920   52929   52938   52953       2
   52914   52890   52908   52920       2   52914   52890   52908   52923       1
   52914   52890   52908   52926       1   52911   52890   52908   52920       2
   52911   52890   52908   52923       1   52911   52890   52908   52926       1
   52908   52920   52929   52941       2   52908   52920   52929   52944       2
   52905   52884   52899   52917       4   52902   52878   52899   52917       4
   52896   52875   52890   52908       2   52896   52875   52890   52911       1
   52896   52875   52890   52914       1   52893   52875   52890   52908       2
   52893   52875   52890   52911       1   52893   52875   52890   52914       1
   52890   52908   52920   52932       2   52890   52908   52920   52935       2
   52887   52872   52884   52899       4   52887   52872   52884   52905       4
   52884   52899   52878   52902       4   52881   52869   52878   52899       4
   52881   52869   52878   52902       4   52878   52899   52884   52905       4
   52875   52890   52908   52923       2   52875   52890   52908   52926       2
   52872   52851   52869   52881       4   52872   52884   52899   52917       4
   52869   52851   52872   52887       4   52869   52878   52899   52917       4
   52863   52845   52857   52875       4   52860   52839   52857   52875       4
   52857   52875   52890   52911       5   52857   52875   52890   52914       5
   52854   52836   52848   52866       4   52851   52830   52848   52866       4
   52851   52869   52878   52902       4   52851   52872   52884   52905       4
   52845   52857   52839   52860       4   52845   52857   52875   52893       8
   52845   52857   52875   52896       8   52842   52821   52839   52857       4
   52842   52821   52839   52860       4   52839   52857   52845   52863       4
   52839   52857   52875   52893       8   52839   52857   52875   52896       8
   52833   52815   52830   52848       4   52833   52815   52830   52851       4
   52830   52848   52836   52854       4   52830   52851   52869   52881       4
   52830   52851   52872   52887       4   52827   52824   52845   52863       4
   52824   52809   52821   52842       4   52818   52806   52815   52833       4
   52818   52836   52848   52866       4   52815   52830   52848   52866       4
   52812   52818   52836   52854       4   52809   52821   52839   52860       4
   52809   52824   52845   52863       4   52806   52818   52836   52854       4
   52803   52809   52821   52842       4   52800   52806   52815   52833       4
   53172   53157   53169   53175       1   53172   53157   53169   53178       1
   53172   53157   53169   53181       1   53166   53157   53169   53175       1
   53166   53157   53169   53178       1   53166   53157   53169   53181       1
   53163   53154   53157   53166       1   53163   53154   53157   53169       2
   53163   53154   53157   53172       1   53160   53154   53157   53166       1
   53160   53154   53157   53169       2   53160   53154   53157   53172       1
   53154   53157   53169   53175       2   53154   53157   53169   53178       2
   53154   53157   53169   53181       2   53151   53139   53154   53157       2
   53151   53139   53154   53160       1   53151   53139   53154   53163       1
   53148   53139   53154   53157       2   53148   53139   53154   53160       1
   53148   53139   53154   53163       1   53145   53130   53139   53148       1
   53145   53130   53139   53151       1   53145   53130   53139   53154       2
   53142   53130   53139   53148       1   53142   53130   53139   53151       1
   53142   53130   53139   53154       2   53139   53154   53157   53166       2
   53139   53154   53157   53172       2   53136   53121   53130   53139       2
   53136   53121   53130   53142       1   53136   53121   53130   53145       1
   53133   53121   53130   53139       2   53133   53121   53130   53142       1
   53133   53121   53130   53145       1   53130   53139   53154   53160       2
   53130   53139   53154   53163       2   53127   53112   53121   53130       2
   53127   53112   53121   53133       1   53127   53112   53121   53136       1
   53124   53112   53121   53130       2   53124   53112   53121   53133       1
   53124   53112   53121   53136       1   53121   53130   53139   53148       2
   53121   53130   53139   53151       2   53118   53100   53112   53121       2
   53118   53100   53112   53124       1   53118   53100   53112   53127       1
   53115   53100   53112   53121       2   53115   53100   53112   53124       1
   53115   53100   53112   53127       1   53112   53121   53130   53142       2
   53112   53121   53130   53145       2   53106   53082   53100   53112       2
   53106   53082   53100   53115       1   53106   53082   53100   53118       1
   53103   53082   53100   53112       2   53103   53082   53100   53115       1
   53103   53082   53100   53118       1   53100   53112   53121   53133       2
   53100   53112   53121   53136       2   53097   53076   53091   53109       4
   53094   53070   53091   53109       4   53088   53067   53082   53100       2
   53088   53067   53082   53103       1   53088   53067   53082   53106       1
   53085   53067   53082   53100       2   53085   53067   53082   53103       1
   53085   53067   53082   53106       1   53082   53100   53112   53124       2
   53082   53100   53112   53127       2   53079   53064   53076   53091       4
   53079   53064   53076   53097       4   53076   53091   53070   53094       4
   53073   53061   53070   53091       4   53073   53061   53070   53094       4
   53070   53091   53076   53097       4   53067   53082   53100   53115       2
   53067   53082   53100   53118       2   53064   53043   53061   53073       4
   53064   53076   53091   53109       4   53061   53043   53064   53079       4
   53061   53070   53091   53109       4   53055   53037   53049   53067       4
   53052   53031   53049   53067       4   53049   53067   53082   53103       5
   53049   53067   53082   53106       5   53046   53028   53040   53058       4
   53043   53022   53040   53058       4   53043   53061   53070   53094       4
   53043   53064   53076   53097       4   53037   53049   53031   53052       4
   53037   53049   53067   53085       8   53037   53049   53067   53088       8
   53034   53013   53031   53049       4   53034   53013   53031   53052       4
   53031   53049   53037   53055       4   53031   53049   53067   53085       8
   53031   53049   53067   53088       8   53025   53007   53022   53040       4
   53025   53007   53022   53043       4   53022   53040   53028   53046       4
   53022   53043   53061   53073       4   53022   53043   53064   53079       4
   53019   53016   53037   53055       4   53016   53001   53013   53034       4
   53010   52998   53007   53025       4   53010   53028   53040   53058       4
   53007   53022   53040   53058       4   53004   53010   53028   53046       4
   53001   53013   53031   53052       4   53001   53016   53037   53055       4
   52998   53010   53028   53046       4   52995   53001   53013   53034       4
   52992   52998   53007   53025       4   53364   53349   53361   53367       1
   53364   53349   53361   53370       1   53364   53349   53361   53373       1
   53358   53349   53361   53367       1   53358   53349   53361   53370       1
   53358   53349   53361   53373       1   53355   53346   53349   53358       1
   53355   53346   53349   53361       2   53355   53346   53349   53364       1
   53352   53346   53349   53358       1   53352   53346   53349   53361       2
   53352   53346   53349   53364       1   53346   53349   53361   53367       2
   53346   53349   53361   53370       2   53346   53349   53361   53373       2
   53343   53331   53346   53349       2   53343   53331   53346   53352       1
   53343   53331   53346   53355       1   53340   53331   53346   53349       2
   53340   53331   53346   53352       1   53340   53331   53346   53355       1
   53337   53322   53331   53340       1   53337   53322   53331   53343       1
   53337   53322   53331   53346       2   53334   53322   53331   53340       1
   53334   53322   53331   53343       1   53334   53322   53331   53346       2
   53331   53346   53349   53358       2   53331   53346   53349   53364       2
   53328   53313   53322   53331       2   53328   53313   53322   53334       1
   53328   53313   53322   53337       1   53325   53313   53322   53331       2
   53325   53313   53322   53334       1   53325   53313   53322   53337       1
   53322   53331   53346   53352       2   53322   53331   53346   53355       2
   53319   53304   53313   53322       2   53319   53304   53313   53325       1
   53319   53304   53313   53328       1   53316   53304   53313   53322       2
   53316   53304   53313   53325       1   53316   53304   53313   53328       1
   53313   53322   53331   53340       2   53313   53322   53331   53343       2
   53310   53292   53304   53313       2   53310   53292   53304   53316       1
   53310   53292   53304   53319       1   53307   53292   53304   53313       2
   53307   53292   53304   53316       1   53307   53292   53304   53319       1
   53304   53313   53322   53334       2   53304   53313   53322   53337       2
   53298   53274   53292   53304       2   53298   53274   53292   53307       1
   53298   53274   53292   53310       1   53295   53274   53292   53304       2
   53295   53274   53292   53307       1   53295   53274   53292   53310       1
   53292   53304   53313   53325       2   53292   53304   53313   53328       2
   53289   53268   53283   53301       4   53286   53262   53283   53301       4
   53280   53259   53274   53292       2   53280   53259   53274   53295       1
   53280   53259   53274   53298       1   53277   53259   53274   53292       2
   53277   53259   53274   53295       1   53277   53259   53274   53298       1
   53274   53292   53304   53316       2   53274   53292   53304   53319       2
   53271   53256   53268   53283       4   53271   53256   53268   53289       4
   53268   53283   53262   53286       4   53265   53253   53262   53283       4
   53265   53253   53262   53286       4   53262   53283   53268   53289       4
   53259   53274   53292   53307       2   53259   53274   53292   53310       2
   53256   53235   53253   53265       4   53256   53268   53283   53301       4
   53253   53235   53256   53271       4   53253   53262   53283   53301       4
   53247   53229   53241   53259       4   53244   53223   53241   53259       4
   53241   53259   53274   53295       5   53241   53259   53274   53298       5
   53238   53220   53232   53250       4   53235   53214   53232   53250       4
   53235   53253   53262   53286       4   53235   53256   53268   53289       4
   53229   53241   53223   53244       4   53229   53241   53259   53277       8
   53229   53241   53259   53280       8   53226   53205   53223   53241       4
   53226   53205   53223   53244       4   53223   53241   53229   53247       4
   53223   53241   53259   53277       8   53223   53241   53259   53280       8
   53217   53199   53214   53232       4   53217   53199   53214   53235       4
   53214   53232   53220   53238       4   53214   53235   53253   53265       4
   53214   53235   53256   53271       4   53211   53208   53229   53247       4
   53208   53193   53205   53226       4   53202   53190   53199   53217       4
   53202   53220   53232   53250       4   53199   53214   53232   53250       4
   53196   53202   53220   53238       4   53193   53205   53223   53244       4
   53193   53208   53229   53247       4   53190   53202   53220   53238       4
   53187   53193   53205   53226       4   53184   53190   53199   53217       4
   53556   53541   53553   53559       1   53556   53541   53553   53562       1
   53556   53541   53553   53565       1   53550   53541   53553   53559       1
   53550   53541   53553   53562       1   53550   53541   53553   53565       1
   53547   53538   53541   53550       1   53547   53538   53541   53553       2
   53547   53538   53541   53556       1   53544   53538   53541   53550       1
   53544   53538   53541   53553       2   53544   53538   53541   53556       1
   53538   53541   53553   53559       2   53538   53541   53553   53562       2
   53538   53541   53553   53565       2   53535   53523   53538   53541       2
   53535   53523   53538   53544       1   53535   53523   53538   53547       1
   53532   53523   53538   53541       2   53532   53523   53538   53544       1
   53532   53523   53538   53547       1   53529   53514   53523   53532       1
   53529   53514   53523   53535       1   53529   53514   53523   53538       2
   53526   53514   53523   53532       1   53526   53514   53523   53535       1
   53526   53514   53523   53538       2   53523   53538   53541   53550       2
   53523   53538   53541   53556       2   53520   53505   53514   53523       2
   53520   53505   53514   53526       1   53520   53505   53514   53529       1
   53517   53505   53514   53523       2   53517   53505   53514   53526       1
   53517   53505   53514   53529       1   53514   53523   53538   53544       2
   53514   53523   53538   53547       2   53511   53496   53505   53514       2
   53511   53496   53505   53517       1   53511   53496   53505   53520       1
   53508   53496   53505   53514       2   53508   53496   53505   53517       1
   53508   53496   53505   53520       1   53505   53514   53523   53532       2
   53505   53514   53523   53535       2   53502   53484   53496   53505       2
   53502   53484   53496   53508       1   53502   53484   53496   53511       1
   53499   53484   53496   53505       2   53499   53484   53496   53508       1
   53499   53484   53496   53511       1   53496   53505   53514   53526       2
   53496   53505   53514   53529       2   53490   53466   53484   53496       2
   53490   53466   53484   53499       1   53490   53466   53484   53502       1
   53487   53466   53484   53496       2   53487   53466   53484   53499       1
   53487   53466   53484   53502       1   53484   53496   53505   53517       2
   53484   53496   53505   53520       2   53481   53460   53475   53493       4
   53478   53454   53475   53493       4   53472   53451   53466   53484       2
   53472   53451   53466   53487       1   53472   53451   53466   53490       1
   53469   53451   53466   53484       2   53469   53451   53466   53487       1
   53469   53451   53466   53490       1   53466   53484   53496   53508       2
   53466   53484   53496   53511       2   53463   53448   53460   53475       4
   53463   53448   53460   53481       4   53460   53475   53454   53478       4
   53457   53445   53454   53475       4   53457   53445   53454   53478       4
   53454   53475   53460   53481       4   53451   53466   53484   53499       2
   53451   53466   53484   53502       2   53448   53427   53445   53457       4
   53448   53460   53475   53493       4   53445   53427   53448   53463       4
   53445   53454   53475   53493       4   53439   53421   53433   53451       4
   53436   53415   53433   53451       4   53433   53451   53466   53487       5
   53433   53451   53466   53490       5   53430   53412   53424   53442       4
   53427   53406   53424   53442       4   53427   53445   53454   53478       4
   53427   53448   53460   53481       4   53421   53433   53415   53436       4
   53421   53433   53451   53469       8   53421   53433   53451   53472       8
   53418   53397   53415   53433       4   53418   53397   53415   53436       4
   53415   53433   53421   53439       4   53415   53433   53451   53469       8
   53415   53433   53451   53472       8   53409   53391   53406   53424       4
   53409   53391   53406   53427       4   53406   53424   53412   53430       4
   53406   53427   53445   53457       4   53406   53427   53448   53463       4
   53403   53400   53421   53439       4   53400   53385   53397   53418       4
   53394   53382   53391   53409       4   53394   53412   53424   53442       4
   53391   53406   53424   53442       4   53388   53394   53412   53430       4
   53385   53397   53415   53436       4   53385   53400   53421   53439       4
   53382   53394   53412   53430       4   53379   53385   53397   53418       4
   53376   53382   53391   53409       4   53748   53733   53745   53751       1
   53748   53733   53745   53754       1   53748   53733   53745   53757       1
   53742   53733   53745   53751       1   53742   53733   53745   53754       1
   53742   53733   53745   53757       1   53739   53730   53733   53742       1
   53739   53730   53733   53745       2   53739   53730   53733   53748       1
   53736   53730   53733   53742       1   53736   53730   53733   53745       2
   53736   53730   53733   53748       1   53730   53733   53745   53751       2
   53730   53733   53745   53754       2   53730   53733   53745   53757       2
   53727   53715   53730   53733       2   53727   53715   53730   53736       1
   53727   53715   53730   53739       1   53724   53715   53730   53733       2
   53724   53715   53730   53736       1   53724   53715   53730   53739       1
   53721   53706   53715   53724       1   53721   53706   53715   53727       1
   53721   53706   53715   53730       2   53718   53706   53715   53724       1
   53718   53706   53715   53727       1   53718   53706   53715   53730       2
   53715   53730   53733   53742       2   53715   53730   53733   53748       2
   53712   53697   53706   53715       2   53712   53697   53706   53718       1
   53712   53697   53706   53721       1   53709   53697   53706   53715       2
   53709   53697   53706   53718       1   53709   53697   53706   53721       1
   53706   53715   53730   53736       2   53706   53715   53730   53739       2
   53703   53688   53697   53706       2   53703   53688   53697   53709       1
   53703   53688   53697   53712       1   53700   53688   53697   53706       2
   53700   53688   53697   53709       1   53700   53688   53697   53712       1
   53697   53706   53715   53724       2   53697   53706   53715   53727       2
   53694   53676   53688   53697       2   53694   53676   53688   53700       1
   53694   53676   53688   53703       1   53691   53676   53688   53697       2
   53691   53676   53688   53700       1   53691   53676   53688   53703       1
   53688   53697   53706   53718       2   53688   53697   53706   53721       2
   53682   53658   53676   53688       2   53682   53658   53676   53691       1
   53682   53658   53676   53694       1   53679   53658   53676   53688       2
   53679   53658   53676   53691       1   53679   53658   53676   53694       1
   53676   53688   53697   53709       2   53676   53688   53697   53712       2
   53673   53652   53667   53685       4   53670   53646   53667   53685       4
   53664   53643   53658   53676       2   53664   53643   53658   53679       1
   53664   53643   53658   53682       1   53661   53643   53658   53676       2
   53661   53643   53658   53679       1   53661   53643   53658   53682       1
   53658   53676   53688   53700       2   53658   53676   53688   53703       2
   53655   53640   53652   53667       4   53655   53640   53652   53673       4
   53652   53667   53646   53670       4   53649   53637   53646   53667       4
   53649   53637   53646   53670       4   53646   53667   53652   53673       4
   53643   53658   53676   53691       2   53643   53658   53676   53694       2
   53640   53619   53637   53649       4   53640   53652   53667   53685       4
   53637   53619   53640   53655       4   53637   53646   53667   53685       4
   53631   53613   53625   53643       4   53628   53607   53625   53643       4
   53625   53643   53658   53679       5   53625   53643   53658   53682       5
   53622   53604   53616   53634       4   53619   53598   53616   53634       4
   53619   53637   53646   53670       4   53619   53640   53652   53673       4
   53613   53625   53607   53628       4   53613   53625   53643   53661       8
   53613   53625   53643   53664       8   53610   53589   53607   53625       4
   53610   53589   53607   53628       4   53607   53625   53613   53631       4
   53607   53625   53643   53661       8   53607   53625   53643   53664       8
   53601   53583   53598   53616       4   53601   53583   53598   53619       4
   53598   53616   53604   53622       4   53598   53619   53637   53649       4
   53598   53619   53640   53655       4   53595   53592   53613   53631       4
   53592   53577   53589   53610       4   53586   53574   53583   53601       4
   53586   53604   53616   53634       4   53583   53598   53616   53634       4
   53580   53586   53604   53622       4   53577   53589   53607   53628       4
   53577   53592   53613   53631       4   53574   53586   53604   53622       4
   53571   53577   53589   53610       4   53568   53574   53583   53601       4
   53940   53925   53937   53943       1   53940   53925   53937   53946       1
   53940   53925   53937   53949       1   53934   53925   53937   53943       1
   53934   53925   53937   53946       1   53934   53925   53937   53949       1
   53931   53922   53925   53934       1   53931   53922   53925   53937       2
   53931   53922   53925   53940       1   53928   53922   53925   53934       1
   53928   53922   53925   53937       2   53928   53922   53925   53940       1
   53922   53925   53937   53943       2   53922   53925   53937   53946       2
   53922   53925   53937   53949       2   53919   53907   53922   53925       2
   53919   53907   53922   53928       1   53919   53907   53922   53931       1
   53916   53907   53922   53925       2   53916   53907   53922   53928       1
   53916   53907   53922   53931       1   53913   53898   53907   53916       1
   53913   53898   53907   53919       1   53913   53898   53907   53922       2
   53910   53898   53907   53916       1   53910   53898   53907   53919       1
   53910   53898   53907   53922       2   53907   53922   53925   53934       2
   53907   53922   53925   53940       2   53904   53889   53898   53907       2
   53904   53889   53898   53910       1   53904   53889   53898   53913       1
   53901   53889   53898   53907       2   53901   53889   53898   53910       1
   53901   53889   53898   53913       1   53898   53907   53922   53928       2
   53898   53907   53922   53931       2   53895   53880   53889   53898       2
   53895   53880   53889   53901       1   53895   53880   53889   53904       1
   53892   53880   53889   53898       2   53892   53880   53889   53901       1
   53892   53880   53889   53904       1   53889   53898   53907   53916       2
   53889   53898   53907   53919       2   53886   53868   53880   53889       2
   53886   53868   53880   53892       1   53886   53868   53880   53895       1
   53883   53868   53880   53889       2   53883   53868   53880   53892       1
   53883   53868   53880   53895       1   53880   53889   53898   53910       2
   53880   53889   53898   53913       2   53874   53850   53868   53880       2
   53874   53850   53868   53883       1   53874   53850   53868   53886       1
   53871   53850   53868   53880       2   53871   53850   53868   53883       1
   53871   53850   53868   53886       1   53868   53880   53889   53901       2
   53868   53880   53889   53904       2   53865   53844   53859   53877       4
   53862   53838   53859   53877       4   53856   53835   53850   53868       2
   53856   53835   53850   53871       1   53856   53835   53850   53874       1
   53853   53835   53850   53868       2   53853   53835   53850   53871       1
   53853   53835   53850   53874       1   53850   53868   53880   53892       2
   53850   53868   53880   53895       2   53847   53832   53844   53859       4
   53847   53832   53844   53865       4   53844   53859   53838   53862       4
   53841   53829   53838   53859       4   53841   53829   53838   53862       4
   53838   53859   53844   53865       4   53835   53850   53868   53883       2
   53835   53850   53868   53886       2   53832   53811   53829   53841       4
   53832   53844   53859   53877       4   53829   53811   53832   53847       4
   53829   53838   53859   53877       4   53823   53805   53817   53835       4
   53820   53799   53817   53835       4   53817   53835   53850   53871       5
   53817   53835   53850   53874       5   53814   53796   53808   53826       4
   53811   53790   53808   53826       4   53811   53829   53838   53862       4
   53811   53832   53844   53865       4   53805   53817   53799   53820       4
   53805   53817   53835   53853       8   53805   53817   53835   53856       8
   53802   53781   53799   53817       4   53802   53781   53799   53820       4
   53799   53817   53805   53823       4   53799   53817   53835   53853       8
   53799   53817   53835   53856       8   53793   53775   53790   53808       4
   53793   53775   53790   53811       4   53790   53808   53796   53814       4
   53790   53811   53829   53841       4   53790   53811   53832   53847       4
   53787   53784   53805   53823       4   53784   53769   53781   53802       4
   53778   53766   53775   53793       4   53778   53796   53808   53826       4
   53775   53790   53808   53826       4   53772   53778   53796   53814       4
   53769   53781   53799   53820       4   53769   53784   53805   53823       4
   53766   53778   53796   53814       4   53763   53769   53781   53802       4
   53760   53766   53775   53793       4   54132   54117   54129   54135       1
   54132   54117   54129   54138       1   54132   54117   54129   54141       1
   54126   54117   54129   54135       1   54126   54117   54129   54138       1
   54126   54117   54129   54141       1   54123   54114   54117   54126       1
   54123   54114   54117   54129       2   54123   54114   54117   54132       1
   54120   54114   54117   54126       1   54120   54114   54117   54129       2
   54120   54114   54117   54132       1   54114   54117   54129   54135       2
   54114   54117   54129   54138       2   54114   54117   54129   54141       2
   54111   54099   54114   54117       2   54111   54099   54114   54120       1
   54111   54099   54114   54123       1   54108   54099   54114   54117       2
   54108   54099   54114   54120       1   54108   54099   54114   54123       1
   54105   54090   54099   54108       1   54105   54090   54099   54111       1
   54105   54090   54099   54114       2   54102   54090   54099   54108       1
   54102   54090   54099   54111       1   54102   54090   54099   54114       2
   54099   54114   54117   54126       2   54099   54114   54117   54132       2
   54096   54081   54090   54099       2   54096   54081   54090   54102       1
   54096   54081   54090   54105       1   54093   54081   54090   54099       2
   54093   54081   54090   54102       1   54093   54081   54090   54105       1
   54090   54099   54114   54120       2   54090   54099   54114   54123       2
   54087   54072   54081   54090       2   54087   54072   54081   54093       1
   54087   54072   54081   54096       1   54084   54072   54081   54090       2
   54084   54072   54081   54093       1   54084   54072   54081   54096       1
   54081   54090   54099   54108       2   54081   54090   54099   54111       2
   54078   54060   54072   54081       2   54078   54060   54072   54084       1
   54078   54060   54072   54087       1   54075   54060   54072   54081       2
   54075   54060   54072   54084       1   54075   54060   54072   54087       1
   54072   54081   54090   54102       2   54072   54081   54090   54105       2
   54066   54042   54060   54072       2   54066   54042   54060   54075       1
   54066   54042   54060   54078       1   54063   54042   54060   54072       2
   54063   54042   54060   54075       1   54063   54042   54060   54078       1
   54060   54072   54081   54093       2   54060   54072   54081   54096       2
   54057   54036   54051   54069       4   54054   54030   54051   54069       4
   54048   54027   54042   54060       2   54048   54027   54042   54063       1
   54048   54027   54042   54066       1   54045   54027   54042   54060       2
   54045   54027   54042   54063       1   54045   54027   54042   54066       1
   54042   54060   54072   54084       2   54042   54060   54072   54087       2
   54039   54024   54036   54051       4   54039   54024   54036   54057       4
   54036   54051   54030   54054       4   54033   54021   54030   54051       4
   54033   54021   54030   54054       4   54030   54051   54036   54057       4
   54027   54042   54060   54075       2   54027   54042   54060   54078       2
   54024   54003   54021   54033       4   54024   54036   54051   54069       4
   54021   54003   54024   54039       4   54021   54030   54051   54069       4
   54015   53997   54009   54027       4   54012   53991   54009   54027       4
   54009   54027   54042   54063       5   54009   54027   54042   54066       5
   54006   53988   54000   54018       4   54003   53982   54000   54018       4
   54003   54021   54030   54054       4   54003   54024   54036   54057       4
   53997   54009   53991   54012       4   53997   54009   54027   54045       8
   53997   54009   54027   54048       8   53994   53973   53991   54009       4
   53994   53973   53991   54012       4   53991   54009   53997   54015       4
   53991   54009   54027   54045       8   53991   54009   54027   54048       8
   53985   53967   53982   54000       4   53985   53967   53982   54003       4
   53982   54000   53988   54006       4   53982   54003   54021   54033       4
   53982   54003   54024   54039       4   53979   53976   53997   54015       4
   53976   53961   53973   53994       4   53970   53958   53967   53985       4
   53970   53988   54000   54018       4   53967   53982   54000   54018       4
   53964   53970   53988   54006       4   53961   53973   53991   54012       4
   53961   53976   53997   54015       4   53958   53970   53988   54006       4
   53955   53961   53973   53994       4   53952   53958   53967   53985       4
   54324   54309   54321   54327       1   54324   54309   54321   54330       1
   54324   54309   54321   54333       1   54318   54309   54321   54327       1
   54318   54309   54321   54330       1   54318   54309   54321   54333       1
   54315   54306   54309   54318       1   54315   54306   54309   54321       2
   54315   54306   54309   54324       1   54312   54306   54309   54318       1
   54312   54306   54309   54321       2   54312   54306   54309   54324       1
   54306   54309   54321   54327       2   54306   54309   54321   54330       2
   54306   54309   54321   54333       2   54303   54291   54306   54309       2
   54303   54291   54306   54312       1   54303   54291   54306   54315       1
   54300   54291   54306   54309       2   54300   54291   54306   54312       1
   54300   54291   54306   54315       1   54297   54282   54291   54300       1
   54297   54282   54291   54303       1   54297   54282   54291   54306       2
   54294   54282   54291   54300       1   54294   54282   54291   54303       1
   54294   54282   54291   54306       2   54291   54306   54309   54318       2
   54291   54306   54309   54324       2   54288   54273   54282   54291       2
   54288   54273   54282   54294       1   54288   54273   54282   54297       1
   54285   54273   54282   54291       2   54285   54273   54282   54294       1
   54285   54273   54282   54297       1   54282   54291   54306   54312       2
   54282   54291   54306   54315       2   54279   54264   54273   54282       2
   54279   54264   54273   54285       1   54279   54264   54273   54288       1
   54276   54264   54273   54282       2   54276   54264   54273   54285       1
   54276   54264   54273   54288       1   54273   54282   54291   54300       2
   54273   54282   54291   54303       2   54270   54252   54264   54273       2
   54270   54252   54264   54276       1   54270   54252   54264   54279       1
   54267   54252   54264   54273       2   54267   54252   54264   54276       1
   54267   54252   54264   54279       1   54264   54273   54282   54294       2
   54264   54273   54282   54297       2   54258   54234   54252   54264       2
   54258   54234   54252   54267       1   54258   54234   54252   54270       1
   54255   54234   54252   54264       2   54255   54234   54252   54267       1
   54255   54234   54252   54270       1   54252   54264   54273   54285       2
   54252   54264   54273   54288       2   54249   54228   54243   54261       4
   54246   54222   54243   54261       4   54240   54219   54234   54252       2
   54240   54219   54234   54255       1   54240   54219   54234   54258       1
   54237   54219   54234   54252       2   54237   54219   54234   54255       1
   54237   54219   54234   54258       1   54234   54252   54264   54276       2
   54234   54252   54264   54279       2   54231   54216   54228   54243       4
   54231   54216   54228   54249       4   54228   54243   54222   54246       4
   54225   54213   54222   54243       4   54225   54213   54222   54246       4
   54222   54243   54228   54249       4   54219   54234   54252   54267       2
   54219   54234   54252   54270       2   54216   54195   54213   54225       4
   54216   54228   54243   54261       4   54213   54195   54216   54231       4
   54213   54222   54243   54261       4   54207   54189   54201   54219       4
   54204   54183   54201   54219       4   54201   54219   54234   54255       5
   54201   54219   54234   54258       5   54198   54180   54192   54210       4
   54195   54174   54192   54210       4   54195   54213   54222   54246       4
   54195   54216   54228   54249       4   54189   54201   54183   54204       4
   54189   54201   54219   54237       8   54189   54201   54219   54240       8
   54186   54165   54183   54201       4   54186   54165   54183   54204       4
   54183   54201   54189   54207       4   54183   54201   54219   54237       8
   54183   54201   54219   54240       8   54177   54159   54174   54192       4
   54177   54159   54174   54195       4   54174   54192   54180   54198       4
   54174   54195   54213   54225       4   54174   54195   54216   54231       4
   54171   54168   54189   54207       4   54168   54153   54165   54186       4
   54162   54150   54159   54177       4   54162   54180   54192   54210       4
   54159   54174   54192   54210       4   54156   54162   54180   54198       4
   54153   54165   54183   54204       4   54153   54168   54189   54207       4
   54150   54162   54180   54198       4   54147   54153   54165   54186       4
   54144   54150   54159   54177       4   54516   54501   54513   54519       1
   54516   54501   54513   54522       1   54516   54501   54513   54525       1
   54510   54501   54513   54519       1   54510   54501   54513   54522       1
   54510   54501   54513   54525       1   54507   54498   54501   54510       1
   54507   54498   54501   54513       2   54507   54498   54501   54516       1
   54504   54498   54501   54510       1   54504   54498   54501   54513       2
   54504   54498   54501   54516       1   54498   54501   54513   54519       2
   54498   54501   54513   54522       2   54498   54501   54513   54525       2
   54495   54483   54498   54501       2   54495   54483   54498   54504       1
   54495   54483   54498   54507       1   54492   54483   54498   54501       2
   54492   54483   54498   54504       1   54492   54483   54498   54507       1
   54489   54474   54483   54492       1   54489   54474   54483   54495       1
   54489   54474   54483   54498       2   54486   54474   54483   54492       1
   54486   54474   54483   54495       1   54486   54474   54483   54498       2
   54483   54498   54501   54510       2   54483   54498   54501   54516       2
   54480   54465   54474   54483       2   54480   54465   54474   54486       1
   54480   54465   54474   54489       1   54477   54465   54474   54483       2
   54477   54465   54474   54486       1   54477   54465   54474   54489       1
   54474   54483   54498   54504       2   54474   54483   54498   54507       2
   54471   54456   54465   54474       2   54471   54456   54465   54477       1
   54471   54456   54465   54480       1   54468   54456   54465   54474       2
   54468   54456   54465   54477       1   54468   54456   54465   54480       1
   54465   54474   54483   54492       2   54465   54474   54483   54495       2
   54462   54444   54456   54465       2   54462   54444   54456   54468       1
   54462   54444   54456   54471       1   54459   54444   54456   54465       2
   54459   54444   54456   54468       1   54459   54444   54456   54471       1
   54456   54465   54474   54486       2   54456   54465   54474   54489       2
   54450   54426   54444   54456       2   54450   54426   54444   54459       1
   54450   54426   54444   54462       1   54447   54426   54444   54456       2
   54447   54426   54444   54459       1   54447   54426   54444   54462       1
   54444   54456   54465   54477       2   54444   54456   54465   54480       2
   54441   54420   54435   54453       4   54438   54414   54435   54453       4
   54432   54411   54426   54444       2   54432   54411   54426   54447       1
   54432   54411   54426   54450       1   54429   54411   54426   54444       2
   54429   54411   54426   54447       1   54429   54411   54426   54450       1
   54426   54444   54456   54468       2   54426   54444   54456   54471       2
   54423   54408   54420   54435       4   54423   54408   54420   54441       4
   54420   54435   54414   54438       4   54417   54405   54414   54435       4
   54417   54405   54414   54438       4   54414   54435   54420   54441       4
   54411   54426   54444   54459       2   54411   54426   54444   54462       2
   54408   54387   54405   54417       4   54408   54420   54435   54453       4
   54405   54387   54408   54423       4   54405   54414   54435   54453       4
   54399   54381   54393   54411       4   54396   54375   54393   54411       4
   54393   54411   54426   54447       5   54393   54411   54426   54450       5
   54390   54372   54384   54402       4   54387   54366   54384   54402       4
   54387   54405   54414   54438       4   54387   54408   54420   54441       4
   54381   54393   54375   54396       4   54381   54393   54411   54429       8
   54381   54393   54411   54432       8   54378   54357   54375   54393       4
   54378   54357   54375   54396       4   54375   54393   54381   54399       4
   54375   54393   54411   54429       8   54375   54393   54411   54432       8
   54369   54351   54366   54384       4   54369   54351   54366   54387       4
   54366   54384   54372   54390       4   54366   54387   54405   54417       4
   54366   54387   54408   54423       4   54363   54360   54381   54399       4
   54360   54345   54357   54378       4   54354   54342   54351   54369       4
   54354   54372   54384   54402       4   54351   54366   54384   54402       4
   54348   54354   54372   54390       4   54345   54357   54375   54396       4
   54345   54360   54381   54399       4   54342   54354   54372   54390       4
   54339   54345   54357   54378       4   54336   54342   54351   54369       4
   54708   54693   54705   54711       1   54708   54693   54705   54714       1
   54708   54693   54705   54717       1   54702   54693   54705   54711       1
   54702   54693   54705   54714       1   54702   54693   54705   54717       1
   54699   54690   54693   54702       1   54699   54690   54693   54705       2
   54699   54690   54693   54708       1   54696   54690   54693   54702       1
   54696   54690   54693   54705       2   54696   54690   54693   54708       1
   54690   54693   54705   54711       2   54690   54693   54705   54714       2
   54690   54693   54705   54717       2   54687   54675   54690   54693       2
   54687   54675   54690   54696       1   54687   54675   54690   54699       1
   54684   54675   54690   54693       2   54684   54675   54690   54696       1
   54684   54675   54690   54699       1   54681   54666   54675   54684       1
   54681   54666   54675   54687       1   54681   54666   54675   54690       2
   54678   54666   54675   54684       1   54678   54666   54675   54687       1
   54678   54666   54675   54690       2   54675   54690   54693   54702       2
   54675   54690   54693   54708       2   54672   54657   54666   54675       2
   54672   54657   54666   54678       1   54672   54657   54666   54681       1
   54669   54657   54666   54675       2   54669   54657   54666   54678       1
   54669   54657   54666   54681       1   54666   54675   54690   54696       2
   54666   54675   54690   54699       2   54663   54648   54657   54666       2
   54663   54648   54657   54669       1   54663   54648   54657   54672       1
   54660   54648   54657   54666       2   54660   54648   54657   54669       1
   54660   54648   54657   54672       1   54657   54666   54675   54684       2
   54657   54666   54675   54687       2   54654   54636   54648   54657       2
   54654   54636   54648   54660       1   54654   54636   54648   54663       1
   54651   54636   54648   54657       2   54651   54636   54648   54660       1
   54651   54636   54648   54663       1   54648   54657   54666   54678       2
   54648   54657   54666   54681       2   54642   54618   54636   54648       2
   54642   54618   54636   54651       1   54642   54618   54636   54654       1
   54639   54618   54636   54648       2   54639   54618   54636   54651       1
   54639   54618   54636   54654       1   54636   54648   54657   54669       2
   54636   54648   54657   54672       2   54633   54612   54627   54645       4
   54630   54606   54627   54645       4   54624   54603   54618   54636       2
   54624   54603   54618   54639       1   54624   54603   54618   54642       1
   54621   54603   54618   54636       2   54621   54603   54618   54639       1
   54621   54603   54618   54642       1   54618   54636   54648   54660       2
   54618   54636   54648   54663       2   54615   54600   54612   54627       4
   54615   54600   54612   54633       4   54612   54627   54606   54630       4
   54609   54597   54606   54627       4   54609   54597   54606   54630       4
   54606   54627   54612   54633       4   54603   54618   54636   54651       2
   54603   54618   54636   54654       2   54600   54579   54597   54609       4
   54600   54612   54627   54645       4   54597   54579   54600   54615       4
   54597   54606   54627   54645       4   54591   54573   54585   54603       4
   54588   54567   54585   54603       4   54585   54603   54618   54639       5
   54585   54603   54618   54642       5   54582   54564   54576   54594       4
   54579   54558   54576   54594       4   54579   54597   54606   54630       4
   54579   54600   54612   54633       4   54573   54585   54567   54588       4
   54573   54585   54603   54621       8   54573   54585   54603   54624       8
   54570   54549   54567   54585       4   54570   54549   54567   54588       4
   54567   54585   54573   54591       4   54567   54585   54603   54621       8
   54567   54585   54603   54624       8   54561   54543   54558   54576       4
   54561   54543   54558   54579       4   54558   54576   54564   54582       4
   54558   54579   54597   54609       4   54558   54579   54600   54615       4
   54555   54552   54573   54591       4   54552   54537   54549   54570       4
   54546   54534   54543   54561       4   54546   54564   54576   54594       4
   54543   54558   54576   54594       4   54540   54546   54564   54582       4
   54537   54549   54567   54588       4   54537   54552   54573   54591       4
   54534   54546   54564   54582       4   54531   54537   54549   54570       4
   54528   54534   54543   54561       4   54900   54885   54897   54903       1
   54900   54885   54897   54906       1   54900   54885   54897   54909       1
   54894   54885   54897   54903       1   54894   54885   54897   54906       1
   54894   54885   54897   54909       1   54891   54882   54885   54894       1
   54891   54882   54885   54897       2   54891   54882   54885   54900       1
   54888   54882   54885   54894       1   54888   54882   54885   54897       2
   54888   54882   54885   54900       1   54882   54885   54897   54903       2
   54882   54885   54897   54906       2   54882   54885   54897   54909       2
   54879   54867   54882   54885       2   54879   54867   54882   54888       1
   54879   54867   54882   54891       1   54876   54867   54882   54885       2
   54876   54867   54882   54888       1   54876   54867   54882   54891       1
   54873   54858   54867   54876       1   54873   54858   54867   54879       1
   54873   54858   54867   54882       2   54870   54858   54867   54876       1
   54870   54858   54867   54879       1   54870   54858   54867   54882       2
   54867   54882   54885   54894       2   54867   54882   54885   54900       2
   54864   54849   54858   54867       2   54864   54849   54858   54870       1
   54864   54849   54858   54873       1   54861   54849   54858   54867       2
   54861   54849   54858   54870       1   54861   54849   54858   54873       1
   54858   54867   54882   54888       2   54858   54867   54882   54891       2
   54855   54840   54849   54858       2   54855   54840   54849   54861       1
   54855   54840   54849   54864       1   54852   54840   54849   54858       2
   54852   54840   54849   54861       1   54852   54840   54849   54864       1
   54849   54858   54867   54876       2   54849   54858   54867   54879       2
   54846   54828   54840   54849       2   54846   54828   54840   54852       1
   54846   54828   54840   54855       1   54843   54828   54840   54849       2
   54843   54828   54840   54852       1   54843   54828   54840   54855       1
   54840   54849   54858   54870       2   54840   54849   54858   54873       2
   54834   54810   54828   54840       2   54834   54810   54828   54843       1
   54834   54810   54828   54846       1   54831   54810   54828   54840       2
   54831   54810   54828   54843       1   54831   54810   54828   54846       1
   54828   54840   54849   54861       2   54828   54840   54849   54864       2
   54825   54804   54819   54837       4   54822   54798   54819   54837       4
   54816   54795   54810   54828       2   54816   54795   54810   54831       1
   54816   54795   54810   54834       1   54813   54795   54810   54828       2
   54813   54795   54810   54831       1   54813   54795   54810   54834       1
   54810   54828   54840   54852       2   54810   54828   54840   54855       2
   54807   54792   54804   54819       4   54807   54792   54804   54825       4
   54804   54819   54798   54822       4   54801   54789   54798   54819       4
   54801   54789   54798   54822       4   54798   54819   54804   54825       4
   54795   54810   54828   54843       2   54795   54810   54828   54846       2
   54792   54771   54789   54801       4   54792   54804   54819   54837       4
   54789   54771   54792   54807       4   54789   54798   54819   54837       4
   54783   54765   54777   54795       4   54780   54759   54777   54795       4
   54777   54795   54810   54831       5   54777   54795   54810   54834       5
   54774   54756   54768   54786       4   54771   54750   54768   54786       4
   54771   54789   54798   54822       4   54771   54792   54804   54825       4
   54765   54777   54759   54780       4   54765   54777   54795   54813       8
   54765   54777   54795   54816       8   54762   54741   54759   54777       4
   54762   54741   54759   54780       4   54759   54777   54765   54783       4
   54759   54777   54795   54813       8   54759   54777   54795   54816       8
   54753   54735   54750   54768       4   54753   54735   54750   54771       4
   54750   54768   54756   54774       4   54750   54771   54789   54801       4
   54750   54771   54792   54807       4   54747   54744   54765   54783       4
   54744   54729   54741   54762       4   54738   54726   54735   54753       4
   54738   54756   54768   54786       4   54735   54750   54768   54786       4
   54732   54738   54756   54774       4   54729   54741   54759   54780       4
   54729   54744   54765   54783       4   54726   54738   54756   54774       4
   54723   54729   54741   54762       4   54720   54726   54735   54753       4
   55092   55077   55089   55095       1   55092   55077   55089   55098       1
   55092   55077   55089   55101       1   55086   55077   55089   55095       1
   55086   55077   55089   55098       1   55086   55077   55089   55101       1
   55083   55074   55077   55086       1   55083   55074   55077   55089       2
   55083   55074   55077   55092       1   55080   55074   55077   55086       1
   55080   55074   55077   55089       2   55080   55074   55077   55092       1
   55074   55077   55089   55095       2   55074   55077   55089   55098       2
   55074   55077   55089   55101       2   55071   55059   55074   55077       2
   55071   55059   55074   55080       1   55071   55059   55074   55083       1
   55068   55059   55074   55077       2   55068   55059   55074   55080       1
   55068   55059   55074   55083       1   55065   55050   55059   55068       1
   55065   55050   55059   55071       1   55065   55050   55059   55074       2
   55062   55050   55059   55068       1   55062   55050   55059   55071       1
   55062   55050   55059   55074       2   55059   55074   55077   55086       2
   55059   55074   55077   55092       2   55056   55041   55050   55059       2
   55056   55041   55050   55062       1   55056   55041   55050   55065       1
   55053   55041   55050   55059       2   55053   55041   55050   55062       1
   55053   55041   55050   55065       1   55050   55059   55074   55080       2
   55050   55059   55074   55083       2   55047   55032   55041   55050       2
   55047   55032   55041   55053       1   55047   55032   55041   55056       1
   55044   55032   55041   55050       2   55044   55032   55041   55053       1
   55044   55032   55041   55056       1   55041   55050   55059   55068       2
   55041   55050   55059   55071       2   55038   55020   55032   55041       2
   55038   55020   55032   55044       1   55038   55020   55032   55047       1
   55035   55020   55032   55041       2   55035   55020   55032   55044       1
   55035   55020   55032   55047       1   55032   55041   55050   55062       2
   55032   55041   55050   55065       2   55026   55002   55020   55032       2
   55026   55002   55020   55035       1   55026   55002   55020   55038       1
   55023   55002   55020   55032       2   55023   55002   55020   55035       1
   55023   55002   55020   55038       1   55020   55032   55041   55053       2
   55020   55032   55041   55056       2   55017   54996   55011   55029       4
   55014   54990   55011   55029       4   55008   54987   55002   55020       2
   55008   54987   55002   55023       1   55008   54987   55002   55026       1
   55005   54987   55002   55020       2   55005   54987   55002   55023       1
   55005   54987   55002   55026       1   55002   55020   55032   55044       2
   55002   55020   55032   55047       2   54999   54984   54996   55011       4
   54999   54984   54996   55017       4   54996   55011   54990   55014       4
   54993   54981   54990   55011       4   54993   54981   54990   55014       4
   54990   55011   54996   55017       4   54987   55002   55020   55035       2
   54987   55002   55020   55038       2   54984   54963   54981   54993       4
   54984   54996   55011   55029       4   54981   54963   54984   54999       4
   54981   54990   55011   55029       4   54975   54957   54969   54987       4
   54972   54951   54969   54987       4   54969   54987   55002   55023       5
   54969   54987   55002   55026       5   54966   54948   54960   54978       4
   54963   54942   54960   54978       4   54963   54981   54990   55014       4
   54963   54984   54996   55017       4   54957   54969   54951   54972       4
   54957   54969   54987   55005       8   54957   54969   54987   55008       8
   54954   54933   54951   54969       4   54954   54933   54951   54972       4
   54951   54969   54957   54975       4   54951   54969   54987   55005       8
   54951   54969   54987   55008       8   54945   54927   54942   54960       4
   54945   54927   54942   54963       4   54942   54960   54948   54966       4
   54942   54963   54981   54993       4   54942   54963   54984   54999       4
   54939   54936   54957   54975       4   54936   54921   54933   54954       4
   54930   54918   54927   54945       4   54930   54948   54960   54978       4
   54927   54942   54960   54978       4   54924   54930   54948   54966       4
   54921   54933   54951   54972       4   54921   54936   54957   54975       4
   54918   54930   54948   54966       4   54915   54921   54933   54954       4
   54912   54918   54927   54945       4   55284   55269   55281   55287       1
   55284   55269   55281   55290       1   55284   55269   55281   55293       1
   55278   55269   55281   55287       1   55278   55269   55281   55290       1
   55278   55269   55281   55293       1   55275   55266   55269   55278       1
   55275   55266   55269   55281       2   55275   55266   55269   55284       1
   55272   55266   55269   55278       1   55272   55266   55269   55281       2
   55272   55266   55269   55284       1   55266   55269   55281   55287       2
   55266   55269   55281   55290       2   55266   55269   55281   55293       2
   55263   55251   55266   55269       2   55263   55251   55266   55272       1
   55263   55251   55266   55275       1   55260   55251   55266   55269       2
   55260   55251   55266   55272       1   55260   55251   55266   55275       1
   55257   55242   55251   55260       1   55257   55242   55251   55263       1
   55257   55242   55251   55266       2   55254   55242   55251   55260       1
   55254   55242   55251   55263       1   55254   55242   55251   55266       2
   55251   55266   55269   55278       2   55251   55266   55269   55284       2
   55248   55233   55242   55251       2   55248   55233   55242   55254       1
   55248   55233   55242   55257       1   55245   55233   55242   55251       2
   55245   55233   55242   55254       1   55245   55233   55242   55257       1
   55242   55251   55266   55272       2   55242   55251   55266   55275       2
   55239   55224   55233   55242       2   55239   55224   55233   55245       1
   55239   55224   55233   55248       1   55236   55224   55233   55242       2
   55236   55224   55233   55245       1   55236   55224   55233   55248       1
   55233   55242   55251   55260       2   55233   55242   55251   55263       2
   55230   55212   55224   55233       2   55230   55212   55224   55236       1
   55230   55212   55224   55239       1   55227   55212   55224   55233       2
   55227   55212   55224   55236       1   55227   55212   55224   55239       1
   55224   55233   55242   55254       2   55224   55233   55242   55257       2
   55218   55194   55212   55224       2   55218   55194   55212   55227       1
   55218   55194   55212   55230       1   55215   55194   55212   55224       2
   55215   55194   55212   55227       1   55215   55194   55212   55230       1
   55212   55224   55233   55245       2   55212   55224   55233   55248       2
   55209   55188   55203   55221       4   55206   55182   55203   55221       4
   55200   55179   55194   55212       2   55200   55179   55194   55215       1
   55200   55179   55194   55218       1   55197   55179   55194   55212       2
   55197   55179   55194   55215       1   55197   55179   55194   55218       1
   55194   55212   55224   55236       2   55194   55212   55224   55239       2
   55191   55176   55188   55203       4   55191   55176   55188   55209       4
   55188   55203   55182   55206       4   55185   55173   55182   55203       4
   55185   55173   55182   55206       4   55182   55203   55188   55209       4
   55179   55194   55212   55227       2   55179   55194   55212   55230       2
   55176   55155   55173   55185       4   55176   55188   55203   55221       4
   55173   55155   55176   55191       4   55173   55182   55203   55221       4
   55167   55149   55161   55179       4   55164   55143   55161   55179       4
   55161   55179   55194   55215       5   55161   55179   55194   55218       5
   55158   55140   55152   55170       4   55155   55134   55152   55170       4
   55155   55173   55182   55206       4   55155   55176   55188   55209       4
   55149   55161   55143   55164       4   55149   55161   55179   55197       8
   55149   55161   55179   55200       8   55146   55125   55143   55161       4
   55146   55125   55143   55164       4   55143   55161   55149   55167       4
   55143   55161   55179   55197       8   55143   55161   55179   55200       8
   55137   55119   55134   55152       4   55137   55119   55134   55155       4
   55134   55152   55140   55158       4   55134   55155   55173   55185       4
   55134   55155   55176   55191       4   55131   55128   55149   55167       4
   55128   55113   55125   55146       4   55122   55110   55119   55137       4
   55122   55140   55152   55170       4   55119   55134   55152   55170       4
   55116   55122   55140   55158       4   55113   55125   55143   55164       4
   55113   55128   55149   55167       4   55110   55122   55140   55158       4
   55107   55113   55125   55146       4   55104   55110   55119   55137       4
      78      84     -99    -117      16      72      99     -84    -105      16
      69      99     -78    -102      16      84      51     -72     -87      16
      78      51     -69     -81      16      36      30     -48     -66      16
      24      57     -45     -63      16      21      57     -39     -60      16
      18      48     -36     -54      16       9      39     -21     -42      16
       6      30     -15     -33      16     270     276    -291    -309      16
     264     291    -276    -297      16     261     291    -270    -294      16
     276     243    -264    -279      16     270     243    -261    -273      16
     228     222    -240    -258      16     216     249    -237    -255      16
     213     249    -231    -252      16     210     240    -228    -246      16
     201     231    -213    -234      16     198     222    -207    -225      16
     462     468    -483    -501      16     456     483    -468    -489      16
     453     483    -462    -486      16     468     435    -456    -471      16
     462     435    -453    -465      16     420     414    -432    -450      16
     408     441    -429    -447      16     405     441    -423    -444      16
     402     432    -420    -438      16     393     423    -405    -426      16
     390     414    -399    -417      16     654     660    -675    -693      16
     648     675    -660    -681      16     645     675    -654    -678      16
     660     627    -648    -663      16     654     627    -645    -657      16
     612     606    -624    -642      16     600     633    -621    -639      16
     597     633    -615    -636      16     594     624    -612    -630      16
     585     615    -597    -618      16     582     606    -591    -609      16
     846     852    -867    -885      16     840     867    -852    -873      16
     837     867    -846    -870      16     852     819    -840    -855      16
     846     819    -837    -849      16     804     798    -816    -834      16
     792     825    -813    -831      16     789     825    -807    -828      16
     786     816    -804    -822      16     777     807    -789    -810      16
     774     798    -783    -801      16    1038    1044   -1059   -1077      16
    1032    1059   -1044   -1065      16    1029    1059   -1038   -1062      16
    1044    1011   -1032   -1047      16    1038    1011   -1029   -1041      16
     996     990   -1008   -1026      16     984    1017   -1005   -1023      16
     981    1017    -999   -1020      16     978    1008    -996   -1014      16
     969     999    -981   -1002      16     966     990    -975    -993      16
    1230    1236   -1251   -1269      16    1224    1251   -1236   -1257      16
    1221    1251   -1230   -1254      16    1236    1203   -1224   -1239      16
    1230    1203   -1221   -1233      16    1188    1182   -1200   -1218      16
    1176    1209   -1197   -1215      16    1173    1209   -1191   -1212      16
    1170    1200   -1188   -1206      16    1161    1191   -1173   -1194      16
    1158    1182   -1167   -1185      16    1422    1428   -1443   -1461      16
    1416    1443   -1428   -1449      16    1413    1443   -1422   -1446      16
    1428    1395   -1416   -1431      16    1422    1395   -1413   -1425      16
    1380    1374   -1392   -1410      16    1368    1401   -1389   -1407      16
    1365    1401   -1383   -1404      16    1362    1392   -1380   -1398      16
    1353    1383   -1365   -1386      16    1350    1374   -1359   -1377      16
    1614    1620   -1635   -1653      16    1608    1635   -1620   -1641      16
    1605    1635   -1614   -1638      16    1620    1587   -1608   -1623      16
    1614    1587   -1605   -1617      16    1572    1566   -1584   -1602      16
    1560    1593   -1581   -1599      16    1557    1593   -1575   -1596      16
    1554    1584   -1572   -1590      16    1545    1575   -1557   -1578      16
    1542    1566   -1551   -1569      16    1806    1812   -1827   -1845      16
    1800    1827   -1812   -1833      16    1797    1827   -1806   -1830      16
    1812    1779   -1800   -1815      16    1806    1779   -1797   -1809      16
    1764    1758   -1776   -1794      16    1752    1785   -1773   -1791      16
    1749    1785   -1767   -1788      16    1746    1776   -1764   -1782      16
    1737    1767   -1749   -1770      16    1734    1758   -1743   -1761      16
    1998    2004   -2019   -2037      16    1992    2019   -2004   -2025      16
    1989    2019   -1998   -2022      16    2004    1971   -1992   -2007      16
    1998    1971   -1989   -2001      16    1956    1950   -1968   -1986      16
    1944    1977   -1965   -1983      16    1941    1977   -1959   -1980      16
    1938    1968   -1956   -1974      16    1929    1959   -1941   -1962      16
    1926    1950   -1935   -1953      16    2190    2196   -2211   -2229      16
    2184    2211   -2196   -2217      16    2181    2211   -2190   -2214      16
    2196    2163   -2184   -2199      16    2190    2163   -2181   -2193      16
    2148    2142   -2160   -2178      16    2136    2169   -2157   -2175      16
    2133    2169   -2151   -2172      16    2130    2160   -2148   -2166      16
    2121    2151   -2133   -2154      16    2118    2142   -2127   -2145      16
    2382    2388   -2403   -2421      16    2376    2403   -2388   -2409      16
    2373    2403   -2382   -2406      16    2388    2355   -2376   -2391      16
    2382    2355   -2373   -2385      16    2340    2334   -2352   -2370      16
    2328    2361   -2349   -2367      16    2325    2361   -2343   -2364      16
    2322    2352   -2340   -2358      16    2313    2343   -2325   -2346      16
    2310    2334   -2319   -2337      16    2574    2580   -2595   -2613      16
    2568    2595   -2580   -2601      16    2565    2595   -2574   -2598      16
    2580    2547   -2568   -2583      16    2574    2547   -2565   -2577      16
    2532    2526   -2544   -2562      16    2520    2553   -2541   -2559      16
    2517    2553   -2535   -2556      16    2514    2544   -2532   -2550      16
    2505    2535   -2517   -2538      16    2502    2526   -2511   -2529      16
    2766    2772   -2787   -2805      16    2760    2787   -2772   -2793      16
    2757    2787   -2766   -2790      16    2772    2739   -2760   -2775      16
    2766    2739   -2757   -2769      16    2724    2718   -2736   -2754      16
    2712    2745   -2733   -2751      16    2709    2745   -2727   -2748      16
    2706    2736   -2724   -2742      16    2697    2727   -2709   -2730      16
    2694    2718   -2703   -2721      16    2958    2964   -2979   -2997      16
    2952    2979   -2964   -2985      16    2949    2979   -2958   -2982      16
    2964    2931   -2952   -2967      16    2958    2931   -2949   -2961      16
    2916    2910   -2928   -2946      16    2904    2937   -2925   -2943      16
    2901    2937   -2919   -2940      16    2898    2928   -2916   -2934      16
    2889    2919   -2901   -2922      16    2886    2910   -2895   -2913      16
    3150    3156   -3171   -3189      16    3144    3171   -3156   -3177      16
    3141    3171   -3150   -3174      16    3156    3123   -3144   -3159      16
    3150    3123   -3141   -3153      16    3108    3102   -3120   -3138      16
    3096    3129   -3117   -3135      16    3093    3129   -3111   -3132      16
    3090    3120   -3108   -3126      16    3081    3111   -3093   -3114      16
    3078    3102   -3087   -3105      16    3342    3348   -3363   -3381      16
    3336    3363   -3348   -3369      16    3333    3363   -3342   -3366      16
    3348    3315   -3336   -3351      16    3342    3315   -3333   -3345      16
    3300    3294   -3312   -3330      16    3288    3321   -3309   -3327      16
    3285    3321   -3303   -3324      16    3282    3312   -3300   -3318      16
    3273    3303   -3285   -3306      16    3270    3294   -3279   -3297      16
    3534    3540   -3555   -3573      16    3528    3555   -3540   -3561      16
    3525    3555   -3534   -3558      16    3540    3507   -3528   -3543      16
    3534    3507   -3525   -3537      16    3492    3486   -3504   -3522      16
    3480    3513   -3501   -3519      16    3477    3513   -3495   -3516      16
    3474    3504   -3492   -3510      16    3465    3495   -3477   -3498      16
    3462    3486   -3471   -3489      16    3726    3732   -3747   -3765      16
    3720    3747   -3732   -3753      16    3717    3747   -3726   -3750      16
    3732    3699   -3720   -3735      16    3726    3699   -3717   -3729      16
    3684    3678   -3696   -3714      16    3672    3705   -3693   -3711      16
    3669    3705   -3687   -3708      16    3666    3696   -3684   -3702      16
    3657    3687   -3669   -3690      16    3654    3678   -3663   -3681      16
    3918    3924   -3939   -3957      16    3912    3939   -3924   -3945      16
    3909    3939   -3918   -3942      16    3924    3891   -3912   -3927      16
    3918    3891   -3909   -3921      16    3876    3870   -3888   -3906      16
    3864    3897   -3885   -3903      16    3861    3897   -3879   -3900      16
    3858    3888   -3876   -3894      16    3849    3879   -3861   -3882      16
    3846    3870   -3855   -3873      16    4110    4116   -4131   -4149      16
    4104    4131   -4116   -4137      16    4101    4131   -4110   -4134      16
    4116    4083   -4104   -4119      16    4110    4083   -4101   -4113      16
    4068    4062   -4080   -4098      16    4056    4089   -4077   -4095      16
    4053    4089   -4071   -4092      16    4050    4080   -4068   -4086      16
    4041    4071   -4053   -4074      16    4038    4062   -4047   -4065      16
    4302    4308   -4323   -4341      16    4296    4323   -4308   -4329      16
    4293    4323   -4302   -4326      16    4308    4275   -4296   -4311      16
    4302    4275   -4293   -4305      16    4260    4254   -4272   -4290      16
    4248    4281   -4269   -4287      16    4245    4281   -4263   -4284      16
    4242    4272   -4260   -4278      16    4233    4263   -4245   -4266      16
    4230    4254   -4239   -4257      16    4494    4500   -4515   -4533      16
    4488    4515   -4500   -4521      16    4485    4515   -4494   -4518      16
    4500    4467   -4488   -4503      16    4494    4467   -4485   -4497      16
    4452    4446   -4464   -4482      16    4440    4473   -4461   -4479      16
    4437    4473   -4455   -4476      16    4434    4464   -4452   -4470      16
    4425    4455   -4437   -4458      16    4422    4446   -4431   -4449      16
    4686    4692   -4707   -4725      16    4680    4707   -4692   -4713      16
    4677    4707   -4686   -4710      16    4692    4659   -4680   -4695      16
    4686    4659   -4677   -4689      16    4644    4638   -4656   -4674      16
    4632    4665   -4653   -4671      16    4629    4665   -4647   -4668      16
    4626    4656   -4644   -4662      16    4617    4647   -4629   -4650      16
    4614    4638   -4623   -4641      16    4878    4884   -4899   -4917      16
    4872    4899   -4884   -4905      16    4869    4899   -4878   -4902      16
    4884    4851   -4872   -4887      16    4878    4851   -4869   -4881      16
    4836    4830   -4848   -4866      16    4824    4857   -4845   -4863      16
    4821    4857   -4839   -4860      16    4818    4848   -4836   -4854      16
    4809    4839   -4821   -4842      16    4806    4830   -4815   -4833      16
    5070    5076   -5091   -5109      16    5064    5091   -5076   -5097      16
    5061    5091   -5070   -5094      16    5076    5043   -5064   -5079      16
    5070    5043   -5061   -5073      16    5028    5022   -5040   -5058      16
    5016    5049   -5037   -5055      16    5013    5049   -5031   -5052      16
    5010    5040   -5028   -5046      16    5001    5031   -5013   -5034      16
    4998    5022   -5007   -5025      16    5262    5268   -5283   -5301      16
    5256    5283   -5268   -5289      16    5253    5283   -5262   -5286      16
    5268    5235   -5256   -5271      16    5262    5235   -5253   -5265      16
    5220    5214   -5232   -5250      16    5208    5241   -5229   -5247      16
    5205    5241   -5223   -5244      16    5202    5232   -5220   -5238      16
    5193    5223   -5205   -5226      16    5190    5214   -5199   -5217      16
    5454    5460   -5475   -5493      16    5448    5475   -5460   -5481      16
    5445    5475   -5454   -5478      16    5460    5427   -5448   -5463      16
    5454    5427   -5445   -5457      16    5412    5406   -5424   -5442      16
    5400    5433   -5421   -5439      16    5397    5433   -5415   -5436      16
    5394    5424   -5412   -5430      16    5385    5415   -5397   -5418      16
    5382    5406   -5391   -5409      16    5646    5652   -5667   -5685      16
    5640    5667   -5652   -5673      16    5637    5667   -5646   -5670      16
    5652    5619   -5640   -5655      16    5646    5619   -5637   -5649      16
    5604    5598   -5616   -5634      16    5592    5625   -5613   -5631      16
    5589    5625   -5607   -5628      16    5586    5616   -5604   -5622      16
    5577    5607   -5589   -5610      16    5574    5598   -5583   -5601      16
    5838    5844   -5859   -5877      16    5832    5859   -5844   -5865      16
    5829    5859   -5838   -5862      16    5844    5811   -5832   -5847      16
    5838    5811   -5829   -5841      16    5796    5790   -5808   -5826      16
    5784    5817   -5805   -5823      16    5781    5817   -5799   -5820      16
    5778    5808   -5796   -5814      16    5769    5799   -5781   -5802      16
    5766    5790   -5775   -5793      16    6030    6036   -6051   -6069      16
    6024    6051   -6036   -6057      16    6021    6051   -6030   -6054      16
    6036    6003   -6024   -6039      16    6030    6003   -6021   -6033      16
    5988    5982   -6000   -6018      16    5976    6009   -5997   -6015      16
    5973    6009   -5991   -6012      16    5970    6000   -5988   -6006      16
    5961    5991   -5973   -5994      16    5958    5982   -5967   -5985      16
    6222    6228   -6243   -6261      16    6216    6243   -6228   -6249      16
    6213    6243   -6222   -6246      16    6228    6195   -6216   -6231      16
    6222    6195   -6213   -6225      16    6180    6174   -6192   -6210      16
    6168    6201   -6189   -6207      16    6165    6201   -6183   -6204      16
    6162    6192   -6180   -6198      16    6153    6183   -6165   -6186      16
    6150    6174   -6159   -6177      16    6414    6420   -6435   -6453      16
    6408    6435   -6420   -6441      16    6405    6435   -6414   -6438      16
    6420    6387   -6408   -6423      16    6414    6387   -6405   -6417      16
    6372    6366   -6384   -6402      16    6360    6393   -6381   -6399      16
    6357    6393   -6375   -6396      16    6354    6384   -6372   -6390      16
    6345    6375   -6357   -6378      16    6342    6366   -6351   -6369      16
    6606    6612   -6627   -6645      16    6600    6627   -6612   -6633      16
    6597    6627   -6606   -6630      16    6612    6579   -6600   -6615      16
    6606    6579   -6597   -6609      16    6564    6558   -6576   -6594      16
    6552    6585   -6573   -6591      16    6549    6585   -6567   -6588      16
    6546    6576   -6564   -6582      16    6537    6567   -6549   -6570      16
    6534    6558   -6543   -6561      16    6798    6804   -6819   -6837      16
    6792    6819   -6804   -6825      16    6789    6819   -6798   -6822      16
    6804    6771   -6792   -6807      16    6798    6771   -6789   -6801      16
    6756    6750   -6768   -6786      16    6744    6777   -6765   -6783      16
    6741    6777   -6759   -6780      16    6738    6768   -6756   -6774      16
    6729    6759   -6741   -6762      16    6726    6750   -6735   -6753      16
    6990    6996   -7011   -7029      16    6984    7011   -6996   -7017      16
    6981    7011   -6990   -7014      16    6996    6963   -6984   -6999      16
    6990    6963   -6981   -6993      16    6948    6942   -6960   -6978      16
    6936    6969   -6957   -6975      16    6933    6969   -6951   -6972      16
    6930    6960   -6948   -6966      16    6921    6951   -6933   -6954      16
    6918    6942   -6927   -6945      16    7182    7188   -7203   -7221      16
    7176    7203   -7188   -7209      16    7173    7203   -7182   -7206      16
    7188    7155   -7176   -7191      16    7182    7155   -7173   -7185      16
    7140    7134   -7152   -7170      16    7128    7161   -7149   -7167      16
    7125    7161   -7143   -7164      16    7122    7152   -7140   -7158      16
    7113    7143   -7125   -7146      16    7110    7134   -7119   -7137      16
    7374    7380   -7395   -7413      16    7368    7395   -7380   -7401      16
    7365    7395   -7374   -7398      16    7380    7347   -7368   -7383      16
    7374    7347   -7365   -7377      16    7332    7326   -7344   -7362      16
    7320    7353   -7341   -7359      16    7317    7353   -7335   -7356      16
    7314    7344   -7332   -7350      16    7305    7335   -7317   -7338      16
    7302    7326   -7311   -7329      16    7566    7572   -7587   -7605      16
    7560    7587   -7572   -7593      16    7557    7587   -7566   -7590      16
    7572    7539   -7560   -7575      16    7566    7539   -7557   -7569      16
    7524    7518   -7536   -7554      16    7512    7545   -7533   -7551      16
    7509    7545   -7527   -7548      16    7506    7536   -7524   -7542      16
    7497    7527   -7509   -7530      16    7494    7518   -7503   -7521      16
    7758    7764   -7779   -7797      16    7752    7779   -7764   -7785      16
    7749    7779   -7758   -7782      16    7764    7731   -7752   -7767      16
    7758    7731   -7749   -7761      16    7716    7710   -7728   -7746      16
    7704    7737   -7725   -7743      16    7701    7737   -7719   -7740      16
    7698    7728   -7716   -7734      16    7689    7719   -7701   -7722      16
    7686    7710   -7695   -7713      16    7950    7956   -7971   -7989      16
    7944    7971   -7956   -7977      16    7941    7971   -7950   -7974      16
    7956    7923   -7944   -7959      16    7950    7923   -7941   -7953      16
    7908    7902   -7920   -7938      16    7896    7929   -7917   -7935      16
    7893    7929   -7911   -7932      16    7890    7920   -7908   -7926      16
    7881    7911   -7893   -7914      16    7878    7902   -7887   -7905      16
    8142    8148   -8163   -8181      16    8136    8163   -8148   -8169      16
    8133    8163   -8142   -8166      16    8148    8115   -8136   -8151      16
    8142    8115   -8133   -8145      16    8100    8094   -8112   -8130      16
    8088    8121   -8109   -8127      16    8085    8121   -8103   -8124      16
    8082    8112   -8100   -8118      16    8073    8103   -8085   -8106      16
    8070    8094   -8079   -8097      16    8334    8340   -8355   -8373      16
    8328    8355   -8340   -8361      16    8325    8355   -8334   -8358      16
    8340    8307   -8328   -8343      16    8334    8307   -8325   -8337      16
    8292    8286   -8304   -8322      16    8280    8313   -8301   -8319      16
    8277    8313   -8295   -8316      16    8274    8304   -8292   -8310      16
    8265    8295   -8277   -8298      16    8262    8286   -8271   -8289      16
    8526    8532   -8547   -8565      16    8520    8547   -8532   -8553      16
    8517    8547   -8526   -8550      16    8532    8499   -8520   -8535      16
    8526    8499   -8517   -8529      16    8484    8478   -8496   -8514      16
    8472    8505   -8493   -8511      16    8469    8505   -8487   -8508      16
    8466    8496   -8484   -8502      16    8457    8487   -8469   -8490      16
    8454    8478   -8463   -8481      16    8718    8724   -8739   -8757      16
    8712    8739   -8724   -8745      16    8709    8739   -8718   -8742      16
    8724    8691   -8712   -8727      16    8718    8691   -8709   -8721      16
    8676    8670   -8688   -8706      16    8664    8697   -8685   -8703      16
    8661    8697   -8679   -8700      16    8658    8688   -8676   -8694      16
    8649    8679   -8661   -8682      16    8646    8670   -8655   -8673      16
    8910    8916   -8931   -8949      16    8904    8931   -8916   -8937      16
    8901    8931   -8910   -8934      16    8916    8883   -8904   -8919      16
    8910    8883   -8901   -8913      16    8868    8862   -8880   -8898      16
    8856    8889   -8877   -8895      16    8853    8889   -8871   -8892      16
    8850    8880   -8868   -8886      16    8841    8871   -8853   -8874      16
    8838    8862   -8847   -8865      16    9102    9108   -9123   -9141      16
    9096    9123   -9108   -9129      16    9093    9123   -9102   -9126      16
    9108    9075   -9096   -9111      16    9102    9075   -9093   -9105      16
    9060    9054   -9072   -9090      16    9048    9081   -9069   -9087      16
    9045    9081   -9063   -9084      16    9042    9072   -9060   -9078      16
    9033    9063   -9045   -9066      16    9030    9054   -9039   -9057      16
    9294    9300   -9315   -9333      16    9288    9315   -9300   -9321      16
    9285    9315   -9294   -9318      16    9300    9267   -9288   -9303      16
    9294    9267   -9285   -9297      16    9252    9246   -9264   -9282      16
    9240    9273   -9261   -9279      16    9237    9273   -9255   -9276      16
    9234    9264   -9252   -9270      16    9225    9255   -9237   -9258      16
    9222    9246   -9231   -9249      16    9486    9492   -9507   -9525      16
    9480    9507   -9492   -9513      16    9477    9507   -9486   -9510      16
    9492    9459   -9480   -9495      16    9486    9459   -9477   -9489      16
    9444    9438   -9456   -9474      16    9432    9465   -9453   -9471      16
    9429    9465   -9447   -9468      16    9426    9456   -9444   -9462      16
    9417    9447   -9429   -9450      16    9414    9438   -9423   -9441      16
    9678    9684   -9699   -9717      16    9672    9699   -9684   -9705      16
    9669    9699   -9678   -9702      16    9684    9651   -9672   -9687      16
    9678    9651   -9669   -9681      16    9636    9630   -9648   -9666      16
    9624    9657   -9645   -9663      16    9621    9657   -9639   -9660      16
    9618    9648   -9636   -9654      16    9609    9639   -9621   -9642      16
    9606    9630   -9615   -9633      16    9870    9876   -9891   -9909      16
    9864    9891   -9876   -9897      16    9861    9891   -9870   -9894      16
    9876    9843   -9864   -9879      16    9870    9843   -9861   -9873      16
    9828    9822   -9840   -9858      16    9816    9849   -9837   -9855      16
    9813    9849   -9831   -9852      16    9810    9840   -9828   -9846      16
    9801    9831   -9813   -9834      16    9798    9822   -9807   -9825      16
   10062   10068  -10083  -10101      16   10056   10083  -10068  -10089      16
   10053   10083  -10062  -10086      16   10068   10035  -10056  -10071      16
   10062   10035  -10053  -10065      16   10020   10014  -10032  -10050      16
   10008   10041  -10029  -10047      16   10005   10041  -10023  -10044      16
   10002   10032  -10020  -10038      16    9993   10023  -10005  -10026      16
    9990   10014   -9999  -10017      16   10254   10260  -10275  -10293      16
   10248   10275  -10260  -10281      16   10245   10275  -10254  -10278      16
   10260   10227  -10248  -10263      16   10254   10227  -10245  -10257      16
   10212   10206  -10224  -10242      16   10200   10233  -10221  -10239      16
   10197   10233  -10215  -10236      16   10194   10224  -10212  -10230      16
   10185   10215  -10197  -10218      16   10182   10206  -10191  -10209      16
   10446   10452  -10467  -10485      16   10440   10467  -10452  -10473      16
   10437   10467  -10446  -10470      16   10452   10419  -10440  -10455      16
   10446   10419  -10437  -10449      16   10404   10398  -10416  -10434      16
   10392   10425  -10413  -10431      16   10389   10425  -10407  -10428      16
   10386   10416  -10404  -10422      16   10377   10407  -10389  -10410      16
   10374   10398  -10383  -10401      16   10638   10644  -10659  -10677      16
   10632   10659  -10644  -10665      16   10629   10659  -10638  -10662      16
   10644   10611  -10632  -10647      16   10638   10611  -10629  -10641      16
   10596   10590  -10608  -10626      16   10584   10617  -10605  -10623      16
   10581   10617  -10599  -10620      16   10578   10608  -10596  -10614      16
   10569   10599  -10581  -10602      16   10566   10590  -10575  -10593      16
   10830   10836  -10851  -10869      16   10824   10851  -10836  -10857      16
   10821   10851  -10830  -10854      16   10836   10803  -10824  -10839      16
   10830   10803  -10821  -10833      16   10788   10782  -10800  -10818      16
   10776   10809  -10797  -10815      16   10773   10809  -10791  -10812      16
   10770   10800  -10788  -10806      16   10761   10791  -10773  -10794      16
   10758   10782  -10767  -10785      16   11022   11028  -11043  -11061      16
   11016   11043  -11028  -11049      16   11013   11043  -11022  -11046      16
   11028   10995  -11016  -11031      16   11022   10995  -11013  -11025      16
   10980   10974  -10992  -11010      16   10968   11001  -10989  -11007      16
   10965   11001  -10983  -11004      16   10962   10992  -10980  -10998      16
   10953   10983  -10965  -10986      16   10950   10974  -10959  -10977      16
   11214   11220  -11235  -11253      16   11208   11235  -11220  -11241      16
   11205   11235  -11214  -11238      16   11220   11187  -11208  -11223      16
   11214   11187  -11205  -11217      16   11172   11166  -11184  -11202      16
   11160   11193  -11181  -11199      16   11157   11193  -11175  -11196      16
   11154   11184  -11172  -11190      16   11145   11175  -11157  -11178      16
   11142   11166  -11151  -11169      16   11406   11412  -11427  -11445      16
   11400   11427  -11412  -11433      16   11397   11427  -11406  -11430      16
   11412   11379  -11400  -11415      16   11406   11379  -11397  -11409      16
   11364   11358  -11376  -11394      16   11352   11385  -11373  -11391      16
   11349   11385  -11367  -11388      16   11346   11376  -11364  -11382      16
   11337   11367  -11349  -11370      16   11334   11358  -11343  -11361      16
   11598   11604  -11619  -11637      16   11592   11619  -11604  -11625      16
   11589   11619  -11598  -11622      16   11604   11571  -11592  -11607      16
   11598   11571  -11589  -11601      16   11556   11550  -11568  -11586      16
   11544   11577  -11565  -11583      16   11541   11577  -11559  -11580      16
   11538   11568  -11556  -11574      16   11529   11559  -11541  -11562      16
   11526   11550  -11535  -11553      16   11790   11796  -11811  -11829      16
   11784   11811  -11796  -11817      16   11781   11811  -11790  -11814      16
   11796   11763  -11784  -11799      16   11790   11763  -11781  -11793      16
   11748   11742  -11760  -11778      16   11736   11769  -11757  -11775      16
   11733   11769  -11751  -11772      16   11730   11760  -11748  -11766      16
   11721   11751  -11733  -11754      16   11718   11742  -11727  -11745      16
   11982   11988  -12003  -12021      16   11976   12003  -11988  -12009      16
   11973   12003  -11982  -12006      16   11988   11955  -11976  -11991      16
   11982   11955  -11973  -11985      16   11940   11934  -11952  -11970      16
   11928   11961  -11949  -11967      16   11925   11961  -11943  -11964      16
   11922   11952  -11940  -11958      16   11913   11943  -11925  -11946      16
   11910   11934  -11919  -11937      16   12174   12180  -12195  -12213      16
   12168   12195  -12180  -12201      16   12165   12195  -12174  -12198      16
   12180   12147  -12168  -12183      16   12174   12147  -12165  -12177      16
   12132   12126  -12144  -12162      16   12120   12153  -12141  -12159      16
   12117   12153  -12135  -12156      16   12114   12144  -12132  -12150      16
   12105   12135  -12117  -12138      16   12102   12126  -12111  -12129      16
   12366   12372  -12387  -12405      16   12360   12387  -12372  -12393      16
   12357   12387  -12366  -12390      16   12372   12339  -12360  -12375      16
   12366   12339  -12357  -12369      16   12324   12318  -12336  -12354      16
   12312   12345  -12333  -12351      16   12309   12345  -12327  -12348      16
   12306   12336  -12324  -12342      16   12297   12327  -12309  -12330      16
   12294   12318  -12303  -12321      16   12558   12564  -12579  -12597      16
   12552   12579  -12564  -12585      16   12549   12579  -12558  -12582      16
   12564   12531  -12552  -12567      16   12558   12531  -12549  -12561      16
   12516   12510  -12528  -12546      16   12504   12537  -12525  -12543      16
   12501   12537  -12519  -12540      16   12498   12528  -12516  -12534      16
   12489   12519  -12501  -12522      16   12486   12510  -12495  -12513      16
   12750   12756  -12771  -12789      16   12744   12771  -12756  -12777      16
   12741   12771  -12750  -12774      16   12756   12723  -12744  -12759      16
   12750   12723  -12741  -12753      16   12708   12702  -12720  -12738      16
   12696   12729  -12717  -12735      16   12693   12729  -12711  -12732      16
   12690   12720  -12708  -12726      16   12681   12711  -12693  -12714      16
   12678   12702  -12687  -12705      16   12942   12948  -12963  -12981      16
   12936   12963  -12948  -12969      16   12933   12963  -12942  -12966      16
   12948   12915  -12936  -12951      16   12942   12915  -12933  -12945      16
   12900   12894  -12912  -12930      16   12888   12921  -12909  -12927      16
   12885   12921  -12903  -12924      16   12882   12912  -12900  -12918      16
   12873   12903  -12885  -12906      16   12870   12894  -12879  -12897      16
   13134   13140  -13155  -13173      16   13128   13155  -13140  -13161      16
   13125   13155  -13134  -13158      16   13140   13107  -13128  -13143      16
   13134   13107  -13125  -13137      16   13092   13086  -13104  -13122      16
   13080   13113  -13101  -13119      16   13077   13113  -13095  -13116      16
   13074   13104  -13092  -13110      16   13065   13095  -13077  -13098      16
   13062   13086  -13071  -13089      16   13326   13332  -13347  -13365      16
   13320   13347  -13332  -13353      16   13317   13347  -13326  -13350      16
   13332   13299  -13320  -13335      16   13326   13299  -13317  -13329      16
   13284   13278  -13296  -13314      16   13272   13305  -13293  -13311      16
   13269   13305  -13287  -13308      16   13266   13296  -13284  -13302      16
   13257   13287  -13269  -13290      16   13254   13278  -13263  -13281      16
   13518   13524  -13539  -13557      16   13512   13539  -13524  -13545      16
   13509   13539  -13518  -13542      16   13524   13491  -13512  -13527      16
   13518   13491  -13509  -13521      16   13476   13470  -13488  -13506      16
   13464   13497  -13485  -13503      16   13461   13497  -13479  -13500      16
   13458   13488  -13476  -13494      16   13449   13479  -13461  -13482      16
   13446   13470  -13455  -13473      16   13710   13716  -13731  -13749      16
   13704   13731  -13716  -13737      16   13701   13731  -13710  -13734      16
   13716   13683  -13704  -13719      16   13710   13683  -13701  -13713      16
   13668   13662  -13680  -13698      16   13656   13689  -13677  -13695      16
   13653   13689  -13671  -13692      16   13650   13680  -13668  -13686      16
   13641   13671  -13653  -13674      16   13638   13662  -13647  -13665      16
   13902   13908  -13923  -13941      16   13896   13923  -13908  -13929      16
   13893   13923  -13902  -13926      16   13908   13875  -13896  -13911      16
   13902   13875  -13893  -13905      16   13860   13854  -13872  -13890      16
   13848   13881  -13869  -13887      16   13845   13881  -13863  -13884      16
   13842   13872  -13860  -13878      16   13833   13863  -13845  -13866      16
   13830   13854  -13839  -13857      16   14094   14100  -14115  -14133      16
   14088   14115  -14100  -14121      16   14085   14115  -14094  -14118      16
   14100   14067  -14088  -14103      16   14094   14067  -14085  -14097      16
   14052   14046  -14064  -14082      16   14040   14073  -14061  -14079      16
   14037   14073  -14055  -14076      16   14034   14064  -14052  -14070      16
   14025   14055  -14037  -14058      16   14022   14046  -14031  -14049      16
   14286   14292  -14307  -14325      16   14280   14307  -14292  -14313      16
   14277   14307  -14286  -14310      16   14292   14259  -14280  -14295      16
   14286   14259  -14277  -14289      16   14244   14238  -14256  -14274      16
   14232   14265  -14253  -14271      16   14229   14265  -14247  -14268      16
   14226   14256  -14244  -14262      16   14217   14247  -14229  -14250      16
   14214   14238  -14223  -14241      16   14478   14484  -14499  -14517      16
   14472   14499  -14484  -14505      16   14469   14499  -14478  -14502      16
   14484   14451  -14472  -14487      16   14478   14451  -14469  -14481      16
   14436   14430  -14448  -14466      16   14424   14457  -14445  -14463      16
   14421   14457  -14439  -14460      16   14418   14448  -14436  -14454      16
   14409   14439  -14421  -14442      16   14406   14430  -14415  -14433      16
   14670   14676  -14691  -14709      16   14664   14691  -14676  -14697      16
   14661   14691  -14670  -14694      16   14676   14643  -14664  -14679      16
   14670   14643  -14661  -14673      16   14628   14622  -14640  -14658      16
   14616   14649  -14637  -14655      16   14613   14649  -14631  -14652      16
   14610   14640  -14628  -14646      16   14601   14631  -14613  -14634      16
   14598   14622  -14607  -14625      16   14862   14868  -14883  -14901      16
   14856   14883  -14868  -14889      16   14853   14883  -14862  -14886      16
   14868   14835  -14856  -14871      16   14862   14835  -14853  -14865      16
   14820   14814  -14832  -14850      16   14808   14841  -14829  -14847      16
   14805   14841  -14823  -14844      16   14802   14832  -14820  -14838      16
   14793   14823  -14805  -14826      16   14790   14814  -14799  -14817      16
   15054   15060  -15075  -15093      16   15048   15075  -15060  -15081      16
   15045   15075  -15054  -15078      16   15060   15027  -15048  -15063      16
   15054   15027  -15045  -15057      16   15012   15006  -15024  -15042      16
   15000   15033  -15021  -15039      16   14997   15033  -15015  -15036      16
   14994   15024  -15012  -15030      16   14985   15015  -14997  -15018      16
   14982   15006  -14991  -15009      16   15246   15252  -15267  -15285      16
   15240   15267  -15252  -15273      16   15237   15267  -15246  -15270      16
   15252   15219  -15240  -15255      16   15246   15219  -15237  -15249      16
   15204   15198  -15216  -15234      16   15192   15225  -15213  -15231      16
   15189   15225  -15207  -15228      16   15186   15216  -15204  -15222      16
   15177   15207  -15189  -15210      16   15174   15198  -15183  -15201      16
   15438   15444  -15459  -15477      16   15432   15459  -15444  -15465      16
   15429   15459  -15438  -15462      16   15444   15411  -15432  -15447      16
   15438   15411  -15429  -15441      16   15396   15390  -15408  -15426      16
   15384   15417  -15405  -15423      16   15381   15417  -15399  -15420      16
   15378   15408  -15396  -15414      16   15369   15399  -15381  -15402      16
   15366   15390  -15375  -15393      16   15630   15636  -15651  -15669      16
   15624   15651  -15636  -15657      16   15621   15651  -15630  -15654      16
   15636   15603  -15624  -15639      16   15630   15603  -15621  -15633      16
   15588   15582  -15600  -15618      16   15576   15609  -15597  -15615      16
   15573   15609  -15591  -15612      16   15570   15600  -15588  -15606      16
   15561   15591  -15573  -15594      16   15558   15582  -15567  -15585      16
   15822   15828  -15843  -15861      16   15816   15843  -15828  -15849      16
   15813   15843  -15822  -15846      16   15828   15795  -15816  -15831      16
   15822   15795  -15813  -15825      16   15780   15774  -15792  -15810      16
   15768   15801  -15789  -15807      16   15765   15801  -15783  -15804      16
   15762   15792  -15780  -15798      16   15753   15783  -15765  -15786      16
   15750   15774  -15759  -15777      16   16014   16020  -16035  -16053      16
   16008   16035  -16020  -16041      16   16005   16035  -16014  -16038      16
   16020   15987  -16008  -16023      16   16014   15987  -16005  -16017      16
   15972   15966  -15984  -16002      16   15960   15993  -15981  -15999      16
   15957   15993  -15975  -15996      16   15954   15984  -15972  -15990      16
   15945   15975  -15957  -15978      16   15942   15966  -15951  -15969      16
   16206   16212  -16227  -16245      16   16200   16227  -16212  -16233      16
   16197   16227  -16206  -16230      16   16212   16179  -16200  -16215      16
   16206   16179  -16197  -16209      16   16164   16158  -16176  -16194      16
   16152   16185  -16173  -16191      16   16149   16185  -16167  -16188      16
   16146   16176  -16164  -16182      16   16137   16167  -16149  -16170      16
   16134   16158  -16143  -16161      16   16398   16404  -16419  -16437      16
   16392   16419  -16404  -16425      16   16389   16419  -16398  -16422      16
   16404   16371  -16392  -16407      16   16398   16371  -16389  -16401      16
   16356   16350  -16368  -16386      16   16344   16377  -16365  -16383      16
   16341   16377  -16359  -16380      16   16338   16368  -16356  -16374      16
   16329   16359  -16341  -16362      16   16326   16350  -16335  -16353      16
   16590   16596  -16611  -16629      16   16584   16611  -16596  -16617      16
   16581   16611  -16590  -16614      16   16596   16563  -16584  -16599      16
   16590   16563  -16581  -16593      16   16548   16542  -16560  -16578      16
   16536   16569  -16557  -16575      16   16533   16569  -16551  -16572      16
   16530   16560  -16548  -16566      16   16521   16551  -16533  -16554      16
   16518   16542  -16527  -16545      16   16782   16788  -16803  -16821      16
   16776   16803  -16788  -16809      16   16773   16803  -16782  -16806      16
   16788   16755  -16776  -16791      16   16782   16755  -16773  -16785      16
   16740   16734  -16752  -16770      16   16728   16761  -16749  -16767      16
   16725   16761  -16743  -16764      16   16722   16752  -16740  -16758      16
   16713   16743  -16725  -16746      16   16710   16734  -16719  -16737      16
   16974   16980  -16995  -17013      16   16968   16995  -16980  -17001      16
   16965   16995  -16974  -16998      16   16980   16947  -16968  -16983      16
   16974   16947  -16965  -16977      16   16932   16926  -16944  -16962      16
   16920   16953  -16941  -16959      16   16917   16953  -16935  -16956      16
   16914   16944  -16932  -16950      16   16905   16935  -16917  -16938      16
   16902   16926  -16911  -16929      16   17166   17172  -17187  -17205      16
   17160   17187  -17172  -17193      16   17157   17187  -17166  -17190      16
   17172   17139  -17160  -17175      16   17166   17139  -17157  -17169      16
   17124   17118  -17136  -17154      16   17112   17145  -17133  -17151      16
   17109   17145  -17127  -17148      16   17106   17136  -17124  -17142      16
   17097   17127  -17109  -17130      16   17094   17118  -17103  -17121      16
   17358   17364  -17379  -17397      16   17352   17379  -17364  -17385      16
   17349   17379  -17358  -17382      16   17364   17331  -17352  -17367      16
   17358   17331  -17349  -17361      16   17316   17310  -17328  -17346      16
   17304   17337  -17325  -17343      16   17301   17337  -17319  -17340      16
   17298   17328  -17316  -17334      16   17289   17319  -17301  -17322      16
   17286   17310  -17295  -17313      16   17550   17556  -17571  -17589      16
   17544   17571  -17556  -17577      16   17541   17571  -17550  -17574      16
   17556   17523  -17544  -17559      16   17550   17523  -17541  -17553      16
   17508   17502  -17520  -17538      16   17496   17529  -17517  -17535      16
   17493   17529  -17511  -17532      16   17490   17520  -17508  -17526      16
   17481   17511  -17493  -17514      16   17478   17502  -17487  -17505      16
   17742   17748  -17763  -17781      16   17736   17763  -17748  -17769      16
   17733   17763  -17742  -17766      16   17748   17715  -17736  -17751      16
   17742   17715  -17733  -17745      16   17700   17694  -17712  -17730      16
   17688   17721  -17709  -17727      16   17685   17721  -17703  -17724      16
   17682   17712  -17700  -17718      16   17673   17703  -17685  -17706      16
   17670   17694  -17679  -17697      16   17934   17940  -17955  -17973      16
   17928   17955  -17940  -17961      16   17925   17955  -17934  -17958      16
   17940   17907  -17928  -17943      16   17934   17907  -17925  -17937      16
   17892   17886  -17904  -17922      16   17880   17913  -17901  -17919      16
   17877   17913  -17895  -17916      16   17874   17904  -17892  -17910      16
   17865   17895  -17877  -17898      16   17862   17886  -17871  -17889      16
   18126   18132  -18147  -18165      16   18120   18147  -18132  -18153      16
   18117   18147  -18126  -18150      16   18132   18099  -18120  -18135      16
   18126   18099  -18117  -18129      16   18084   18078  -18096  -18114      16
   18072   18105  -18093  -18111      16   18069   18105  -18087  -18108      16
   18066   18096  -18084  -18102      16   18057   18087  -18069  -18090      16
   18054   18078  -18063  -18081      16   18318   18324  -18339  -18357      16
   18312   18339  -18324  -18345      16   18309   18339  -18318  -18342      16
   18324   18291  -18312  -18327      16   18318   18291  -18309  -18321      16
   18276   18270  -18288  -18306      16   18264   18297  -18285  -18303      16
   18261   18297  -18279  -18300      16   18258   18288  -18276  -18294      16
   18249   18279  -18261  -18282      16   18246   18270  -18255  -18273      16
   18510   18516  -18531  -18549      16   18504   18531  -18516  -18537      16
   18501   18531  -18510  -18534      16   18516   18483  -18504  -18519      16
   18510   18483  -18501  -18513      16   18468   18462  -18480  -18498      16
   18456   18489  -18477  -18495      16   18453   18489  -18471  -18492      16
   18450   18480  -18468  -18486      16   18441   18471  -18453  -18474      16
   18438   18462  -18447  -18465      16   18702   18708  -18723  -18741      16
   18696   18723  -18708  -18729      16   18693   18723  -18702  -18726      16
   18708   18675  -18696  -18711      16   18702   18675  -18693  -18705      16
   18660   18654  -18672  -18690      16   18648   18681  -18669  -18687      16
   18645   18681  -18663  -18684      16   18642   18672  -18660  -18678      16
   18633   18663  -18645  -18666      16   18630   18654  -18639  -18657      16
   18894   18900  -18915  -18933      16   18888   18915  -18900  -18921      16
   18885   18915  -18894  -18918      16   18900   18867  -18888  -18903      16
   18894   18867  -18885  -18897      16   18852   18846  -18864  -18882      16
   18840   18873  -18861  -18879      16   18837   18873  -18855  -18876      16
   18834   18864  -18852  -18870      16   18825   18855  -18837  -18858      16
   18822   18846  -18831  -18849      16   19086   19092  -19107  -19125      16
   19080   19107  -19092  -19113      16   19077   19107  -19086  -19110      16
   19092   19059  -19080  -19095      16   19086   19059  -19077  -19089      16
   19044   19038  -19056  -19074      16   19032   19065  -19053  -19071      16
   19029   19065  -19047  -19068      16   19026   19056  -19044  -19062      16
   19017   19047  -19029  -19050      16   19014   19038  -19023  -19041      16
   19278   19284  -19299  -19317      16   19272   19299  -19284  -19305      16
   19269   19299  -19278  -19302      16   19284   19251  -19272  -19287      16
   19278   19251  -19269  -19281      16   19236   19230  -19248  -19266      16
   19224   19257  -19245  -19263      16   19221   19257  -19239  -19260      16
   19218   19248  -19236  -19254      16   19209   19239  -19221  -19242      16
   19206   19230  -19215  -19233      16   19470   19476  -19491  -19509      16
   19464   19491  -19476  -19497      16   19461   19491  -19470  -19494      16
   19476   19443  -19464  -19479      16   19470   19443  -19461  -19473      16
   19428   19422  -19440  -19458      16   19416   19449  -19437  -19455      16
   19413   19449  -19431  -19452      16   19410   19440  -19428  -19446      16
   19401   19431  -19413  -19434      16   19398   19422  -19407  -19425      16
   19662   19668  -19683  -19701      16   19656   19683  -19668  -19689      16
   19653   19683  -19662  -19686      16   19668   19635  -19656  -19671      16
   19662   19635  -19653  -19665      16   19620   19614  -19632  -19650      16
   19608   19641  -19629  -19647      16   19605   19641  -19623  -19644      16
   19602   19632  -19620  -19638      16   19593   19623  -19605  -19626      16
   19590   19614  -19599  -19617      16   19854   19860  -19875  -19893      16
   19848   19875  -19860  -19881      16   19845   19875  -19854  -19878      16
   19860   19827  -19848  -19863      16   19854   19827  -19845  -19857      16
   19812   19806  -19824  -19842      16   19800   19833  -19821  -19839      16
   19797   19833  -19815  -19836      16   19794   19824  -19812  -19830      16
   19785   19815  -19797  -19818      16   19782   19806  -19791  -19809      16
   20046   20052  -20067  -20085      16   20040   20067  -20052  -20073      16
   20037   20067  -20046  -20070      16   20052   20019  -20040  -20055      16
   20046   20019  -20037  -20049      16   20004   19998  -20016  -20034      16
   19992   20025  -20013  -20031      16   19989   20025  -20007  -20028      16
   19986   20016  -20004  -20022      16   19977   20007  -19989  -20010      16
   19974   19998  -19983  -20001      16   20238   20244  -20259  -20277      16
   20232   20259  -20244  -20265      16   20229   20259  -20238  -20262      16
   20244   20211  -20232  -20247      16   20238   20211  -20229  -20241      16
   20196   20190  -20208  -20226      16   20184   20217  -20205  -20223      16
   20181   20217  -20199  -20220      16   20178   20208  -20196  -20214      16
   20169   20199  -20181  -20202      16   20166   20190  -20175  -20193      16
   20430   20436  -20451  -20469      16   20424   20451  -20436  -20457      16
   20421   20451  -20430  -20454      16   20436   20403  -20424  -20439      16
   20430   20403  -20421  -20433      16   20388   20382  -20400  -20418      16
   20376   20409  -20397  -20415      16   20373   20409  -20391  -20412      16
   20370   20400  -20388  -20406      16   20361   20391  -20373  -20394      16
   20358   20382  -20367  -20385      16   20622   20628  -20643  -20661      16
   20616   20643  -20628  -20649      16   20613   20643  -20622  -20646      16
   20628   20595  -20616  -20631      16   20622   20595  -20613  -20625      16
   20580   20574  -20592  -20610      16   20568   20601  -20589  -20607      16
   20565   20601  -20583  -20604      16   20562   20592  -20580  -20598      16
   20553   20583  -20565  -20586      16   20550   20574  -20559  -20577      16
   20814   20820  -20835  -20853      16   20808   20835  -20820  -20841      16
   20805   20835  -20814  -20838      16   20820   20787  -20808  -20823      16
   20814   20787  -20805  -20817      16   20772   20766  -20784  -20802      16
   20760   20793  -20781  -20799      16   20757   20793  -20775  -20796      16
   20754   20784  -20772  -20790      16   20745   20775  -20757  -20778      16
   20742   20766  -20751  -20769      16   21006   21012  -21027  -21045      16
   21000   21027  -21012  -21033      16   20997   21027  -21006  -21030      16
   21012   20979  -21000  -21015      16   21006   20979  -20997  -21009      16
   20964   20958  -20976  -20994      16   20952   20985  -20973  -20991      16
   20949   20985  -20967  -20988      16   20946   20976  -20964  -20982      16
   20937   20967  -20949  -20970      16   20934   20958  -20943  -20961      16
   21198   21204  -21219  -21237      16   21192   21219  -21204  -21225      16
   21189   21219  -21198  -21222      16   21204   21171  -21192  -21207      16
   21198   21171  -21189  -21201      16   21156   21150  -21168  -21186      16
   21144   21177  -21165  -21183      16   21141   21177  -21159  -21180      16
   21138   21168  -21156  -21174      16   21129   21159  -21141  -21162      16
   21126   21150  -21135  -21153      16   21390   21396  -21411  -21429      16
   21384   21411  -21396  -21417      16   21381   21411  -21390  -21414      16
   21396   21363  -21384  -21399      16   21390   21363  -21381  -21393      16
   21348   21342  -21360  -21378      16   21336   21369  -21357  -21375      16
   21333   21369  -21351  -21372      16   21330   21360  -21348  -21366      16
   21321   21351  -21333  -21354      16   21318   21342  -21327  -21345      16
   21582   21588  -21603  -21621      16   21576   21603  -21588  -21609      16
   21573   21603  -21582  -21606      16   21588   21555  -21576  -21591      16
   21582   21555  -21573  -21585      16   21540   21534  -21552  -21570      16
   21528   21561  -21549  -21567      16   21525   21561  -21543  -21564      16
   21522   21552  -21540  -21558      16   21513   21543  -21525  -21546      16
   21510   21534  -21519  -21537      16   21774   21780  -21795  -21813      16
   21768   21795  -21780  -21801      16   21765   21795  -21774  -21798      16
   21780   21747  -21768  -21783      16   21774   21747  -21765  -21777      16
   21732   21726  -21744  -21762      16   21720   21753  -21741  -21759      16
   21717   21753  -21735  -21756      16   21714   21744  -21732  -21750      16
   21705   21735  -21717  -21738      16   21702   21726  -21711  -21729      16
   21966   21972  -21987  -22005      16   21960   21987  -21972  -21993      16
   21957   21987  -21966  -21990      16   21972   21939  -21960  -21975      16
   21966   21939  -21957  -21969      16   21924   21918  -21936  -21954      16
   21912   21945  -21933  -21951      16   21909   21945  -21927  -21948      16
   21906   21936  -21924  -21942      16   21897   21927  -21909  -21930      16
   21894   21918  -21903  -21921      16   22158   22164  -22179  -22197      16
   22152   22179  -22164  -22185      16   22149   22179  -22158  -22182      16
   22164   22131  -22152  -22167      16   22158   22131  -22149  -22161      16
   22116   22110  -22128  -22146      16   22104   22137  -22125  -22143      16
   22101   22137  -22119  -22140      16   22098   22128  -22116  -22134      16
   22089   22119  -22101  -22122      16   22086   22110  -22095  -22113      16
   22350   22356  -22371  -22389      16   22344   22371  -22356  -22377      16
   22341   22371  -22350  -22374      16   22356   22323  -22344  -22359      16
   22350   22323  -22341  -22353      16   22308   22302  -22320  -22338      16
   22296   22329  -22317  -22335      16   22293   22329  -22311  -22332      16
   22290   22320  -22308  -22326      16   22281   22311  -22293  -22314      16
   22278   22302  -22287  -22305      16   22542   22548  -22563  -22581      16
   22536   22563  -22548  -22569      16   22533   22563  -22542  -22566      16
   22548   22515  -22536  -22551      16   22542   22515  -22533  -22545      16
   22500   22494  -22512  -22530      16   22488   22521  -22509  -22527      16
   22485   22521  -22503  -22524      16   22482   22512  -22500  -22518      16
   22473   22503  -22485  -22506      16   22470   22494  -22479  -22497      16
   22734   22740  -22755  -22773      16   22728   22755  -22740  -22761      16
   22725   22755  -22734  -22758      16   22740   22707  -22728  -22743      16
   22734   22707  -22725  -22737      16   22692   22686  -22704  -22722      16
   22680   22713  -22701  -22719      16   22677   22713  -22695  -22716      16
   22674   22704  -22692  -22710      16   22665   22695  -22677  -22698      16
   22662   22686  -22671  -22689      16   22926   22932  -22947  -22965      16
   22920   22947  -22932  -22953      16   22917   22947  -22926  -22950      16
   22932   22899  -22920  -22935      16   22926   22899  -22917  -22929      16
   22884   22878  -22896  -22914      16   22872   22905  -22893  -22911      16
   22869   22905  -22887  -22908      16   22866   22896  -22884  -22902      16
   22857   22887  -22869  -22890      16   22854   22878  -22863  -22881      16
   23118   23124  -23139  -23157      16   23112   23139  -23124  -23145      16
   23109   23139  -23118  -23142      16   23124   23091  -23112  -23127      16
   23118   23091  -23109  -23121      16   23076   23070  -23088  -23106      16
   23064   23097  -23085  -23103      16   23061   23097  -23079  -23100      16
   23058   23088  -23076  -23094      16   23049   23079  -23061  -23082      16
   23046   23070  -23055  -23073      16   23310   23316  -23331  -23349      16
   23304   23331  -23316  -23337      16   23301   23331  -23310  -23334      16
   23316   23283  -23304  -23319      16   23310   23283  -23301  -23313      16
   23268   23262  -23280  -23298      16   23256   23289  -23277  -23295      16
   23253   23289  -23271  -23292      16   23250   23280  -23268  -23286      16
   23241   23271  -23253  -23274      16   23238   23262  -23247  -23265      16
   23502   23508  -23523  -23541      16   23496   23523  -23508  -23529      16
   23493   23523  -23502  -23526      16   23508   23475  -23496  -23511      16
   23502   23475  -23493  -23505      16   23460   23454  -23472  -23490      16
   23448   23481  -23469  -23487      16   23445   23481  -23463  -23484      16
   23442   23472  -23460  -23478      16   23433   23463  -23445  -23466      16
   23430   23454  -23439  -23457      16   23694   23700  -23715  -23733      16
   23688   23715  -23700  -23721      16   23685   23715  -23694  -23718      16
   23700   23667  -23688  -23703      16   23694   23667  -23685  -23697      16
   23652   23646  -23664  -23682      16   23640   23673  -23661  -23679      16
   23637   23673  -23655  -23676      16   23634   23664  -23652  -23670      16
   23625   23655  -23637  -23658      16   23622   23646  -23631  -23649      16
   23886   23892  -23907  -23925      16   23880   23907  -23892  -23913      16
   23877   23907  -23886  -23910      16   23892   23859  -23880  -23895      16
   23886   23859  -23877  -23889      16   23844   23838  -23856  -23874      16
   23832   23865  -23853  -23871      16   23829   23865  -23847  -23868      16
   23826   23856  -23844  -23862      16   23817   23847  -23829  -23850      16
   23814   23838  -23823  -23841      16   24078   24084  -24099  -24117      16
   24072   24099  -24084  -24105      16   24069   24099  -24078  -24102      16
   24084   24051  -24072  -24087      16   24078   24051  -24069  -24081      16
   24036   24030  -24048  -24066      16   24024   24057  -24045  -24063      16
   24021   24057  -24039  -24060      16   24018   24048  -24036  -24054      16
   24009   24039  -24021  -24042      16   24006   24030  -24015  -24033      16
   24270   24276  -24291  -24309      16   24264   24291  -24276  -24297      16
   24261   24291  -24270  -24294      16   24276   24243  -24264  -24279      16
   24270   24243  -24261  -24273      16   24228   24222  -24240  -24258      16
   24216   24249  -24237  -24255      16   24213   24249  -24231  -24252      16
   24210   24240  -24228  -24246      16   24201   24231  -24213  -24234      16
   24198   24222  -24207  -24225      16   24462   24468  -24483  -24501      16
   24456   24483  -24468  -24489      16   24453   24483  -24462  -24486      16
   24468   24435  -24456  -24471      16   24462   24435  -24453  -24465      16
   24420   24414  -24432  -24450      16   24408   24441  -24429  -24447      16
   24405   24441  -24423  -24444      16   24402   24432  -24420  -24438      16
   24393   24423  -24405  -24426      16   24390   24414  -24399  -24417      16
   24654   24660  -24675  -24693      16   24648   24675  -24660  -24681      16
   24645   24675  -24654  -24678      16   24660   24627  -24648  -24663      16
   24654   24627  -24645  -24657      16   24612   24606  -24624  -24642      16
   24600   24633  -24621  -24639      16   24597   24633  -24615  -24636      16
   24594   24624  -24612  -24630      16   24585   24615  -24597  -24618      16
   24582   24606  -24591  -24609      16   24846   24852  -24867  -24885      16
   24840   24867  -24852  -24873      16   24837   24867  -24846  -24870      16
   24852   24819  -24840  -24855      16   24846   24819  -24837  -24849      16
   24804   24798  -24816  -24834      16   24792   24825  -24813  -24831      16
   24789   24825  -24807  -24828      16   24786   24816  -24804  -24822      16
   24777   24807  -24789  -24810      16   24774   24798  -24783  -24801      16
   25038   25044  -25059  -25077      16   25032   25059  -25044  -25065      16
   25029   25059  -25038  -25062      16   25044   25011  -25032  -25047      16
   25038   25011  -25029  -25041      16   24996   24990  -25008  -25026      16
   24984   25017  -25005  -25023      16   24981   25017  -24999  -25020      16
   24978   25008  -24996  -25014      16   24969   24999  -24981  -25002      16
   24966   24990  -24975  -24993      16   25230   25236  -25251  -25269      16
   25224   25251  -25236  -25257      16   25221   25251  -25230  -25254      16
   25236   25203  -25224  -25239      16   25230   25203  -25221  -25233      16
   25188   25182  -25200  -25218      16   25176   25209  -25197  -25215      16
   25173   25209  -25191  -25212      16   25170   25200  -25188  -25206      16
   25161   25191  -25173  -25194      16   25158   25182  -25167  -25185      16
   25422   25428  -25443  -25461      16   25416   25443  -25428  -25449      16
   25413   25443  -25422  -25446      16   25428   25395  -25416  -25431      16
   25422   25395  -25413  -25425      16   25380   25374  -25392  -25410      16
   25368   25401  -25389  -25407      16   25365   25401  -25383  -25404      16
   25362   25392  -25380  -25398      16   25353   25383  -25365  -25386      16
   25350   25374  -25359  -25377      16   25614   25620  -25635  -25653      16
   25608   25635  -25620  -25641      16   25605   25635  -25614  -25638      16
   25620   25587  -25608  -25623      16   25614   25587  -25605  -25617      16
   25572   25566  -25584  -25602      16   25560   25593  -25581  -25599      16
   25557   25593  -25575  -25596      16   25554   25584  -25572  -25590      16
   25545   25575  -25557  -25578      16   25542   25566  -25551  -25569      16
   25806   25812  -25827  -25845      16   25800   25827  -25812  -25833      16
   25797   25827  -25806  -25830      16   25812   25779  -25800  -25815      16
   25806   25779  -25797  -25809      16   25764   25758  -25776  -25794      16
   25752   25785  -25773  -25791      16   25749   25785  -25767  -25788      16
   25746   25776  -25764  -25782      16   25737   25767  -25749  -25770      16
   25734   25758  -25743  -25761      16   25998   26004  -26019  -26037      16
   25992   26019  -26004  -26025      16   25989   26019  -25998  -26022      16
   26004   25971  -25992  -26007      16   25998   25971  -25989  -26001      16
   25956   25950  -25968  -25986      16   25944   25977  -25965  -25983      16
   25941   25977  -25959  -25980      16   25938   25968  -25956  -25974      16
   25929   25959  -25941  -25962      16   25926   25950  -25935  -25953      16
   26190   26196  -26211  -26229      16   26184   26211  -26196  -26217      16
   26181   26211  -26190  -26214      16   26196   26163  -26184  -26199      16
   26190   26163  -26181  -26193      16   26148   26142  -26160  -26178      16
   26136   26169  -26157  -26175      16   26133   26169  -26151  -26172      16
   26130   26160  -26148  -26166      16   26121   26151  -26133  -26154      16
   26118   26142  -26127  -26145      16   26382   26388  -26403  -26421      16
   26376   26403  -26388  -26409      16   26373   26403  -26382  -26406      16
   26388   26355  -26376  -26391      16   26382   26355  -26373  -26385      16
   26340   26334  -26352  -26370      16   26328   26361  -26349  -26367      16
   26325   26361  -26343  -26364      16   26322   26352  -26340  -26358      16
   26313   26343  -26325  -26346      16   26310   26334  -26319  -26337      16
   26574   26580  -26595  -26613      16   26568   26595  -26580  -26601      16
   26565   26595  -26574  -26598      16   26580   26547  -26568  -26583      16
   26574   26547  -26565  -26577      16   26532   26526  -26544  -26562      16
   26520   26553  -26541  -26559      16   26517   26553  -26535  -26556      16
   26514   26544  -26532  -26550      16   26505   26535  -26517  -26538      16
   26502   26526  -26511  -26529      16   26766   26772  -26787  -26805      16
   26760   26787  -26772  -26793      16   26757   26787  -26766  -26790      16
   26772   26739  -26760  -26775      16   26766   26739  -26757  -26769      16
   26724   26718  -26736  -26754      16   26712   26745  -26733  -26751      16
   26709   26745  -26727  -26748      16   26706   26736  -26724  -26742      16
   26697   26727  -26709  -26730      16   26694   26718  -26703  -26721      16
   26958   26964  -26979  -26997      16   26952   26979  -26964  -26985      16
   26949   26979  -26958  -26982      16   26964   26931  -26952  -26967      16
   26958   26931  -26949  -26961      16   26916   26910  -26928  -26946      16
   26904   26937  -26925  -26943      16   26901   26937  -26919  -26940      16
   26898   26928  -26916  -26934      16   26889   26919  -26901  -26922      16
   26886   26910  -26895  -26913      16   27150   27156  -27171  -27189      16
   27144   27171  -27156  -27177      16   27141   27171  -27150  -27174      16
   27156   27123  -27144  -27159      16   27150   27123  -27141  -27153      16
   27108   27102  -27120  -27138      16   27096   27129  -27117  -27135      16
   27093   27129  -27111  -27132      16   27090   27120  -27108  -27126      16
   27081   27111  -27093  -27114      16   27078   27102  -27087  -27105      16
   27342   27348  -27363  -27381      16   27336   27363  -27348  -27369      16
   27333   27363  -27342  -27366      16   27348   27315  -27336  -27351      16
   27342   27315  -27333  -27345      16   27300   27294  -27312  -27330      16
   27288   27321  -27309  -27327      16   27285   27321  -27303  -27324      16
   27282   27312  -27300  -27318      16   27273   27303  -27285  -27306      16
   27270   27294  -27279  -27297      16   27534   27540  -27555  -27573      16
   27528   27555  -27540  -27561      16   27525   27555  -27534  -27558      16
   27540   27507  -27528  -27543      16   27534   27507  -27525  -27537      16
   27492   27486  -27504  -27522      16   27480   27513  -27501  -27519      16
   27477   27513  -27495  -27516      16   27474   27504  -27492  -27510      16
   27465   27495  -27477  -27498      16   27462   27486  -27471  -27489      16
   27726   27732  -27747  -27765      16   27720   27747  -27732  -27753      16
   27717   27747  -27726  -27750      16   27732   27699  -27720  -27735      16
   27726   27699  -27717  -27729      16   27684   27678  -27696  -27714      16
   27672   27705  -27693  -27711      16   27669   27705  -27687  -27708      16
   27666   27696  -27684  -27702      16   27657   27687  -27669  -27690      16
   27654   27678  -27663  -27681      16   27918   27924  -27939  -27957      16
   27912   27939  -27924  -27945      16   27909   27939  -27918  -27942      16
   27924   27891  -27912  -27927      16   27918   27891  -27909  -27921      16
   27876   27870  -27888  -27906      16   27864   27897  -27885  -27903      16
   27861   27897  -27879  -27900      16   27858   27888  -27876  -27894      16
   27849   27879  -27861  -27882      16   27846   27870  -27855  -27873      16
   28110   28116  -28131  -28149      16   28104   28131  -28116  -28137      16
   28101   28131  -28110  -28134      16   28116   28083  -28104  -28119      16
   28110   28083  -28101  -28113      16   28068   28062  -28080  -28098      16
   28056   28089  -28077  -28095      16   28053   28089  -28071  -28092      16
   28050   28080  -28068  -28086      16   28041   28071  -28053  -28074      16
   28038   28062  -28047  -28065      16   28302   28308  -28323  -28341      16
   28296   28323  -28308  -28329      16   28293   28323  -28302  -28326      16
   28308   28275  -28296  -28311      16   28302   28275  -28293  -28305      16
   28260   28254  -28272  -28290      16   28248   28281  -28269  -28287      16
   28245   28281  -28263  -28284      16   28242   28272  -28260  -28278      16
   28233   28263  -28245  -28266      16   28230   28254  -28239  -28257      16
   28494   28500  -28515  -28533      16   28488   28515  -28500  -28521      16
   28485   28515  -28494  -28518      16   28500   28467  -28488  -28503      16
   28494   28467  -28485  -28497      16   28452   28446  -28464  -28482      16
   28440   28473  -28461  -28479      16   28437   28473  -28455  -28476      16
   28434   28464  -28452  -28470      16   28425   28455  -28437  -28458      16
   28422   28446  -28431  -28449      16   28686   28692  -28707  -28725      16
   28680   28707  -28692  -28713      16   28677   28707  -28686  -28710      16
   28692   28659  -28680  -28695      16   28686   28659  -28677  -28689      16
   28644   28638  -28656  -28674      16   28632   28665  -28653  -28671      16
   28629   28665  -28647  -28668      16   28626   28656  -28644  -28662      16
   28617   28647  -28629  -28650      16   28614   28638  -28623  -28641      16
   28878   28884  -28899  -28917      16   28872   28899  -28884  -28905      16
   28869   28899  -28878  -28902      16   28884   28851  -28872  -28887      16
   28878   28851  -28869  -28881      16   28836   28830  -28848  -28866      16
   28824   28857  -28845  -28863      16   28821   28857  -28839  -28860      16
   28818   28848  -28836  -28854      16   28809   28839  -28821  -28842      16
   28806   28830  -28815  -28833      16   29070   29076  -29091  -29109      16
   29064   29091  -29076  -29097      16   29061   29091  -29070  -29094      16
   29076   29043  -29064  -29079      16   29070   29043  -29061  -29073      16
   29028   29022  -29040  -29058      16   29016   29049  -29037  -29055      16
   29013   29049  -29031  -29052      16   29010   29040  -29028  -29046      16
   29001   29031  -29013  -29034      16   28998   29022  -29007  -29025      16
   29262   29268  -29283  -29301      16   29256   29283  -29268  -29289      16
   29253   29283  -29262  -29286      16   29268   29235  -29256  -29271      16
   29262   29235  -29253  -29265      16   29220   29214  -29232  -29250      16
   29208   29241  -29229  -29247      16   29205   29241  -29223  -29244      16
   29202   29232  -29220  -29238      16   29193   29223  -29205  -29226      16
   29190   29214  -29199  -29217      16   29454   29460  -29475  -29493      16
   29448   29475  -29460  -29481      16   29445   29475  -29454  -29478      16
   29460   29427  -29448  -29463      16   29454   29427  -29445  -29457      16
   29412   29406  -29424  -29442      16   29400   29433  -29421  -29439      16
   29397   29433  -29415  -29436      16   29394   29424  -29412  -29430      16
   29385   29415  -29397  -29418      16   29382   29406  -29391  -29409      16
   29646   29652  -29667  -29685      16   29640   29667  -29652  -29673      16
   29637   29667  -29646  -29670      16   29652   29619  -29640  -29655      16
   29646   29619  -29637  -29649      16   29604   29598  -29616  -29634      16
   29592   29625  -29613  -29631      16   29589   29625  -29607  -29628      16
   29586   29616  -29604  -29622      16   29577   29607  -29589  -29610      16
   29574   29598  -29583  -29601      16   29838   29844  -29859  -29877      16
   29832   29859  -29844  -29865      16   29829   29859  -29838  -29862      16
   29844   29811  -29832  -29847      16   29838   29811  -29829  -29841      16
   29796   29790  -29808  -29826      16   29784   29817  -29805  -29823      16
   29781   29817  -29799  -29820      16   29778   29808  -29796  -29814      16
   29769   29799  -29781  -29802      16   29766   29790  -29775  -29793      16
   30030   30036  -30051  -30069      16   30024   30051  -30036  -30057      16
   30021   30051  -30030  -30054      16   30036   30003  -30024  -30039      16
   30030   30003  -30021  -30033      16   29988   29982  -30000  -30018      16
   29976   30009  -29997  -30015      16   29973   30009  -29991  -30012      16
   29970   30000  -29988  -30006      16   29961   29991  -29973  -29994      16
   29958   29982  -29967  -29985      16   30222   30228  -30243  -30261      16
   30216   30243  -30228  -30249      16   30213   30243  -30222  -30246      16
   30228   30195  -30216  -30231      16   30222   30195  -30213  -30225      16
   30180   30174  -30192  -30210      16   30168   30201  -30189  -30207      16
   30165   30201  -30183  -30204      16   30162   30192  -30180  -30198      16
   30153   30183  -30165  -30186      16   30150   30174  -30159  -30177      16
   30414   30420  -30435  -30453      16   30408   30435  -30420  -30441      16
   30405   30435  -30414  -30438      16   30420   30387  -30408  -30423      16
   30414   30387  -30405  -30417      16   30372   30366  -30384  -30402      16
   30360   30393  -30381  -30399      16   30357   30393  -30375  -30396      16
   30354   30384  -30372  -30390      16   30345   30375  -30357  -30378      16
   30342   30366  -30351  -30369      16   30606   30612  -30627  -30645      16
   30600   30627  -30612  -30633      16   30597   30627  -30606  -30630      16
   30612   30579  -30600  -30615      16   30606   30579  -30597  -30609      16
   30564   30558  -30576  -30594      16   30552   30585  -30573  -30591      16
   30549   30585  -30567  -30588      16   30546   30576  -30564  -30582      16
   30537   30567  -30549  -30570      16   30534   30558  -30543  -30561      16
   30798   30804  -30819  -30837      16   30792   30819  -30804  -30825      16
   30789   30819  -30798  -30822      16   30804   30771  -30792  -30807      16
   30798   30771  -30789  -30801      16   30756   30750  -30768  -30786      16
   30744   30777  -30765  -30783      16   30741   30777  -30759  -30780      16
   30738   30768  -30756  -30774      16   30729   30759  -30741  -30762      16
   30726   30750  -30735  -30753      16   30990   30996  -31011  -31029      16
   30984   31011  -30996  -31017      16   30981   31011  -30990  -31014      16
   30996   30963  -30984  -30999      16   30990   30963  -30981  -30993      16
   30948   30942  -30960  -30978      16   30936   30969  -30957  -30975      16
   30933   30969  -30951  -30972      16   30930   30960  -30948  -30966      16
   30921   30951  -30933  -30954      16   30918   30942  -30927  -30945      16
   31182   31188  -31203  -31221      16   31176   31203  -31188  -31209      16
   31173   31203  -31182  -31206      16   31188   31155  -31176  -31191      16
   31182   31155  -31173  -31185      16   31140   31134  -31152  -31170      16
   31128   31161  -31149  -31167      16   31125   31161  -31143  -31164      16
   31122   31152  -31140  -31158      16   31113   31143  -31125  -31146      16
   31110   31134  -31119  -31137      16   31374   31380  -31395  -31413      16
   31368   31395  -31380  -31401      16   31365   31395  -31374  -31398      16
   31380   31347  -31368  -31383      16   31374   31347  -31365  -31377      16
   31332   31326  -31344  -31362      16   31320   31353  -31341  -31359      16
   31317   31353  -31335  -31356      16   31314   31344  -31332  -31350      16
   31305   31335  -31317  -31338      16   31302   31326  -31311  -31329      16
   31566   31572  -31587  -31605      16   31560   31587  -31572  -31593      16
   31557   31587  -31566  -31590      16   31572   31539  -31560  -31575      16
   31566   31539  -31557  -31569      16   31524   31518  -31536  -31554      16
   31512   31545  -31533  -31551      16   31509   31545  -31527  -31548      16
   31506   31536  -31524  -31542      16   31497   31527  -31509  -31530      16
   31494   31518  -31503  -31521      16   31758   31764  -31779  -31797      16
   31752   31779  -31764  -31785      16   31749   31779  -31758  -31782      16
   31764   31731  -31752  -31767      16   31758   31731  -31749  -31761      16
   31716   31710  -31728  -31746      16   31704   31737  -31725  -31743      16
   31701   31737  -31719  -31740      16   31698   31728  -31716  -31734      16
   31689   31719  -31701  -31722      16   31686   31710  -31695  -31713      16
   31950   31956  -31971  -31989      16   31944   31971  -31956  -31977      16
   31941   31971  -31950  -31974      16   31956   31923  -31944  -31959      16
   31950   31923  -31941  -31953      16   31908   31902  -31920  -31938      16
   31896   31929  -31917  -31935      16   31893   31929  -31911  -31932      16
   31890   31920  -31908  -31926      16   31881   31911  -31893  -31914      16
   31878   31902  -31887  -31905      16   32142   32148  -32163  -32181      16
   32136   32163  -32148  -32169      16   32133   32163  -32142  -32166      16
   32148   32115  -32136  -32151      16   32142   32115  -32133  -32145      16
   32100   32094  -32112  -32130      16   32088   32121  -32109  -32127      16
   32085   32121  -32103  -32124      16   32082   32112  -32100  -32118      16
   32073   32103  -32085  -32106      16   32070   32094  -32079  -32097      16
   32334   32340  -32355  -32373      16   32328   32355  -32340  -32361      16
   32325   32355  -32334  -32358      16   32340   32307  -32328  -32343      16
   32334   32307  -32325  -32337      16   32292   32286  -32304  -32322      16
   32280   32313  -32301  -32319      16   32277   32313  -32295  -32316      16
   32274   32304  -32292  -32310      16   32265   32295  -32277  -32298      16
   32262   32286  -32271  -32289      16   32526   32532  -32547  -32565      16
   32520   32547  -32532  -32553      16   32517   32547  -32526  -32550      16
   32532   32499  -32520  -32535      16   32526   32499  -32517  -32529      16
   32484   32478  -32496  -32514      16   32472   32505  -32493  -32511      16
   32469   32505  -32487  -32508      16   32466   32496  -32484  -32502      16
   32457   32487  -32469  -32490      16   32454   32478  -32463  -32481      16
   32718   32724  -32739  -32757      16   32712   32739  -32724  -32745      16
   32709   32739  -32718  -32742      16   32724   32691  -32712  -32727      16
   32718   32691  -32709  -32721      16   32676   32670  -32688  -32706      16
   32664   32697  -32685  -32703      16   32661   32697  -32679  -32700      16
   32658   32688  -32676  -32694      16   32649   32679  -32661  -32682      16
   32646   32670  -32655  -32673      16   32910   32916  -32931  -32949      16
   32904   32931  -32916  -32937      16   32901   32931  -32910  -32934      16
   32916   32883  -32904  -32919      16   32910   32883  -32901  -32913      16
   32868   32862  -32880  -32898      16   32856   32889  -32877  -32895      16
   32853   32889  -32871  -32892      16   32850   32880  -32868  -32886      16
   32841   32871  -32853  -32874      16   32838   32862  -32847  -32865      16
   33102   33108  -33123  -33141      16   33096   33123  -33108  -33129      16
   33093   33123  -33102  -33126      16   33108   33075  -33096  -33111      16
   33102   33075  -33093  -33105      16   33060   33054  -33072  -33090      16
   33048   33081  -33069  -33087      16   33045   33081  -33063  -33084      16
   33042   33072  -33060  -33078      16   33033   33063  -33045  -33066      16
   33030   33054  -33039  -33057      16   33294   33300  -33315  -33333      16
   33288   33315  -33300  -33321      16   33285   33315  -33294  -33318      16
   33300   33267  -33288  -33303      16   33294   33267  -33285  -33297      16
   33252   33246  -33264  -33282      16   33240   33273  -33261  -33279      16
   33237   33273  -33255  -33276      16   33234   33264  -33252  -33270      16
   33225   33255  -33237  -33258      16   33222   33246  -33231  -33249      16
   33486   33492  -33507  -33525      16   33480   33507  -33492  -33513      16
   33477   33507  -33486  -33510      16   33492   33459  -33480  -33495      16
   33486   33459  -33477  -33489      16   33444   33438  -33456  -33474      16
   33432   33465  -33453  -33471      16   33429   33465  -33447  -33468      16
   33426   33456  -33444  -33462      16   33417   33447  -33429  -33450      16
   33414   33438  -33423  -33441      16   33678   33684  -33699  -33717      16
   33672   33699  -33684  -33705      16   33669   33699  -33678  -33702      16
   33684   33651  -33672  -33687      16   33678   33651  -33669  -33681      16
   33636   33630  -33648  -33666      16   33624   33657  -33645  -33663      16
   33621   33657  -33639  -33660      16   33618   33648  -33636  -33654      16
   33609   33639  -33621  -33642      16   33606   33630  -33615  -33633      16
   33870   33876  -33891  -33909      16   33864   33891  -33876  -33897      16
   33861   33891  -33870  -33894      16   33876   33843  -33864  -33879      16
   33870   33843  -33861  -33873      16   33828   33822  -33840  -33858      16
   33816   33849  -33837  -33855      16   33813   33849  -33831  -33852      16
   33810   33840  -33828  -33846      16   33801   33831  -33813  -33834      16
   33798   33822  -33807  -33825      16   34062   34068  -34083  -34101      16
   34056   34083  -34068  -34089      16   34053   34083  -34062  -34086      16
   34068   34035  -34056  -34071      16   34062   34035  -34053  -34065      16
   34020   34014  -34032  -34050      16   34008   34041  -34029  -34047      16
   34005   34041  -34023  -34044      16   34002   34032  -34020  -34038      16
   33993   34023  -34005  -34026      16   33990   34014  -33999  -34017      16
   34254   34260  -34275  -34293      16   34248   34275  -34260  -34281      16
   34245   34275  -34254  -34278      16   34260   34227  -34248  -34263      16
   34254   34227  -34245  -34257      16   34212   34206  -34224  -34242      16
   34200   34233  -34221  -34239      16   34197   34233  -34215  -34236      16
   34194   34224  -34212  -34230      16   34185   34215  -34197  -34218      16
   34182   34206  -34191  -34209      16   34446   34452  -34467  -34485      16
   34440   34467  -34452  -34473      16   34437   34467  -34446  -34470      16
   34452   34419  -34440  -34455      16   34446   34419  -34437  -34449      16
   34404   34398  -34416  -34434      16   34392   34425  -34413  -34431      16
   34389   34425  -34407  -34428      16   34386   34416  -34404  -34422      16
   34377   34407  -34389  -34410      16   34374   34398  -34383  -34401      16
   34638   34644  -34659  -34677      16   34632   34659  -34644  -34665      16
   34629   34659  -34638  -34662      16   34644   34611  -34632  -34647      16
   34638   34611  -34629  -34641      16   34596   34590  -34608  -34626      16
   34584   34617  -34605  -34623      16   34581   34617  -34599  -34620      16
   34578   34608  -34596  -34614      16   34569   34599  -34581  -34602      16
   34566   34590  -34575  -34593      16   34830   34836  -34851  -34869      16
   34824   34851  -34836  -34857      16   34821   34851  -34830  -34854      16
   34836   34803  -34824  -34839      16   34830   34803  -34821  -34833      16
   34788   34782  -34800  -34818      16   34776   34809  -34797  -34815      16
   34773   34809  -34791  -34812      16   34770   34800  -34788  -34806      16
   34761   34791  -34773  -34794      16   34758   34782  -34767  -34785      16
   35022   35028  -35043  -35061      16   35016   35043  -35028  -35049      16
   35013   35043  -35022  -35046      16   35028   34995  -35016  -35031      16
   35022   34995  -35013  -35025      16   34980   34974  -34992  -35010      16
   34968   35001  -34989  -35007      16   34965   35001  -34983  -35004      16
   34962   34992  -34980  -34998      16   34953   34983  -34965  -34986      16
   34950   34974  -34959  -34977      16   35214   35220  -35235  -35253      16
   35208   35235  -35220  -35241      16   35205   35235  -35214  -35238      16
   35220   35187  -35208  -35223      16   35214   35187  -35205  -35217      16
   35172   35166  -35184  -35202      16   35160   35193  -35181  -35199      16
   35157   35193  -35175  -35196      16   35154   35184  -35172  -35190      16
   35145   35175  -35157  -35178      16   35142   35166  -35151  -35169      16
   35406   35412  -35427  -35445      16   35400   35427  -35412  -35433      16
   35397   35427  -35406  -35430      16   35412   35379  -35400  -35415      16
   35406   35379  -35397  -35409      16   35364   35358  -35376  -35394      16
   35352   35385  -35373  -35391      16   35349   35385  -35367  -35388      16
   35346   35376  -35364  -35382      16   35337   35367  -35349  -35370      16
   35334   35358  -35343  -35361      16   35598   35604  -35619  -35637      16
   35592   35619  -35604  -35625      16   35589   35619  -35598  -35622      16
   35604   35571  -35592  -35607      16   35598   35571  -35589  -35601      16
   35556   35550  -35568  -35586      16   35544   35577  -35565  -35583      16
   35541   35577  -35559  -35580      16   35538   35568  -35556  -35574      16
   35529   35559  -35541  -35562      16   35526   35550  -35535  -35553      16
   35790   35796  -35811  -35829      16   35784   35811  -35796  -35817      16
   35781   35811  -35790  -35814      16   35796   35763  -35784  -35799      16
   35790   35763  -35781  -35793      16   35748   35742  -35760  -35778      16
   35736   35769  -35757  -35775      16   35733   35769  -35751  -35772      16
   35730   35760  -35748  -35766      16   35721   35751  -35733  -35754      16
   35718   35742  -35727  -35745      16   35982   35988  -36003  -36021      16
   35976   36003  -35988  -36009      16   35973   36003  -35982  -36006      16
   35988   35955  -35976  -35991      16   35982   35955  -35973  -35985      16
   35940   35934  -35952  -35970      16   35928   35961  -35949  -35967      16
   35925   35961  -35943  -35964      16   35922   35952  -35940  -35958      16
   35913   35943  -35925  -35946      16   35910   35934  -35919  -35937      16
   36174   36180  -36195  -36213      16   36168   36195  -36180  -36201      16
   36165   36195  -36174  -36198      16   36180   36147  -36168  -36183      16
   36174   36147  -36165  -36177      16   36132   36126  -36144  -36162      16
   36120   36153  -36141  -36159      16   36117   36153  -36135  -36156      16
   36114   36144  -36132  -36150      16   36105   36135  -36117  -36138      16
   36102   36126  -36111  -36129      16   36366   36372  -36387  -36405      16
   36360   36387  -36372  -36393      16   36357   36387  -36366  -36390      16
   36372   36339  -36360  -36375      16   36366   36339  -36357  -36369      16
   36324   36318  -36336  -36354      16   36312   36345  -36333  -36351      16
   36309   36345  -36327  -36348      16   36306   36336  -36324  -36342      16
   36297   36327  -36309  -36330      16   36294   36318  -36303  -36321      16
   36558   36564  -36579  -36597      16   36552   36579  -36564  -36585      16
   36549   36579  -36558  -36582      16   36564   36531  -36552  -36567      16
   36558   36531  -36549  -36561      16   36516   36510  -36528  -36546      16
   36504   36537  -36525  -36543      16   36501   36537  -36519  -36540      16
   36498   36528  -36516  -36534      16   36489   36519  -36501  -36522      16
   36486   36510  -36495  -36513      16   36750   36756  -36771  -36789      16
   36744   36771  -36756  -36777      16   36741   36771  -36750  -36774      16
   36756   36723  -36744  -36759      16   36750   36723  -36741  -36753      16
   36708   36702  -36720  -36738      16   36696   36729  -36717  -36735      16
   36693   36729  -36711  -36732      16   36690   36720  -36708  -36726      16
   36681   36711  -36693  -36714      16   36678   36702  -36687  -36705      16
   36942   36948  -36963  -36981      16   36936   36963  -36948  -36969      16
   36933   36963  -36942  -36966      16   36948   36915  -36936  -36951      16
   36942   36915  -36933  -36945      16   36900   36894  -36912  -36930      16
   36888   36921  -36909  -36927      16   36885   36921  -36903  -36924      16
   36882   36912  -36900  -36918      16   36873   36903  -36885  -36906      16
   36870   36894  -36879  -36897      16   37134   37140  -37155  -37173      16
   37128   37155  -37140  -37161      16   37125   37155  -37134  -37158      16
   37140   37107  -37128  -37143      16   37134   37107  -37125  -37137      16
   37092   37086  -37104  -37122      16   37080   37113  -37101  -37119      16
   37077   37113  -37095  -37116      16   37074   37104  -37092  -37110      16
   37065   37095  -37077  -37098      16   37062   37086  -37071  -37089      16
   37326   37332  -37347  -37365      16   37320   37347  -37332  -37353      16
   37317   37347  -37326  -37350      16   37332   37299  -37320  -37335      16
   37326   37299  -37317  -37329      16   37284   37278  -37296  -37314      16
   37272   37305  -37293  -37311      16   37269   37305  -37287  -37308      16
   37266   37296  -37284  -37302      16   37257   37287  -37269  -37290      16
   37254   37278  -37263  -37281      16   37518   37524  -37539  -37557      16
   37512   37539  -37524  -37545      16   37509   37539  -37518  -37542      16
   37524   37491  -37512  -37527      16   37518   37491  -37509  -37521      16
   37476   37470  -37488  -37506      16   37464   37497  -37485  -37503      16
   37461   37497  -37479  -37500      16   37458   37488  -37476  -37494      16
   37449   37479  -37461  -37482      16   37446   37470  -37455  -37473      16
   37710   37716  -37731  -37749      16   37704   37731  -37716  -37737      16
   37701   37731  -37710  -37734      16   37716   37683  -37704  -37719      16
   37710   37683  -37701  -37713      16   37668   37662  -37680  -37698      16
   37656   37689  -37677  -37695      16   37653   37689  -37671  -37692      16
   37650   37680  -37668  -37686      16   37641   37671  -37653  -37674      16
   37638   37662  -37647  -37665      16   37902   37908  -37923  -37941      16
   37896   37923  -37908  -37929      16   37893   37923  -37902  -37926      16
   37908   37875  -37896  -37911      16   37902   37875  -37893  -37905      16
   37860   37854  -37872  -37890      16   37848   37881  -37869  -37887      16
   37845   37881  -37863  -37884      16   37842   37872  -37860  -37878      16
   37833   37863  -37845  -37866      16   37830   37854  -37839  -37857      16
   38094   38100  -38115  -38133      16   38088   38115  -38100  -38121      16
   38085   38115  -38094  -38118      16   38100   38067  -38088  -38103      16
   38094   38067  -38085  -38097      16   38052   38046  -38064  -38082      16
   38040   38073  -38061  -38079      16   38037   38073  -38055  -38076      16
   38034   38064  -38052  -38070      16   38025   38055  -38037  -38058      16
   38022   38046  -38031  -38049      16   38286   38292  -38307  -38325      16
   38280   38307  -38292  -38313      16   38277   38307  -38286  -38310      16
   38292   38259  -38280  -38295      16   38286   38259  -38277  -38289      16
   38244   38238  -38256  -38274      16   38232   38265  -38253  -38271      16
   38229   38265  -38247  -38268      16   38226   38256  -38244  -38262      16
   38217   38247  -38229  -38250      16   38214   38238  -38223  -38241      16
   38478   38484  -38499  -38517      16   38472   38499  -38484  -38505      16
   38469   38499  -38478  -38502      16   38484   38451  -38472  -38487      16
   38478   38451  -38469  -38481      16   38436   38430  -38448  -38466      16
   38424   38457  -38445  -38463      16   38421   38457  -38439  -38460      16
   38418   38448  -38436  -38454      16   38409   38439  -38421  -38442      16
   38406   38430  -38415  -38433      16   38670   38676  -38691  -38709      16
   38664   38691  -38676  -38697      16   38661   38691  -38670  -38694      16
   38676   38643  -38664  -38679      16   38670   38643  -38661  -38673      16
   38628   38622  -38640  -38658      16   38616   38649  -38637  -38655      16
   38613   38649  -38631  -38652      16   38610   38640  -38628  -38646      16
   38601   38631  -38613  -38634      16   38598   38622  -38607  -38625      16
   38862   38868  -38883  -38901      16   38856   38883  -38868  -38889      16
   38853   38883  -38862  -38886      16   38868   38835  -38856  -38871      16
   38862   38835  -38853  -38865      16   38820   38814  -38832  -38850      16
   38808   38841  -38829  -38847      16   38805   38841  -38823  -38844      16
   38802   38832  -38820  -38838      16   38793   38823  -38805  -38826      16
   38790   38814  -38799  -38817      16   39054   39060  -39075  -39093      16
   39048   39075  -39060  -39081      16   39045   39075  -39054  -39078      16
   39060   39027  -39048  -39063      16   39054   39027  -39045  -39057      16
   39012   39006  -39024  -39042      16   39000   39033  -39021  -39039      16
   38997   39033  -39015  -39036      16   38994   39024  -39012  -39030      16
   38985   39015  -38997  -39018      16   38982   39006  -38991  -39009      16
   39246   39252  -39267  -39285      16   39240   39267  -39252  -39273      16
   39237   39267  -39246  -39270      16   39252   39219  -39240  -39255      16
   39246   39219  -39237  -39249      16   39204   39198  -39216  -39234      16
   39192   39225  -39213  -39231      16   39189   39225  -39207  -39228      16
   39186   39216  -39204  -39222      16   39177   39207  -39189  -39210      16
   39174   39198  -39183  -39201      16   39438   39444  -39459  -39477      16
   39432   39459  -39444  -39465      16   39429   39459  -39438  -39462      16
   39444   39411  -39432  -39447      16   39438   39411  -39429  -39441      16
   39396   39390  -39408  -39426      16   39384   39417  -39405  -39423      16
   39381   39417  -39399  -39420      16   39378   39408  -39396  -39414      16
   39369   39399  -39381  -39402      16   39366   39390  -39375  -39393      16
   39630   39636  -39651  -39669      16   39624   39651  -39636  -39657      16
   39621   39651  -39630  -39654      16   39636   39603  -39624  -39639      16
   39630   39603  -39621  -39633      16   39588   39582  -39600  -39618      16
   39576   39609  -39597  -39615      16   39573   39609  -39591  -39612      16
   39570   39600  -39588  -39606      16   39561   39591  -39573  -39594      16
   39558   39582  -39567  -39585      16   39822   39828  -39843  -39861      16
   39816   39843  -39828  -39849      16   39813   39843  -39822  -39846      16
   39828   39795  -39816  -39831      16   39822   39795  -39813  -39825      16
   39780   39774  -39792  -39810      16   39768   39801  -39789  -39807      16
   39765   39801  -39783  -39804      16   39762   39792  -39780  -39798      16
   39753   39783  -39765  -39786      16   39750   39774  -39759  -39777      16
   40014   40020  -40035  -40053      16   40008   40035  -40020  -40041      16
   40005   40035  -40014  -40038      16   40020   39987  -40008  -40023      16
   40014   39987  -40005  -40017      16   39972   39966  -39984  -40002      16
   39960   39993  -39981  -39999      16   39957   39993  -39975  -39996      16
   39954   39984  -39972  -39990      16   39945   39975  -39957  -39978      16
   39942   39966  -39951  -39969      16   40206   40212  -40227  -40245      16
   40200   40227  -40212  -40233      16   40197   40227  -40206  -40230      16
   40212   40179  -40200  -40215      16   40206   40179  -40197  -40209      16
   40164   40158  -40176  -40194      16   40152   40185  -40173  -40191      16
   40149   40185  -40167  -40188      16   40146   40176  -40164  -40182      16
   40137   40167  -40149  -40170      16   40134   40158  -40143  -40161      16
   40398   40404  -40419  -40437      16   40392   40419  -40404  -40425      16
   40389   40419  -40398  -40422      16   40404   40371  -40392  -40407      16
   40398   40371  -40389  -40401      16   40356   40350  -40368  -40386      16
   40344   40377  -40365  -40383      16   40341   40377  -40359  -40380      16
   40338   40368  -40356  -40374      16   40329   40359  -40341  -40362      16
   40326   40350  -40335  -40353      16   40590   40596  -40611  -40629      16
   40584   40611  -40596  -40617      16   40581   40611  -40590  -40614      16
   40596   40563  -40584  -40599      16   40590   40563  -40581  -40593      16
   40548   40542  -40560  -40578      16   40536   40569  -40557  -40575      16
   40533   40569  -40551  -40572      16   40530   40560  -40548  -40566      16
   40521   40551  -40533  -40554      16   40518   40542  -40527  -40545      16
   40782   40788  -40803  -40821      16   40776   40803  -40788  -40809      16
   40773   40803  -40782  -40806      16   40788   40755  -40776  -40791      16
   40782   40755  -40773  -40785      16   40740   40734  -40752  -40770      16
   40728   40761  -40749  -40767      16   40725   40761  -40743  -40764      16
   40722   40752  -40740  -40758      16   40713   40743  -40725  -40746      16
   40710   40734  -40719  -40737      16   40974   40980  -40995  -41013      16
   40968   40995  -40980  -41001      16   40965   40995  -40974  -40998      16
   40980   40947  -40968  -40983      16   40974   40947  -40965  -40977      16
   40932   40926  -40944  -40962      16   40920   40953  -40941  -40959      16
   40917   40953  -40935  -40956      16   40914   40944  -40932  -40950      16
   40905   40935  -40917  -40938      16   40902   40926  -40911  -40929      16
   41166   41172  -41187  -41205      16   41160   41187  -41172  -41193      16
   41157   41187  -41166  -41190      16   41172   41139  -41160  -41175      16
   41166   41139  -41157  -41169      16   41124   41118  -41136  -41154      16
   41112   41145  -41133  -41151      16   41109   41145  -41127  -41148      16
   41106   41136  -41124  -41142      16   41097   41127  -41109  -41130      16
   41094   41118  -41103  -41121      16   41358   41364  -41379  -41397      16
   41352   41379  -41364  -41385      16   41349   41379  -41358  -41382      16
   41364   41331  -41352  -41367      16   41358   41331  -41349  -41361      16
   41316   41310  -41328  -41346      16   41304   41337  -41325  -41343      16
   41301   41337  -41319  -41340      16   41298   41328  -41316  -41334      16
   41289   41319  -41301  -41322      16   41286   41310  -41295  -41313      16
   41550   41556  -41571  -41589      16   41544   41571  -41556  -41577      16
   41541   41571  -41550  -41574      16   41556   41523  -41544  -41559      16
   41550   41523  -41541  -41553      16   41508   41502  -41520  -41538      16
   41496   41529  -41517  -41535      16   41493   41529  -41511  -41532      16
   41490   41520  -41508  -41526      16   41481   41511  -41493  -41514      16
   41478   41502  -41487  -41505      16   41742   41748  -41763  -41781      16
   41736   41763  -41748  -41769      16   41733   41763  -41742  -41766      16
   41748   41715  -41736  -41751      16   41742   41715  -41733  -41745      16
   41700   41694  -41712  -41730      16   41688   41721  -41709  -41727      16
   41685   41721  -41703  -41724      16   41682   41712  -41700  -41718      16
   41673   41703  -41685  -41706      16   41670   41694  -41679  -41697      16
   41934   41940  -41955  -41973      16   41928   41955  -41940  -41961      16
   41925   41955  -41934  -41958      16   41940   41907  -41928  -41943      16
   41934   41907  -41925  -41937      16   41892   41886  -41904  -41922      16
   41880   41913  -41901  -41919      16   41877   41913  -41895  -41916      16
   41874   41904  -41892  -41910      16   41865   41895  -41877  -41898      16
   41862   41886  -41871  -41889      16   42126   42132  -42147  -42165      16
   42120   42147  -42132  -42153      16   42117   42147  -42126  -42150      16
   42132   42099  -42120  -42135      16   42126   42099  -42117  -42129      16
   42084   42078  -42096  -42114      16   42072   42105  -42093  -42111      16
   42069   42105  -42087  -42108      16   42066   42096  -42084  -42102      16
   42057   42087  -42069  -42090      16   42054   42078  -42063  -42081      16
   42318   42324  -42339  -42357      16   42312   42339  -42324  -42345      16
   42309   42339  -42318  -42342      16   42324   42291  -42312  -42327      16
   42318   42291  -42309  -42321      16   42276   42270  -42288  -42306      16
   42264   42297  -42285  -42303      16   42261   42297  -42279  -42300      16
   42258   42288  -42276  -42294      16   42249   42279  -42261  -42282      16
   42246   42270  -42255  -42273      16   42510   42516  -42531  -42549      16
   42504   42531  -42516  -42537      16   42501   42531  -42510  -42534      16
   42516   42483  -42504  -42519      16   42510   42483  -42501  -42513      16
   42468   42462  -42480  -42498      16   42456   42489  -42477  -42495      16
   42453   42489  -42471  -42492      16   42450   42480  -42468  -42486      16
   42441   42471  -42453  -42474      16   42438   42462  -42447  -42465      16
   42702   42708  -42723  -42741      16   42696   42723  -42708  -42729      16
   42693   42723  -42702  -42726      16   42708   42675  -42696  -42711      16
   42702   42675  -42693  -42705      16   42660   42654  -42672  -42690      16
   42648   42681  -42669  -42687      16   42645   42681  -42663  -42684      16
   42642   42672  -42660  -42678      16   42633   42663  -42645  -42666      16
   42630   42654  -42639  -42657      16   42894   42900  -42915  -42933      16
   42888   42915  -42900  -42921      16   42885   42915  -42894  -42918      16
   42900   42867  -42888  -42903      16   42894   42867  -42885  -42897      16
   42852   42846  -42864  -42882      16   42840   42873  -42861  -42879      16
   42837   42873  -42855  -42876      16   42834   42864  -42852  -42870      16
   42825   42855  -42837  -42858      16   42822   42846  -42831  -42849      16
   43086   43092  -43107  -43125      16   43080   43107  -43092  -43113      16
   43077   43107  -43086  -43110      16   43092   43059  -43080  -43095      16
   43086   43059  -43077  -43089      16   43044   43038  -43056  -43074      16
   43032   43065  -43053  -43071      16   43029   43065  -43047  -43068      16
   43026   43056  -43044  -43062      16   43017   43047  -43029  -43050      16
   43014   43038  -43023  -43041      16   43278   43284  -43299  -43317      16
   43272   43299  -43284  -43305      16   43269   43299  -43278  -43302      16
   43284   43251  -43272  -43287      16   43278   43251  -43269  -43281      16
   43236   43230  -43248  -43266      16   43224   43257  -43245  -43263      16
   43221   43257  -43239  -43260      16   43218   43248  -43236  -43254      16
   43209   43239  -43221  -43242      16   43206   43230  -43215  -43233      16
   43470   43476  -43491  -43509      16   43464   43491  -43476  -43497      16
   43461   43491  -43470  -43494      16   43476   43443  -43464  -43479      16
   43470   43443  -43461  -43473      16   43428   43422  -43440  -43458      16
   43416   43449  -43437  -43455      16   43413   43449  -43431  -43452      16
   43410   43440  -43428  -43446      16   43401   43431  -43413  -43434      16
   43398   43422  -43407  -43425      16   43662   43668  -43683  -43701      16
   43656   43683  -43668  -43689      16   43653   43683  -43662  -43686      16
   43668   43635  -43656  -43671      16   43662   43635  -43653  -43665      16
   43620   43614  -43632  -43650      16   43608   43641  -43629  -43647      16
   43605   43641  -43623  -43644      16   43602   43632  -43620  -43638      16
   43593   43623  -43605  -43626      16   43590   43614  -43599  -43617      16
   43854   43860  -43875  -43893      16   43848   43875  -43860  -43881      16
   43845   43875  -43854  -43878      16   43860   43827  -43848  -43863      16
   43854   43827  -43845  -43857      16   43812   43806  -43824  -43842      16
   43800   43833  -43821  -43839      16   43797   43833  -43815  -43836      16
   43794   43824  -43812  -43830      16   43785   43815  -43797  -43818      16
   43782   43806  -43791  -43809      16   44046   44052  -44067  -44085      16
   44040   44067  -44052  -44073      16   44037   44067  -44046  -44070      16
   44052   44019  -44040  -44055      16   44046   44019  -44037  -44049      16
   44004   43998  -44016  -44034      16   43992   44025  -44013  -44031      16
   43989   44025  -44007  -44028      16   43986   44016  -44004  -44022      16
   43977   44007  -43989  -44010      16   43974   43998  -43983  -44001      16
   44238   44244  -44259  -44277      16   44232   44259  -44244  -44265      16
   44229   44259  -44238  -44262      16   44244   44211  -44232  -44247      16
   44238   44211  -44229  -44241      16   44196   44190  -44208  -44226      16
   44184   44217  -44205  -44223      16   44181   44217  -44199  -44220      16
   44178   44208  -44196  -44214      16   44169   44199  -44181  -44202      16
   44166   44190  -44175  -44193      16   44430   44436  -44451  -44469      16
   44424   44451  -44436  -44457      16   44421   44451  -44430  -44454      16
   44436   44403  -44424  -44439      16   44430   44403  -44421  -44433      16
   44388   44382  -44400  -44418      16   44376   44409  -44397  -44415      16
   44373   44409  -44391  -44412      16   44370   44400  -44388  -44406      16
   44361   44391  -44373  -44394      16   44358   44382  -44367  -44385      16
   44622   44628  -44643  -44661      16   44616   44643  -44628  -44649      16
   44613   44643  -44622  -44646      16   44628   44595  -44616  -44631      16
   44622   44595  -44613  -44625      16   44580   44574  -44592  -44610      16
   44568   44601  -44589  -44607      16   44565   44601  -44583  -44604      16
   44562   44592  -44580  -44598      16   44553   44583  -44565  -44586      16
   44550   44574  -44559  -44577      16   44814   44820  -44835  -44853      16
   44808   44835  -44820  -44841      16   44805   44835  -44814  -44838      16
   44820   44787  -44808  -44823      16   44814   44787  -44805  -44817      16
   44772   44766  -44784  -44802      16   44760   44793  -44781  -44799      16
   44757   44793  -44775  -44796      16   44754   44784  -44772  -44790      16
   44745   44775  -44757  -44778      16   44742   44766  -44751  -44769      16
   45006   45012  -45027  -45045      16   45000   45027  -45012  -45033      16
   44997   45027  -45006  -45030      16   45012   44979  -45000  -45015      16
   45006   44979  -44997  -45009      16   44964   44958  -44976  -44994      16
   44952   44985  -44973  -44991      16   44949   44985  -44967  -44988      16
   44946   44976  -44964  -44982      16   44937   44967  -44949  -44970      16
   44934   44958  -44943  -44961      16   45198   45204  -45219  -45237      16
   45192   45219  -45204  -45225      16   45189   45219  -45198  -45222      16
   45204   45171  -45192  -45207      16   45198   45171  -45189  -45201      16
   45156   45150  -45168  -45186      16   45144   45177  -45165  -45183      16
   45141   45177  -45159  -45180      16   45138   45168  -45156  -45174      16
   45129   45159  -45141  -45162      16   45126   45150  -45135  -45153      16
   45390   45396  -45411  -45429      16   45384   45411  -45396  -45417      16
   45381   45411  -45390  -45414      16   45396   45363  -45384  -45399      16
   45390   45363  -45381  -45393      16   45348   45342  -45360  -45378      16
   45336   45369  -45357  -45375      16   45333   45369  -45351  -45372      16
   45330   45360  -45348  -45366      16   45321   45351  -45333  -45354      16
   45318   45342  -45327  -45345      16   45582   45588  -45603  -45621      16
   45576   45603  -45588  -45609      16   45573   45603  -45582  -45606      16
   45588   45555  -45576  -45591      16   45582   45555  -45573  -45585      16
   45540   45534  -45552  -45570      16   45528   45561  -45549  -45567      16
   45525   45561  -45543  -45564      16   45522   45552  -45540  -45558      16
   45513   45543  -45525  -45546      16   45510   45534  -45519  -45537      16
   45774   45780  -45795  -45813      16   45768   45795  -45780  -45801      16
   45765   45795  -45774  -45798      16   45780   45747  -45768  -45783      16
   45774   45747  -45765  -45777      16   45732   45726  -45744  -45762      16
   45720   45753  -45741  -45759      16   45717   45753  -45735  -45756      16
   45714   45744  -45732  -45750      16   45705   45735  -45717  -45738      16
   45702   45726  -45711  -45729      16   45966   45972  -45987  -46005      16
   45960   45987  -45972  -45993      16   45957   45987  -45966  -45990      16
   45972   45939  -45960  -45975      16   45966   45939  -45957  -45969      16
   45924   45918  -45936  -45954      16   45912   45945  -45933  -45951      16
   45909   45945  -45927  -45948      16   45906   45936  -45924  -45942      16
   45897   45927  -45909  -45930      16   45894   45918  -45903  -45921      16
   46158   46164  -46179  -46197      16   46152   46179  -46164  -46185      16
   46149   46179  -46158  -46182      16   46164   46131  -46152  -46167      16
   46158   46131  -46149  -46161      16   46116   46110  -46128  -46146      16
   46104   46137  -46125  -46143      16   46101   46137  -46119  -46140      16
   46098   46128  -46116  -46134      16   46089   46119  -46101  -46122      16
   46086   46110  -46095  -46113      16   46350   46356  -46371  -46389      16
   46344   46371  -46356  -46377      16   46341   46371  -46350  -46374      16
   46356   46323  -46344  -46359      16   46350   46323  -46341  -46353      16
   46308   46302  -46320  -46338      16   46296   46329  -46317  -46335      16
   46293   46329  -46311  -46332      16   46290   46320  -46308  -46326      16
   46281   46311  -46293  -46314      16   46278   46302  -46287  -46305      16
   46542   46548  -46563  -46581      16   46536   46563  -46548  -46569      16
   46533   46563  -46542  -46566      16   46548   46515  -46536  -46551      16
   46542   46515  -46533  -46545      16   46500   46494  -46512  -46530      16
   46488   46521  -46509  -46527      16   46485   46521  -46503  -46524      16
   46482   46512  -46500  -46518      16   46473   46503  -46485  -46506      16
   46470   46494  -46479  -46497      16   46734   46740  -46755  -46773      16
   46728   46755  -46740  -46761      16   46725   46755  -46734  -46758      16
   46740   46707  -46728  -46743      16   46734   46707  -46725  -46737      16
   46692   46686  -46704  -46722      16   46680   46713  -46701  -46719      16
   46677   46713  -46695  -46716      16   46674   46704  -46692  -46710      16
   46665   46695  -46677  -46698      16   46662   46686  -46671  -46689      16
   46926   46932  -46947  -46965      16   46920   46947  -46932  -46953      16
   46917   46947  -46926  -46950      16   46932   46899  -46920  -46935      16
   46926   46899  -46917  -46929      16   46884   46878  -46896  -46914      16
   46872   46905  -46893  -46911      16   46869   46905  -46887  -46908      16
   46866   46896  -46884  -46902      16   46857   46887  -46869  -46890      16
   46854   46878  -46863  -46881      16   47118   47124  -47139  -47157      16
   47112   47139  -47124  -47145      16   47109   47139  -47118  -47142      16
   47124   47091  -47112  -47127      16   47118   47091  -47109  -47121      16
   47076   47070  -47088  -47106      16   47064   47097  -47085  -47103      16
   47061   47097  -47079  -47100      16   47058   47088  -47076  -47094      16
   47049   47079  -47061  -47082      16   47046   47070  -47055  -47073      16
   47310   47316  -47331  -47349      16   47304   47331  -47316  -47337      16
   47301   47331  -47310  -47334      16   47316   47283  -47304  -47319      16
   47310   47283  -47301  -47313      16   47268   47262  -47280  -47298      16
   47256   47289  -47277  -47295      16   47253   47289  -47271  -47292      16
   47250   47280  -47268  -47286      16   47241   47271  -47253  -47274      16
   47238   47262  -47247  -47265      16   47502   47508  -47523  -47541      16
   47496   47523  -47508  -47529      16   47493   47523  -47502  -47526      16
   47508   47475  -47496  -47511      16   47502   47475  -47493  -47505      16
   47460   47454  -47472  -47490      16   47448   47481  -47469  -47487      16
   47445   47481  -47463  -47484      16   47442   47472  -47460  -47478      16
   47433   47463  -47445  -47466      16   47430   47454  -47439  -47457      16
   47694   47700  -47715  -47733      16   47688   47715  -47700  -47721      16
   47685   47715  -47694  -47718      16   47700   47667  -47688  -47703      16
   47694   47667  -47685  -47697      16   47652   47646  -47664  -47682      16
   47640   47673  -47661  -47679      16   47637   47673  -47655  -47676      16
   47634   47664  -47652  -47670      16   47625   47655  -47637  -47658      16
   47622   47646  -47631  -47649      16   47886   47892  -47907  -47925      16
   47880   47907  -47892  -47913      16   47877   47907  -47886  -47910      16
   47892   47859  -47880  -47895      16   47886   47859  -47877  -47889      16
   47844   47838  -47856  -47874      16   47832   47865  -47853  -47871      16
   47829   47865  -47847  -47868      16   47826   47856  -47844  -47862      16
   47817   47847  -47829  -47850      16   47814   47838  -47823  -47841      16
   48078   48084  -48099  -48117      16   48072   48099  -48084  -48105      16
   48069   48099  -48078  -48102      16   48084   48051  -48072  -48087      16
   48078   48051  -48069  -48081      16   48036   48030  -48048  -48066      16
   48024   48057  -48045  -48063      16   48021   48057  -48039  -48060      16
   48018   48048  -48036  -48054      16   48009   48039  -48021  -48042      16
   48006   48030  -48015  -48033      16   48270   48276  -48291  -48309      16
   48264   48291  -48276  -48297      16   48261   48291  -48270  -48294      16
   48276   48243  -48264  -48279      16   48270   48243  -48261  -48273      16
   48228   48222  -48240  -48258      16   48216   48249  -48237  -48255      16
   48213   48249  -48231  -48252      16   48210   48240  -48228  -48246      16
   48201   48231  -48213  -48234      16   48198   48222  -48207  -48225      16
   48462   48468  -48483  -48501      16   48456   48483  -48468  -48489      16
   48453   48483  -48462  -48486      16   48468   48435  -48456  -48471      16
   48462   48435  -48453  -48465      16   48420   48414  -48432  -48450      16
   48408   48441  -48429  -48447      16   48405   48441  -48423  -48444      16
   48402   48432  -48420  -48438      16   48393   48423  -48405  -48426      16
   48390   48414  -48399  -48417      16   48654   48660  -48675  -48693      16
   48648   48675  -48660  -48681      16   48645   48675  -48654  -48678      16
   48660   48627  -48648  -48663      16   48654   48627  -48645  -48657      16
   48612   48606  -48624  -48642      16   48600   48633  -48621  -48639      16
   48597   48633  -48615  -48636      16   48594   48624  -48612  -48630      16
   48585   48615  -48597  -48618      16   48582   48606  -48591  -48609      16
   48846   48852  -48867  -48885      16   48840   48867  -48852  -48873      16
   48837   48867  -48846  -48870      16   48852   48819  -48840  -48855      16
   48846   48819  -48837  -48849      16   48804   48798  -48816  -48834      16
   48792   48825  -48813  -48831      16   48789   48825  -48807  -48828      16
   48786   48816  -48804  -48822      16   48777   48807  -48789  -48810      16
   48774   48798  -48783  -48801      16   49038   49044  -49059  -49077      16
   49032   49059  -49044  -49065      16   49029   49059  -49038  -49062      16
   49044   49011  -49032  -49047      16   49038   49011  -49029  -49041      16
   48996   48990  -49008  -49026      16   48984   49017  -49005  -49023      16
   48981   49017  -48999  -49020      16   48978   49008  -48996  -49014      16
   48969   48999  -48981  -49002      16   48966   48990  -48975  -48993      16
   49230   49236  -49251  -49269      16   49224   49251  -49236  -49257      16
   49221   49251  -49230  -49254      16   49236   49203  -49224  -49239      16
   49230   49203  -49221  -49233      16   49188   49182  -49200  -49218      16
   49176   49209  -49197  -49215      16   49173   49209  -49191  -49212      16
   49170   49200  -49188  -49206      16   49161   49191  -49173  -49194      16
   49158   49182  -49167  -49185      16   49422   49428  -49443  -49461      16
   49416   49443  -49428  -49449      16   49413   49443  -49422  -49446      16
   49428   49395  -49416  -49431      16   49422   49395  -49413  -49425      16
   49380   49374  -49392  -49410      16   49368   49401  -49389  -49407      16
   49365   49401  -49383  -49404      16   49362   49392  -49380  -49398      16
   49353   49383  -49365  -49386      16   49350   49374  -49359  -49377      16
   49614   49620  -49635  -49653      16   49608   49635  -49620  -49641      16
   49605   49635  -49614  -49638      16   49620   49587  -49608  -49623      16
   49614   49587  -49605  -49617      16   49572   49566  -49584  -49602      16
   49560   49593  -49581  -49599      16   49557   49593  -49575  -49596      16
   49554   49584  -49572  -49590      16   49545   49575  -49557  -49578      16
   49542   49566  -49551  -49569      16   49806   49812  -49827  -49845      16
   49800   49827  -49812  -49833      16   49797   49827  -49806  -49830      16
   49812   49779  -49800  -49815      16   49806   49779  -49797  -49809      16
   49764   49758  -49776  -49794      16   49752   49785  -49773  -49791      16
   49749   49785  -49767  -49788      16   49746   49776  -49764  -49782      16
   49737   49767  -49749  -49770      16   49734   49758  -49743  -49761      16
   49998   50004  -50019  -50037      16   49992   50019  -50004  -50025      16
   49989   50019  -49998  -50022      16   50004   49971  -49992  -50007      16
   49998   49971  -49989  -50001      16   49956   49950  -49968  -49986      16
   49944   49977  -49965  -49983      16   49941   49977  -49959  -49980      16
   49938   49968  -49956  -49974      16   49929   49959  -49941  -49962      16
   49926   49950  -49935  -49953      16   50190   50196  -50211  -50229      16
   50184   50211  -50196  -50217      16   50181   50211  -50190  -50214      16
   50196   50163  -50184  -50199      16   50190   50163  -50181  -50193      16
   50148   50142  -50160  -50178      16   50136   50169  -50157  -50175      16
   50133   50169  -50151  -50172      16   50130   50160  -50148  -50166      16
   50121   50151  -50133  -50154      16   50118   50142  -50127  -50145      16
   50382   50388  -50403  -50421      16   50376   50403  -50388  -50409      16
   50373   50403  -50382  -50406      16   50388   50355  -50376  -50391      16
   50382   50355  -50373  -50385      16   50340   50334  -50352  -50370      16
   50328   50361  -50349  -50367      16   50325   50361  -50343  -50364      16
   50322   50352  -50340  -50358      16   50313   50343  -50325  -50346      16
   50310   50334  -50319  -50337      16   50574   50580  -50595  -50613      16
   50568   50595  -50580  -50601      16   50565   50595  -50574  -50598      16
   50580   50547  -50568  -50583      16   50574   50547  -50565  -50577      16
   50532   50526  -50544  -50562      16   50520   50553  -50541  -50559      16
   50517   50553  -50535  -50556      16   50514   50544  -50532  -50550      16
   50505   50535  -50517  -50538      16   50502   50526  -50511  -50529      16
   50766   50772  -50787  -50805      16   50760   50787  -50772  -50793      16
   50757   50787  -50766  -50790      16   50772   50739  -50760  -50775      16
   50766   50739  -50757  -50769      16   50724   50718  -50736  -50754      16
   50712   50745  -50733  -50751      16   50709   50745  -50727  -50748      16
   50706   50736  -50724  -50742      16   50697   50727  -50709  -50730      16
   50694   50718  -50703  -50721      16   50958   50964  -50979  -50997      16
   50952   50979  -50964  -50985      16   50949   50979  -50958  -50982      16
   50964   50931  -50952  -50967      16   50958   50931  -50949  -50961      16
   50916   50910  -50928  -50946      16   50904   50937  -50925  -50943      16
   50901   50937  -50919  -50940      16   50898   50928  -50916  -50934      16
   50889   50919  -50901  -50922      16   50886   50910  -50895  -50913      16
   51150   51156  -51171  -51189      16   51144   51171  -51156  -51177      16
   51141   51171  -51150  -51174      16   51156   51123  -51144  -51159      16
   51150   51123  -51141  -51153      16   51108   51102  -51120  -51138      16
   51096   51129  -51117  -51135      16   51093   51129  -51111  -51132      16
   51090   51120  -51108  -51126      16   51081   51111  -51093  -51114      16
   51078   51102  -51087  -51105      16   51342   51348  -51363  -51381      16
   51336   51363  -51348  -51369      16   51333   51363  -51342  -51366      16
   51348   51315  -51336  -51351      16   51342   51315  -51333  -51345      16
   51300   51294  -51312  -51330      16   51288   51321  -51309  -51327      16
   51285   51321  -51303  -51324      16   51282   51312  -51300  -51318      16
   51273   51303  -51285  -51306      16   51270   51294  -51279  -51297      16
   51534   51540  -51555  -51573      16   51528   51555  -51540  -51561      16
   51525   51555  -51534  -51558      16   51540   51507  -51528  -51543      16
   51534   51507  -51525  -51537      16   51492   51486  -51504  -51522      16
   51480   51513  -51501  -51519      16   51477   51513  -51495  -51516      16
   51474   51504  -51492  -51510      16   51465   51495  -51477  -51498      16
   51462   51486  -51471  -51489      16   51726   51732  -51747  -51765      16
   51720   51747  -51732  -51753      16   51717   51747  -51726  -51750      16
   51732   51699  -51720  -51735      16   51726   51699  -51717  -51729      16
   51684   51678  -51696  -51714      16   51672   51705  -51693  -51711      16
   51669   51705  -51687  -51708      16   51666   51696  -51684  -51702      16
   51657   51687  -51669  -51690      16   51654   51678  -51663  -51681      16
   51918   51924  -51939  -51957      16   51912   51939  -51924  -51945      16
   51909   51939  -51918  -51942      16   51924   51891  -51912  -51927      16
   51918   51891  -51909  -51921      16   51876   51870  -51888  -51906      16
   51864   51897  -51885  -51903      16   51861   51897  -51879  -51900      16
   51858   51888  -51876  -51894      16   51849   51879  -51861  -51882      16
   51846   51870  -51855  -51873      16   52110   52116  -52131  -52149      16
   52104   52131  -52116  -52137      16   52101   52131  -52110  -52134      16
   52116   52083  -52104  -52119      16   52110   52083  -52101  -52113      16
   52068   52062  -52080  -52098      16   52056   52089  -52077  -52095      16
   52053   52089  -52071  -52092      16   52050   52080  -52068  -52086      16
   52041   52071  -52053  -52074      16   52038   52062  -52047  -52065      16
   52302   52308  -52323  -52341      16   52296   52323  -52308  -52329      16
   52293   52323  -52302  -52326      16   52308   52275  -52296  -52311      16
   52302   52275  -52293  -52305      16   52260   52254  -52272  -52290      16
   52248   52281  -52269  -52287      16   52245   52281  -52263  -52284      16
   52242   52272  -52260  -52278      16   52233   52263  -52245  -52266      16
   52230   52254  -52239  -52257      16   52494   52500  -52515  -52533      16
   52488   52515  -52500  -52521      16   52485   52515  -52494  -52518      16
   52500   52467  -52488  -52503      16   52494   52467  -52485  -52497      16
   52452   52446  -52464  -52482      16   52440   52473  -52461  -52479      16
   52437   52473  -52455  -52476      16   52434   52464  -52452  -52470      16
   52425   52455  -52437  -52458      16   52422   52446  -52431  -52449      16
   52686   52692  -52707  -52725      16   52680   52707  -52692  -52713      16
   52677   52707  -52686  -52710      16   52692   52659  -52680  -52695      16
   52686   52659  -52677  -52689      16   52644   52638  -52656  -52674      16
   52632   52665  -52653  -52671      16   52629   52665  -52647  -52668      16
   52626   52656  -52644  -52662      16   52617   52647  -52629  -52650      16
   52614   52638  -52623  -52641      16   52878   52884  -52899  -52917      16
   52872   52899  -52884  -52905      16   52869   52899  -52878  -52902      16
   52884   52851  -52872  -52887      16   52878   52851  -52869  -52881      16
   52836   52830  -52848  -52866      16   52824   52857  -52845  -52863      16
   52821   52857  -52839  -52860      16   52818   52848  -52836  -52854      16
   52809   52839  -52821  -52842      16   52806   52830  -52815  -52833      16
   53070   53076  -53091  -53109      16   53064   53091  -53076  -53097      16
   53061   53091  -53070  -53094      16   53076   53043  -53064  -53079      16
   53070   53043  -53061  -53073      16   53028   53022  -53040  -53058      16
   53016   53049  -53037  -53055      16   53013   53049  -53031  -53052      16
   53010   53040  -53028  -53046      16   53001   53031  -53013  -53034      16
   52998   53022  -53007  -53025      16   53262   53268  -53283  -53301      16
   53256   53283  -53268  -53289      16   53253   53283  -53262  -53286      16
   53268   53235  -53256  -53271      16   53262   53235  -53253  -53265      16
   53220   53214  -53232  -53250      16   53208   53241  -53229  -53247      16
   53205   53241  -53223  -53244      16   53202   53232  -53220  -53238      16
   53193   53223  -53205  -53226      16   53190   53214  -53199  -53217      16
   53454   53460  -53475  -53493      16   53448   53475  -53460  -53481      16
   53445   53475  -53454  -53478      16   53460   53427  -53448  -53463      16
   53454   53427  -53445  -53457      16   53412   53406  -53424  -53442      16
   53400   53433  -53421  -53439      16   53397   53433  -53415  -53436      16
   53394   53424  -53412  -53430      16   53385   53415  -53397  -53418      16
   53382   53406  -53391  -53409      16   53646   53652  -53667  -53685      16
   53640   53667  -53652  -53673      16   53637   53667  -53646  -53670      16
   53652   53619  -53640  -53655      16   53646   53619  -53637  -53649      16
   53604   53598  -53616  -53634      16   53592   53625  -53613  -53631      16
   53589   53625  -53607  -53628      16   53586   53616  -53604  -53622      16
   53577   53607  -53589  -53610      16   53574   53598  -53583  -53601      16
   53838   53844  -53859  -53877      16   53832   53859  -53844  -53865      16
   53829   53859  -53838  -53862      16   53844   53811  -53832  -53847      16
   53838   53811  -53829  -53841      16   53796   53790  -53808  -53826      16
   53784   53817  -53805  -53823      16   53781   53817  -53799  -53820      16
   53778   53808  -53796  -53814      16   53769   53799  -53781  -53802      16
   53766   53790  -53775  -53793      16   54030   54036  -54051  -54069      16
   54024   54051  -54036  -54057      16   54021   54051  -54030  -54054      16
   54036   54003  -54024  -54039      16   54030   54003  -54021  -54033      16
   53988   53982  -54000  -54018      16   53976   54009  -53997  -54015      16
   53973   54009  -53991  -54012      16   53970   54000  -53988  -54006      16
   53961   53991  -53973  -53994      16   53958   53982  -53967  -53985      16
   54222   54228  -54243  -54261      16   54216   54243  -54228  -54249      16
   54213   54243  -54222  -54246      16   54228   54195  -54216  -54231      16
   54222   54195  -54213  -54225      16   54180   54174  -54192  -54210      16
   54168   54201  -54189  -54207      16   54165   54201  -54183  -54204      16
   54162   54192  -54180  -54198      16   54153   54183  -54165  -54186      16
   54150   54174  -54159  -54177      16   54414   54420  -54435  -54453      16
   54408   54435  -54420  -54441      16   54405   54435  -54414  -54438      16
   54420   54387  -54408  -54423      16   54414   54387  -54405  -54417      16
   54372   54366  -54384  -54402      16   54360   54393  -54381  -54399      16
   54357   54393  -54375  -54396      16   54354   54384  -54372  -54390      16
   54345   54375  -54357  -54378      16   54342   54366  -54351  -54369      16
   54606   54612  -54627  -54645      16   54600   54627  -54612  -54633      16
   54597   54627  -54606  -54630      16   54612   54579  -54600  -54615      16
   54606   54579  -54597  -54609      16   54564   54558  -54576  -54594      16
   54552   54585  -54573  -54591      16   54549   54585  -54567  -54588      16
   54546   54576  -54564  -54582      16   54537   54567  -54549  -54570      16
   54534   54558  -54543  -54561      16   54798   54804  -54819  -54837      16
   54792   54819  -54804  -54825      16   54789   54819  -54798  -54822      16
   54804   54771  -54792  -54807      16   54798   54771  -54789  -54801      16
   54756   54750  -54768  -54786      16   54744   54777  -54765  -54783      16
   54741   54777  -54759  -54780      16   54738   54768  -54756  -54774      16
   54729   54759  -54741  -54762      16   54726   54750  -54735  -54753      16
   54990   54996  -55011  -55029      16   54984   55011  -54996  -55017      16
   54981   55011  -54990  -55014      16   54996   54963  -54984  -54999      16
   54990   54963  -54981  -54993      16   54948   54942  -54960  -54978      16
   54936   54969  -54957  -54975      16   54933   54969  -54951  -54972      16
   54930   54960  -54948  -54966      16   54921   54951  -54933  -54954      16
   54918   54942  -54927  -54945      16   55182   55188  -55203  -55221      16
   55176   55203  -55188  -55209      16   55173   55203  -55182  -55206      16
   55188   55155  -55176  -55191      16   55182   55155  -55173  -55185      16
   55140   55134  -55152  -55170      16   55128   55161  -55149  -55167      16
   55125   55161  -55143  -55164      16   55122   55152  -55140  -55158      16
   55113   55143  -55125  -55146      16   55110   55134  -55119  -55137      16
%FLAG DIHEDRALS_WITHOUT_HYDROGEN                                                
%FORMAT(10I8)                                                                   
     147     162     165     177       3     138     147     162     165       3
     129     138     147     162       3     120     129     138     147       3
     108     120     129     138       3      90     108     120     129       3
      75      90     108     120       3      72      51      69      78       4
      72      84     -99      78       4      69      51      72      84       4
      69      78     -99      84       4      57      75      90     108       5
      51      69      78      99       4      51      72     -84      99       4
      48      30      51      69       6      48      30      51      72       6
      45      57      75      90       7      39      57      75      90       7
      36      48      30      51       4      30      51      69      78       4
      30      51      72      84       4      27      12      18      36       9
      27      24      45      57       4      24       9      21      39       4
      24      45     -57      39       4      24      45      57      75       4
      21       9      24      27       4      21       9      24      45       4
      21      39     -57      45       4      21      39      57      75       4
      18       6      15      30       4      18      12      27      24      10
      18      36     -48      30       4      15       6      18      36       4
      15      30     -48      36       4      15      30      51      69       6
      15      30      51      72       6      12       3       9      21      11
      12       3      -9      24      11      12      18       6      15       4
      12      18      36      48       4      12      27      24      45      12
       9       3      12      18      13       9       3     -12      27      13
       9      21      39      57       4       9      24     -27      12      12
       9      24     -45      57       4       6       0       3       9      10
       6       0      -3      12      10       6      15      30      48       4
       6      15      30      51       4       6      18      12      27       9
       6      18     -36      48       4       3       0       6      15      14
       3       0      -6      18      14       3       9      21      39       4
       3       9     -24      27       4       3       9      24      45       4
       3      12     -18       6      15       3      12      18      36      15
       3      12     -27      24      10       0       3       9      21       9
       0       3       9      24       9       0       3     -12      18      13
       0       3      12      27      13       0       6      15      30       4
       0       6     -18      12       4       0       6      18      36       4
     339     354     357     369       3     330     339     354     357       3
     321     330     339     354       3     312     321     330     339       3
     300     312     321     330       3     282     300     312     321       3
     267     282     300     312       3     264     243     261     270       4
     264     276    -291     270       4     261     243     264     276       4
     261     270    -291     276       4     249     267     282     300       5
     243     261     270     291       4     243     264    -276     291       4
     240     222     243     261       6     240     222     243     264       6
     237     249     267     282       7     231     249     267     282       7
     228     240     222     243       4     222     243     261     270       4
     222     243     264     276       4     219     204     210     228       9
     219     216     237     249       4     216     201     213     231       4
     216     237    -249     231       4     216     237     249     267       4
     213     201     216     219       4     213     201     216     237       4
     213     231    -249     237       4     213     231     249     267       4
     210     198     207     222       4     210     204     219     216      10
     210     228    -240     222       4     207     198     210     228       4
     207     222    -240     228       4     207     222     243     261       6
     207     222     243     264       6     204     195     201     213      11
     204     195    -201     216      11     204     210     198     207       4
     204     210     228     240       4     204     219     216     237      12
     201     195     204     210      13     201     195    -204     219      13
     201     213     231     249       4     201     216    -219     204      12
     201     216    -237     249       4     198     192     195     201      10
     198     192    -195     204      10     198     207     222     240       4
     198     207     222     243       4     198     210     204     219       9
     198     210    -228     240       4     195     192     198     207      14
     195     192    -198     210      14     195     201     213     231       4
     195     201    -216     219       4     195     201     216     237       4
     195     204    -210     198      15     195     204     210     228      15
     195     204    -219     216      10     192     195     201     213       9
     192     195     201     216       9     192     195    -204     210      13
     192     195     204     219      13     192     198     207     222       4
     192     198    -210     204       4     192     198     210     228       4
     531     546     549     561       3     522     531     546     549       3
     513     522     531     546       3     504     513     522     531       3
     492     504     513     522       3     474     492     504     513       3
     459     474     492     504       3     456     435     453     462       4
     456     468    -483     462       4     453     435     456     468       4
     453     462    -483     468       4     441     459     474     492       5
     435     453     462     483       4     435     456    -468     483       4
     432     414     435     453       6     432     414     435     456       6
     429     441     459     474       7     423     441     459     474       7
     420     432     414     435       4     414     435     453     462       4
     414     435     456     468       4     411     396     402     420       9
     411     408     429     441       4     408     393     405     423       4
     408     429    -441     423       4     408     429     441     459       4
     405     393     408     411       4     405     393     408     429       4
     405     423    -441     429       4     405     423     441     459       4
     402     390     399     414       4     402     396     411     408      10
     402     420    -432     414       4     399     390     402     420       4
     399     414    -432     420       4     399     414     435     453       6
     399     414     435     456       6     396     387     393     405      11
     396     387    -393     408      11     396     402     390     399       4
     396     402     420     432       4     396     411     408     429      12
     393     387     396     402      13     393     387    -396     411      13
     393     405     423     441       4     393     408    -411     396      12
     393     408    -429     441       4     390     384     387     393      10
     390     384    -387     396      10     390     399     414     432       4
     390     399     414     435       4     390     402     396     411       9
     390     402    -420     432       4     387     384     390     399      14
     387     384    -390     402      14     387     393     405     423       4
     387     393    -408     411       4     387     393     408     429       4
     387     396    -402     390      15     387     396     402     420      15
     387     396    -411     408      10     384     387     393     405       9
     384     387     393     408       9     384     387    -396     402      13
     384     387     396     411      13     384     390     399     414       4
     384     390    -402     396       4     384     390     402     420       4
     723     738     741     753       3     714     723     738     741       3
     705     714     723     738       3     696     705     714     723       3
     684     696     705     714       3     666     684     696     705       3
     651     666     684     696       3     648     627     645     654       4
     648     660    -675     654       4     645     627     648     660       4
     645     654    -675     660       4     633     651     666     684       5
     627     645     654     675       4     627     648    -660     675       4
     624     606     627     645       6     624     606     627     648       6
     621     633     651     666       7     615     633     651     666       7
     612     624     606     627       4     606     627     645     654       4
     606     627     648     660       4     603     588     594     612       9
     603     600     621     633       4     600     585     597     615       4
     600     621    -633     615       4     600     621     633     651       4
     597     585     600     603       4     597     585     600     621       4
     597     615    -633     621       4     597     615     633     651       4
     594     582     591     606       4     594     588     603     600      10
     594     612    -624     606       4     591     582     594     612       4
     591     606    -624     612       4     591     606     627     645       6
     591     606     627     648       6     588     579     585     597      11
     588     579    -585     600      11     588     594     582     591       4
     588     594     612     624       4     588     603     600     621      12
     585     579     588     594      13     585     579    -588     603      13
     585     597     615     633       4     585     600    -603     588      12
     585     600    -621     633       4     582     576     579     585      10
     582     576    -579     588      10     582     591     606     624       4
     582     591     606     627       4     582     594     588     603       9
     582     594    -612     624       4     579     576     582     591      14
     579     576    -582     594      14     579     585     597     615       4
     579     585    -600     603       4     579     585     600     621       4
     579     588    -594     582      15     579     588     594     612      15
     579     588    -603     600      10     576     579     585     597       9
     576     579     585     600       9     576     579    -588     594      13
     576     579     588     603      13     576     582     591     606       4
     576     582    -594     588       4     576     582     594     612       4
     915     930     933     945       3     906     915     930     933       3
     897     906     915     930       3     888     897     906     915       3
     876     888     897     906       3     858     876     888     897       3
     843     858     876     888       3     840     819     837     846       4
     840     852    -867     846       4     837     819     840     852       4
     837     846    -867     852       4     825     843     858     876       5
     819     837     846     867       4     819     840    -852     867       4
     816     798     819     837       6     816     798     819     840       6
     813     825     843     858       7     807     825     843     858       7
     804     816     798     819       4     798     819     837     846       4
     798     819     840     852       4     795     780     786     804       9
     795     792     813     825       4     792     777     789     807       4
     792     813    -825     807       4     792     813     825     843       4
     789     777     792     795       4     789     777     792     813       4
     789     807    -825     813       4     789     807     825     843       4
     786     774     783     798       4     786     780     795     792      10
     786     804    -816     798       4     783     774     786     804       4
     783     798    -816     804       4     783     798     819     837       6
     783     798     819     840       6     780     771     777     789      11
     780     771    -777     792      11     780     786     774     783       4
     780     786     804     816       4     780     795     792     813      12
     777     771     780     786      13     777     771    -780     795      13
     777     789     807     825       4     777     792    -795     780      12
     777     792    -813     825       4     774     768     771     777      10
     774     768    -771     780      10     774     783     798     816       4
     774     783     798     819       4     774     786     780     795       9
     774     786    -804     816       4     771     768     774     783      14
     771     768    -774     786      14     771     777     789     807       4
     771     777    -792     795       4     771     777     792     813       4
     771     780    -786     774      15     771     780     786     804      15
     771     780    -795     792      10     768     771     777     789       9
     768     771     777     792       9     768     771    -780     786      13
     768     771     780     795      13     768     774     783     798       4
     768     774    -786     780       4     768     774     786     804       4
    1107    1122    1125    1137       3    1098    1107    1122    1125       3
    1089    1098    1107    1122       3    1080    1089    1098    1107       3
    1068    1080    1089    1098       3    1050    1068    1080    1089       3
    1035    1050    1068    1080       3    1032    1011    1029    1038       4
    1032    1044   -1059    1038       4    1029    1011    1032    1044       4
    1029    1038   -1059    1044       4    1017    1035    1050    1068       5
    1011    1029    1038    1059       4    1011    1032   -1044    1059       4
    1008     990    1011    1029       6    1008     990    1011    1032       6
    1005    1017    1035    1050       7     999    1017    1035    1050       7
     996    1008     990    1011       4     990    1011    1029    1038       4
     990    1011    1032    1044       4     987     972     978     996       9
     987     984    1005    1017       4     984     969     981     999       4
     984    1005   -1017     999       4     984    1005    1017    1035       4
     981     969     984     987       4     981     969     984    1005       4
     981     999   -1017    1005       4     981     999    1017    1035       4
     978     966     975     990       4     978     972     987     984      10
     978     996   -1008     990       4     975     966     978     996       4
     975     990   -1008     996       4     975     990    1011    1029       6
     975     990    1011    1032       6     972     963     969     981      11
     972     963    -969     984      11     972     978     966     975       4
     972     978     996    1008       4     972     987     984    1005      12
     969     963     972     978      13     969     963    -972     987      13
     969     981     999    1017       4     969     984    -987     972      12
     969     984   -1005    1017       4     966     960     963     969      10
     966     960    -963     972      10     966     975     990    1008       4
     966     975     990    1011       4     966     978     972     987       9
     966     978    -996    1008       4     963     960     966     975      14
     963     960    -966     978      14     963     969     981     999       4
     963     969    -984     987       4     963     969     984    1005       4
     963     972    -978     966      15     963     972     978     996      15
     963     972    -987     984      10     960     963     969     981       9
     960     963     969     984       9     960     963    -972     978      13
     960     963     972     987      13     960     966     975     990       4
     960     966    -978     972       4     960     966     978     996       4
    1299    1314    1317    1329       3    1290    1299    1314    1317       3
    1281    1290    1299    1314       3    1272    1281    1290    1299       3
    1260    1272    1281    1290       3    1242    1260    1272    1281       3
    1227    1242    1260    1272       3    1224    1203    1221    1230       4
    1224    1236   -1251    1230       4    1221    1203    1224    1236       4
    1221    1230   -1251    1236       4    1209    1227    1242    1260       5
    1203    1221    1230    1251       4    1203    1224   -1236    1251       4
    1200    1182    1203    1221       6    1200    1182    1203    1224       6
    1197    1209    1227    1242       7    1191    1209    1227    1242       7
    1188    1200    1182    1203       4    1182    1203    1221    1230       4
    1182    1203    1224    1236       4    1179    1164    1170    1188       9
    1179    1176    1197    1209       4    1176    1161    1173    1191       4
    1176    1197   -1209    1191       4    1176    1197    1209    1227       4
    1173    1161    1176    1179       4    1173    1161    1176    1197       4
    1173    1191   -1209    1197       4    1173    1191    1209    1227       4
    1170    1158    1167    1182       4    1170    1164    1179    1176      10
    1170    1188   -1200    1182       4    1167    1158    1170    1188       4
    1167    1182   -1200    1188       4    1167    1182    1203    1221       6
    1167    1182    1203    1224       6    1164    1155    1161    1173      11
    1164    1155   -1161    1176      11    1164    1170    1158    1167       4
    1164    1170    1188    1200       4    1164    1179    1176    1197      12
    1161    1155    1164    1170      13    1161    1155   -1164    1179      13
    1161    1173    1191    1209       4    1161    1176   -1179    1164      12
    1161    1176   -1197    1209       4    1158    1152    1155    1161      10
    1158    1152   -1155    1164      10    1158    1167    1182    1200       4
    1158    1167    1182    1203       4    1158    1170    1164    1179       9
    1158    1170   -1188    1200       4    1155    1152    1158    1167      14
    1155    1152   -1158    1170      14    1155    1161    1173    1191       4
    1155    1161   -1176    1179       4    1155    1161    1176    1197       4
    1155    1164   -1170    1158      15    1155    1164    1170    1188      15
    1155    1164   -1179    1176      10    1152    1155    1161    1173       9
    1152    1155    1161    1176       9    1152    1155   -1164    1170      13
    1152    1155    1164    1179      13    1152    1158    1167    1182       4
    1152    1158   -1170    1164       4    1152    1158    1170    1188       4
    1491    1506    1509    1521       3    1482    1491    1506    1509       3
    1473    1482    1491    1506       3    1464    1473    1482    1491       3
    1452    1464    1473    1482       3    1434    1452    1464    1473       3
    1419    1434    1452    1464       3    1416    1395    1413    1422       4
    1416    1428   -1443    1422       4    1413    1395    1416    1428       4
    1413    1422   -1443    1428       4    1401    1419    1434    1452       5
    1395    1413    1422    1443       4    1395    1416   -1428    1443       4
    1392    1374    1395    1413       6    1392    1374    1395    1416       6
    1389    1401    1419    1434       7    1383    1401    1419    1434       7
    1380    1392    1374    1395       4    1374    1395    1413    1422       4
    1374    1395    1416    1428       4    1371    1356    1362    1380       9
    1371    1368    1389    1401       4    1368    1353    1365    1383       4
    1368    1389   -1401    1383       4    1368    1389    1401    1419       4
    1365    1353    1368    1371       4    1365    1353    1368    1389       4
    1365    1383   -1401    1389       4    1365    1383    1401    1419       4
    1362    1350    1359    1374       4    1362    1356    1371    1368      10
    1362    1380   -1392    1374       4    1359    1350    1362    1380       4
    1359    1374   -1392    1380       4    1359    1374    1395    1413       6
    1359    1374    1395    1416       6    1356    1347    1353    1365      11
    1356    1347   -1353    1368      11    1356    1362    1350    1359       4
    1356    1362    1380    1392       4    1356    1371    1368    1389      12
    1353    1347    1356    1362      13    1353    1347   -1356    1371      13
    1353    1365    1383    1401       4    1353    1368   -1371    1356      12
    1353    1368   -1389    1401       4    1350    1344    1347    1353      10
    1350    1344   -1347    1356      10    1350    1359    1374    1392       4
    1350    1359    1374    1395       4    1350    1362    1356    1371       9
    1350    1362   -1380    1392       4    1347    1344    1350    1359      14
    1347    1344   -1350    1362      14    1347    1353    1365    1383       4
    1347    1353   -1368    1371       4    1347    1353    1368    1389       4
    1347    1356   -1362    1350      15    1347    1356    1362    1380      15
    1347    1356   -1371    1368      10    1344    1347    1353    1365       9
    1344    1347    1353    1368       9    1344    1347   -1356    1362      13
    1344    1347    1356    1371      13    1344    1350    1359    1374       4
    1344    1350   -1362    1356       4    1344    1350    1362    1380       4
    1683    1698    1701    1713       3    1674    1683    1698    1701       3
    1665    1674    1683    1698       3    1656    1665    1674    1683       3
    1644    1656    1665    1674       3    1626    1644    1656    1665       3
    1611    1626    1644    1656       3    1608    1587    1605    1614       4
    1608    1620   -1635    1614       4    1605    1587    1608    1620       4
    1605    1614   -1635    1620       4    1593    1611    1626    1644       5
    1587    1605    1614    1635       4    1587    1608   -1620    1635       4
    1584    1566    1587    1605       6    1584    1566    1587    1608       6
    1581    1593    1611    1626       7    1575    1593    1611    1626       7
    1572    1584    1566    1587       4    1566    1587    1605    1614       4
    1566    1587    1608    1620       4    1563    1548    1554    1572       9
    1563    1560    1581    1593       4    1560    1545    1557    1575       4
    1560    1581   -1593    1575       4    1560    1581    1593    1611       4
    1557    1545    1560    1563       4    1557    1545    1560    1581       4
    1557    1575   -1593    1581       4    1557    1575    1593    1611       4
    1554    1542    1551    1566       4    1554    1548    1563    1560      10
    1554    1572   -1584    1566       4    1551    1542    1554    1572       4
    1551    1566   -1584    1572       4    1551    1566    1587    1605       6
    1551    1566    1587    1608       6    1548    1539    1545    1557      11
    1548    1539   -1545    1560      11    1548    1554    1542    1551       4
    1548    1554    1572    1584       4    1548    1563    1560    1581      12
    1545    1539    1548    1554      13    1545    1539   -1548    1563      13
    1545    1557    1575    1593       4    1545    1560   -1563    1548      12
    1545    1560   -1581    1593       4    1542    1536    1539    1545      10
    1542    1536   -1539    1548      10    1542    1551    1566    1584       4
    1542    1551    1566    1587       4    1542    1554    1548    1563       9
    1542    1554   -1572    1584       4    1539    1536    1542    1551      14
    1539    1536   -1542    1554      14    1539    1545    1557    1575       4
    1539    1545   -1560    1563       4    1539    1545    1560    1581       4
    1539    1548   -1554    1542      15    1539    1548    1554    1572      15
    1539    1548   -1563    1560      10    1536    1539    1545    1557       9
    1536    1539    1545    1560       9    1536    1539   -1548    1554      13
    1536    1539    1548    1563      13    1536    1542    1551    1566       4
    1536    1542   -1554    1548       4    1536    1542    1554    1572       4
    1875    1890    1893    1905       3    1866    1875    1890    1893       3
    1857    1866    1875    1890       3    1848    1857    1866    1875       3
    1836    1848    1857    1866       3    1818    1836    1848    1857       3
    1803    1818    1836    1848       3    1800    1779    1797    1806       4
    1800    1812   -1827    1806       4    1797    1779    1800    1812       4
    1797    1806   -1827    1812       4    1785    1803    1818    1836       5
    1779    1797    1806    1827       4    1779    1800   -1812    1827       4
    1776    1758    1779    1797       6    1776    1758    1779    1800       6
    1773    1785    1803    1818       7    1767    1785    1803    1818       7
    1764    1776    1758    1779       4    1758    1779    1797    1806       4
    1758    1779    1800    1812       4    1755    1740    1746    1764       9
    1755    1752    1773    1785       4    1752    1737    1749    1767       4
    1752    1773   -1785    1767       4    1752    1773    1785    1803       4
    1749    1737    1752    1755       4    1749    1737    1752    1773       4
    1749    1767   -1785    1773       4    1749    1767    1785    1803       4
    1746    1734    1743    1758       4    1746    1740    1755    1752      10
    1746    1764   -1776    1758       4    1743    1734    1746    1764       4
    1743    1758   -1776    1764       4    1743    1758    1779    1797       6
    1743    1758    1779    1800       6    1740    1731    1737    1749      11
    1740    1731   -1737    1752      11    1740    1746    1734    1743       4
    1740    1746    1764    1776       4    1740    1755    1752    1773      12
    1737    1731    1740    1746      13    1737    1731   -1740    1755      13
    1737    1749    1767    1785       4    1737    1752   -1755    1740      12
    1737    1752   -1773    1785       4    1734    1728    1731    1737      10
    1734    1728   -1731    1740      10    1734    1743    1758    1776       4
    1734    1743    1758    1779       4    1734    1746    1740    1755       9
    1734    1746   -1764    1776       4    1731    1728    1734    1743      14
    1731    1728   -1734    1746      14    1731    1737    1749    1767       4
    1731    1737   -1752    1755       4    1731    1737    1752    1773       4
    1731    1740   -1746    1734      15    1731    1740    1746    1764      15
    1731    1740   -1755    1752      10    1728    1731    1737    1749       9
    1728    1731    1737    1752       9    1728    1731   -1740    1746      13
    1728    1731    1740    1755      13    1728    1734    1743    1758       4
    1728    1734   -1746    1740       4    1728    1734    1746    1764       4
    2067    2082    2085    2097       3    2058    2067    2082    2085       3
    2049    2058    2067    2082       3    2040    2049    2058    2067       3
    2028    2040    2049    2058       3    2010    2028    2040    2049       3
    1995    2010    2028    2040       3    1992    1971    1989    1998       4
    1992    2004   -2019    1998       4    1989    1971    1992    2004       4
    1989    1998   -2019    2004       4    1977    1995    2010    2028       5
    1971    1989    1998    2019       4    1971    1992   -2004    2019       4
    1968    1950    1971    1989       6    1968    1950    1971    1992       6
    1965    1977    1995    2010       7    1959    1977    1995    2010       7
    1956    1968    1950    1971       4    1950    1971    1989    1998       4
    1950    1971    1992    2004       4    1947    1932    1938    1956       9
    1947    1944    1965    1977       4    1944    1929    1941    1959       4
    1944    1965   -1977    1959       4    1944    1965    1977    1995       4
    1941    1929    1944    1947       4    1941    1929    1944    1965       4
    1941    1959   -1977    1965       4    1941    1959    1977    1995       4
    1938    1926    1935    1950       4    1938    1932    1947    1944      10
    1938    1956   -1968    1950       4    1935    1926    1938    1956       4
    1935    1950   -1968    1956       4    1935    1950    1971    1989       6
    1935    1950    1971    1992       6    1932    1923    1929    1941      11
    1932    1923   -1929    1944      11    1932    1938    1926    1935       4
    1932    1938    1956    1968       4    1932    1947    1944    1965      12
    1929    1923    1932    1938      13    1929    1923   -1932    1947      13
    1929    1941    1959    1977       4    1929    1944   -1947    1932      12
    1929    1944   -1965    1977       4    1926    1920    1923    1929      10
    1926    1920   -1923    1932      10    1926    1935    1950    1968       4
    1926    1935    1950    1971       4    1926    1938    1932    1947       9
    1926    1938   -1956    1968       4    1923    1920    1926    1935      14
    1923    1920   -1926    1938      14    1923    1929    1941    1959       4
    1923    1929   -1944    1947       4    1923    1929    1944    1965       4
    1923    1932   -1938    1926      15    1923    1932    1938    1956      15
    1923    1932   -1947    1944      10    1920    1923    1929    1941       9
    1920    1923    1929    1944       9    1920    1923   -1932    1938      13
    1920    1923    1932    1947      13    1920    1926    1935    1950       4
    1920    1926   -1938    1932       4    1920    1926    1938    1956       4
    2259    2274    2277    2289       3    2250    2259    2274    2277       3
    2241    2250    2259    2274       3    2232    2241    2250    2259       3
    2220    2232    2241    2250       3    2202    2220    2232    2241       3
    2187    2202    2220    2232       3    2184    2163    2181    2190       4
    2184    2196   -2211    2190       4    2181    2163    2184    2196       4
    2181    2190   -2211    2196       4    2169    2187    2202    2220       5
    2163    2181    2190    2211       4    2163    2184   -2196    2211       4
    2160    2142    2163    2181       6    2160    2142    2163    2184       6
    2157    2169    2187    2202       7    2151    2169    2187    2202       7
    2148    2160    2142    2163       4    2142    2163    2181    2190       4
    2142    2163    2184    2196       4    2139    2124    2130    2148       9
    2139    2136    2157    2169       4    2136    2121    2133    2151       4
    2136    2157   -2169    2151       4    2136    2157    2169    2187       4
    2133    2121    2136    2139       4    2133    2121    2136    2157       4
    2133    2151   -2169    2157       4    2133    2151    2169    2187       4
    2130    2118    2127    2142       4    2130    2124    2139    2136      10
    2130    2148   -2160    2142       4    2127    2118    2130    2148       4
    2127    2142   -2160    2148       4    2127    2142    2163    2181       6
    2127    2142    2163    2184       6    2124    2115    2121    2133      11
    2124    2115   -2121    2136      11    2124    2130    2118    2127       4
    2124    2130    2148    2160       4    2124    2139    2136    2157      12
    2121    2115    2124    2130      13    2121    2115   -2124    2139      13
    2121    2133    2151    2169       4    2121    2136   -2139    2124      12
    2121    2136   -2157    2169       4    2118    2112    2115    2121      10
    2118    2112   -2115    2124      10    2118    2127    2142    2160       4
    2118    2127    2142    2163       4    2118    2130    2124    2139       9
    2118    2130   -2148    2160       4    2115    2112    2118    2127      14
    2115    2112   -2118    2130      14    2115    2121    2133    2151       4
    2115    2121   -2136    2139       4    2115    2121    2136    2157       4
    2115    2124   -2130    2118      15    2115    2124    2130    2148      15
    2115    2124   -2139    2136      10    2112    2115    2121    2133       9
    2112    2115    2121    2136       9    2112    2115   -2124    2130      13
    2112    2115    2124    2139      13    2112    2118    2127    2142       4
    2112    2118   -2130    2124       4    2112    2118    2130    2148       4
    2451    2466    2469    2481       3    2442    2451    2466    2469       3
    2433    2442    2451    2466       3    2424    2433    2442    2451       3
    2412    2424    2433    2442       3    2394    2412    2424    2433       3
    2379    2394    2412    2424       3    2376    2355    2373    2382       4
    2376    2388   -2403    2382       4    2373    2355    2376    2388       4
    2373    2382   -2403    2388       4    2361    2379    2394    2412       5
    2355    2373    2382    2403       4    2355    2376   -2388    2403       4
    2352    2334    2355    2373       6    2352    2334    2355    2376       6
    2349    2361    2379    2394       7    2343    2361    2379    2394       7
    2340    2352    2334    2355       4    2334    2355    2373    2382       4
    2334    2355    2376    2388       4    2331    2316    2322    2340       9
    2331    2328    2349    2361       4    2328    2313    2325    2343       4
    2328    2349   -2361    2343       4    2328    2349    2361    2379       4
    2325    2313    2328    2331       4    2325    2313    2328    2349       4
    2325    2343   -2361    2349       4    2325    2343    2361    2379       4
    2322    2310    2319    2334       4    2322    2316    2331    2328      10
    2322    2340   -2352    2334       4    2319    2310    2322    2340       4
    2319    2334   -2352    2340       4    2319    2334    2355    2373       6
    2319    2334    2355    2376       6    2316    2307    2313    2325      11
    2316    2307   -2313    2328      11    2316    2322    2310    2319       4
    2316    2322    2340    2352       4    2316    2331    2328    2349      12
    2313    2307    2316    2322      13    2313    2307   -2316    2331      13
    2313    2325    2343    2361       4    2313    2328   -2331    2316      12
    2313    2328   -2349    2361       4    2310    2304    2307    2313      10
    2310    2304   -2307    2316      10    2310    2319    2334    2352       4
    2310    2319    2334    2355       4    2310    2322    2316    2331       9
    2310    2322   -2340    2352       4    2307    2304    2310    2319      14
    2307    2304   -2310    2322      14    2307    2313    2325    2343       4
    2307    2313   -2328    2331       4    2307    2313    2328    2349       4
    2307    2316   -2322    2310      15    2307    2316    2322    2340      15
    2307    2316   -2331    2328      10    2304    2307    2313    2325       9
    2304    2307    2313    2328       9    2304    2307   -2316    2322      13
    2304    2307    2316    2331      13    2304    2310    2319    2334       4
    2304    2310   -2322    2316       4    2304    2310    2322    2340       4
    2643    2658    2661    2673       3    2634    2643    2658    2661       3
    2625    2634    2643    2658       3    2616    2625    2634    2643       3
    2604    2616    2625    2634       3    2586    2604    2616    2625       3
    2571    2586    2604    2616       3    2568    2547    2565    2574       4
    2568    2580   -2595    2574       4    2565    2547    2568    2580       4
    2565    2574   -2595    2580       4    2553    2571    2586    2604       5
    2547    2565    2574    2595       4    2547    2568   -2580    2595       4
    2544    2526    2547    2565       6    2544    2526    2547    2568       6
    2541    2553    2571    2586       7    2535    2553    2571    2586       7
    2532    2544    2526    2547       4    2526    2547    2565    2574       4
    2526    2547    2568    2580       4    2523    2508    2514    2532       9
    2523    2520    2541    2553       4    2520    2505    2517    2535       4
    2520    2541   -2553    2535       4    2520    2541    2553    2571       4
    2517    2505    2520    2523       4    2517    2505    2520    2541       4
    2517    2535   -2553    2541       4    2517    2535    2553    2571       4
    2514    2502    2511    2526       4    2514    2508    2523    2520      10
    2514    2532   -2544    2526       4    2511    2502    2514    2532       4
    2511    2526   -2544    2532       4    2511    2526    2547    2565       6
    2511    2526    2547    2568       6    2508    2499    2505    2517      11
    2508    2499   -2505    2520      11    2508    2514    2502    2511       4
    2508    2514    2532    2544       4    2508    2523    2520    2541      12
    2505    2499    2508    2514      13    2505    2499   -2508    2523      13
    2505    2517    2535    2553       4    2505    2520   -2523    2508      12
    2505    2520   -2541    2553       4    2502    2496    2499    2505      10
    2502    2496   -2499    2508      10    2502    2511    2526    2544       4
    2502    2511    2526    2547       4    2502    2514    2508    2523       9
    2502    2514   -2532    2544       4    2499    2496    2502    2511      14
    2499    2496   -2502    2514      14    2499    2505    2517    2535       4
    2499    2505   -2520    2523       4    2499    2505    2520    2541       4
    2499    2508   -2514    2502      15    2499    2508    2514    2532      15
    2499    2508   -2523    2520      10    2496    2499    2505    2517       9
    2496    2499    2505    2520       9    2496    2499   -2508    2514      13
    2496    2499    2508    2523      13    2496    2502    2511    2526       4
    2496    2502   -2514    2508       4    2496    2502    2514    2532       4
    2835    2850    2853    2865       3    2826    2835    2850    2853       3
    2817    2826    2835    2850       3    2808    2817    2826    2835       3
    2796    2808    2817    2826       3    2778    2796    2808    2817       3
    2763    2778    2796    2808       3    2760    2739    2757    2766       4
    2760    2772   -2787    2766       4    2757    2739    2760    2772       4
    2757    2766   -2787    2772       4    2745    2763    2778    2796       5
    2739    2757    2766    2787       4    2739    2760   -2772    2787       4
    2736    2718    2739    2757       6    2736    2718    2739    2760       6
    2733    2745    2763    2778       7    2727    2745    2763    2778       7
    2724    2736    2718    2739       4    2718    2739    2757    2766       4
    2718    2739    2760    2772       4    2715    2700    2706    2724       9
    2715    2712    2733    2745       4    2712    2697    2709    2727       4
    2712    2733   -2745    2727       4    2712    2733    2745    2763       4
    2709    2697    2712    2715       4    2709    2697    2712    2733       4
    2709    2727   -2745    2733       4    2709    2727    2745    2763       4
    2706    2694    2703    2718       4    2706    2700    2715    2712      10
    2706    2724   -2736    2718       4    2703    2694    2706    2724       4
    2703    2718   -2736    2724       4    2703    2718    2739    2757       6
    2703    2718    2739    2760       6    2700    2691    2697    2709      11
    2700    2691   -2697    2712      11    2700    2706    2694    2703       4
    2700    2706    2724    2736       4    2700    2715    2712    2733      12
    2697    2691    2700    2706      13    2697    2691   -2700    2715      13
    2697    2709    2727    2745       4    2697    2712   -2715    2700      12
    2697    2712   -2733    2745       4    2694    2688    2691    2697      10
    2694    2688   -2691    2700      10    2694    2703    2718    2736       4
    2694    2703    2718    2739       4    2694    2706    2700    2715       9
    2694    2706   -2724    2736       4    2691    2688    2694    2703      14
    2691    2688   -2694    2706      14    2691    2697    2709    2727       4
    2691    2697   -2712    2715       4    2691    2697    2712    2733       4
    2691    2700   -2706    2694      15    2691    2700    2706    2724      15
    2691    2700   -2715    2712      10    2688    2691    2697    2709       9
    2688    2691    2697    2712       9    2688    2691   -2700    2706      13
    2688    2691    2700    2715      13    2688    2694    2703    2718       4
    2688    2694   -2706    2700       4    2688    2694    2706    2724       4
    3027    3042    3045    3057       3    3018    3027    3042    3045       3
    3009    3018    3027    3042       3    3000    3009    3018    3027       3
    2988    3000    3009    3018       3    2970    2988    3000    3009       3
    2955    2970    2988    3000       3    2952    2931    2949    2958       4
    2952    2964   -2979    2958       4    2949    2931    2952    2964       4
    2949    2958   -2979    2964       4    2937    2955    2970    2988       5
    2931    2949    2958    2979       4    2931    2952   -2964    2979       4
    2928    2910    2931    2949       6    2928    2910    2931    2952       6
    2925    2937    2955    2970       7    2919    2937    2955    2970       7
    2916    2928    2910    2931       4    2910    2931    2949    2958       4
    2910    2931    2952    2964       4    2907    2892    2898    2916       9
    2907    2904    2925    2937       4    2904    2889    2901    2919       4
    2904    2925   -2937    2919       4    2904    2925    2937    2955       4
    2901    2889    2904    2907       4    2901    2889    2904    2925       4
    2901    2919   -2937    2925       4    2901    2919    2937    2955       4
    2898    2886    2895    2910       4    2898    2892    2907    2904      10
    2898    2916   -2928    2910       4    2895    2886    2898    2916       4
    2895    2910   -2928    2916       4    2895    2910    2931    2949       6
    2895    2910    2931    2952       6    2892    2883    2889    2901      11
    2892    2883   -2889    2904      11    2892    2898    2886    2895       4
    2892    2898    2916    2928       4    2892    2907    2904    2925      12
    2889    2883    2892    2898      13    2889    2883   -2892    2907      13
    2889    2901    2919    2937       4    2889    2904   -2907    2892      12
    2889    2904   -2925    2937       4    2886    2880    2883    2889      10
    2886    2880   -2883    2892      10    2886    2895    2910    2928       4
    2886    2895    2910    2931       4    2886    2898    2892    2907       9
    2886    2898   -2916    2928       4    2883    2880    2886    2895      14
    2883    2880   -2886    2898      14    2883    2889    2901    2919       4
    2883    2889   -2904    2907       4    2883    2889    2904    2925       4
    2883    2892   -2898    2886      15    2883    2892    2898    2916      15
    2883    2892   -2907    2904      10    2880    2883    2889    2901       9
    2880    2883    2889    2904       9    2880    2883   -2892    2898      13
    2880    2883    2892    2907      13    2880    2886    2895    2910       4
    2880    2886   -2898    2892       4    2880    2886    2898    2916       4
    3219    3234    3237    3249       3    3210    3219    3234    3237       3
    3201    3210    3219    3234       3    3192    3201    3210    3219       3
    3180    3192    3201    3210       3    3162    3180    3192    3201       3
    3147    3162    3180    3192       3    3144    3123    3141    3150       4
    3144    3156   -3171    3150       4    3141    3123    3144    3156       4
    3141    3150   -3171    3156       4    3129    3147    3162    3180       5
    3123    3141    3150    3171       4    3123    3144   -3156    3171       4
    3120    3102    3123    3141       6    3120    3102    3123    3144       6
    3117    3129    3147    3162       7    3111    3129    3147    3162       7
    3108    3120    3102    3123       4    3102    3123    3141    3150       4
    3102    3123    3144    3156       4    3099    3084    3090    3108       9
    3099    3096    3117    3129       4    3096    3081    3093    3111       4
    3096    3117   -3129    3111       4    3096    3117    3129    3147       4
    3093    3081    3096    3099       4    3093    3081    3096    3117       4
    3093    3111   -3129    3117       4    3093    3111    3129    3147       4
    3090    3078    3087    3102       4    3090    3084    3099    3096      10
    3090    3108   -3120    3102       4    3087    3078    3090    3108       4
    3087    3102   -3120    3108       4    3087    3102    3123    3141       6
    3087    3102    3123    3144       6    3084    3075    3081    3093      11
    3084    3075   -3081    3096      11    3084    3090    3078    3087       4
    3084    3090    3108    3120       4    3084    3099    3096    3117      12
    3081    3075    3084    3090      13    3081    3075   -3084    3099      13
    3081    3093    3111    3129       4    3081    3096   -3099    3084      12
    3081    3096   -3117    3129       4    3078    3072    3075    3081      10
    3078    3072   -3075    3084      10    3078    3087    3102    3120       4
    3078    3087    3102    3123       4    3078    3090    3084    3099       9
    3078    3090   -3108    3120       4    3075    3072    3078    3087      14
    3075    3072   -3078    3090      14    3075    3081    3093    3111       4
    3075    3081   -3096    3099       4    3075    3081    3096    3117       4
    3075    3084   -3090    3078      15    3075    3084    3090    3108      15
    3075    3084   -3099    3096      10    3072    3075    3081    3093       9
    3072    3075    3081    3096       9    3072    3075   -3084    3090      13
    3072    3075    3084    3099      13    3072    3078    3087    3102       4
    3072    3078   -3090    3084       4    3072    3078    3090    3108       4
    3411    3426    3429    3441       3    3402    3411    3426    3429       3
    3393    3402    3411    3426       3    3384    3393    3402    3411       3
    3372    3384    3393    3402       3    3354    3372    3384    3393       3
    3339    3354    3372    3384       3    3336    3315    3333    3342       4
    3336    3348   -3363    3342       4    3333    3315    3336    3348       4
    3333    3342   -3363    3348       4    3321    3339    3354    3372       5
    3315    3333    3342    3363       4    3315    3336   -3348    3363       4
    3312    3294    3315    3333       6    3312    3294    3315    3336       6
    3309    3321    3339    3354       7    3303    3321    3339    3354       7
    3300    3312    3294    3315       4    3294    3315    3333    3342       4
    3294    3315    3336    3348       4    3291    3276    3282    3300       9
    3291    3288    3309    3321       4    3288    3273    3285    3303       4
    3288    3309   -3321    3303       4    3288    3309    3321    3339       4
    3285    3273    3288    3291       4    3285    3273    3288    3309       4
    3285    3303   -3321    3309       4    3285    3303    3321    3339       4
    3282    3270    3279    3294       4    3282    3276    3291    3288      10
    3282    3300   -3312    3294       4    3279    3270    3282    3300       4
    3279    3294   -3312    3300       4    3279    3294    3315    3333       6
    3279    3294    3315    3336       6    3276    3267    3273    3285      11
    3276    3267   -3273    3288      11    3276    3282    3270    3279       4
    3276    3282    3300    3312       4    3276    3291    3288    3309      12
    3273    3267    3276    3282      13    3273    3267   -3276    3291      13
    3273    3285    3303    3321       4    3273    3288   -3291    3276      12
    3273    3288   -3309    3321       4    3270    3264    3267    3273      10
    3270    3264   -3267    3276      10    3270    3279    3294    3312       4
    3270    3279    3294    3315       4    3270    3282    3276    3291       9
    3270    3282   -3300    3312       4    3267    3264    3270    3279      14
    3267    3264   -3270    3282      14    3267    3273    3285    3303       4
    3267    3273   -3288    3291       4    3267    3273    3288    3309       4
    3267    3276   -3282    3270      15    3267    3276    3282    3300      15
    3267    3276   -3291    3288      10    3264    3267    3273    3285       9
    3264    3267    3273    3288       9    3264    3267   -3276    3282      13
    3264    3267    3276    3291      13    3264    3270    3279    3294       4
    3264    3270   -3282    3276       4    3264    3270    3282    3300       4
    3603    3618    3621    3633       3    3594    3603    3618    3621       3
    3585    3594    3603    3618       3    3576    3585    3594    3603       3
    3564    3576    3585    3594       3    3546    3564    3576    3585       3
    3531    3546    3564    3576       3    3528    3507    3525    3534       4
    3528    3540   -3555    3534       4    3525    3507    3528    3540       4
    3525    3534   -3555    3540       4    3513    3531    3546    3564       5
    3507    3525    3534    3555       4    3507    3528   -3540    3555       4
    3504    3486    3507    3525       6    3504    3486    3507    3528       6
    3501    3513    3531    3546       7    3495    3513    3531    3546       7
    3492    3504    3486    3507       4    3486    3507    3525    3534       4
    3486    3507    3528    3540       4    3483    3468    3474    3492       9
    3483    3480    3501    3513       4    3480    3465    3477    3495       4
    3480    3501   -3513    3495       4    3480    3501    3513    3531       4
    3477    3465    3480    3483       4    3477    3465    3480    3501       4
    3477    3495   -3513    3501       4    3477    3495    3513    3531       4
    3474    3462    3471    3486       4    3474    3468    3483    3480      10
    3474    3492   -3504    3486       4    3471    3462    3474    3492       4
    3471    3486   -3504    3492       4    3471    3486    3507    3525       6
    3471    3486    3507    3528       6    3468    3459    3465    3477      11
    3468    3459   -3465    3480      11    3468    3474    3462    3471       4
    3468    3474    3492    3504       4    3468    3483    3480    3501      12
    3465    3459    3468    3474      13    3465    3459   -3468    3483      13
    3465    3477    3495    3513       4    3465    3480   -3483    3468      12
    3465    3480   -3501    3513       4    3462    3456    3459    3465      10
    3462    3456   -3459    3468      10    3462    3471    3486    3504       4
    3462    3471    3486    3507       4    3462    3474    3468    3483       9
    3462    3474   -3492    3504       4    3459    3456    3462    3471      14
    3459    3456   -3462    3474      14    3459    3465    3477    3495       4
    3459    3465   -3480    3483       4    3459    3465    3480    3501       4
    3459    3468   -3474    3462      15    3459    3468    3474    3492      15
    3459    3468   -3483    3480      10    3456    3459    3465    3477       9
    3456    3459    3465    3480       9    3456    3459   -3468    3474      13
    3456    3459    3468    3483      13    3456    3462    3471    3486       4
    3456    3462   -3474    3468       4    3456    3462    3474    3492       4
    3795    3810    3813    3825       3    3786    3795    3810    3813       3
    3777    3786    3795    3810       3    3768    3777    3786    3795       3
    3756    3768    3777    3786       3    3738    3756    3768    3777       3
    3723    3738    3756    3768       3    3720    3699    3717    3726       4
    3720    3732   -3747    3726       4    3717    3699    3720    3732       4
    3717    3726   -3747    3732       4    3705    3723    3738    3756       5
    3699    3717    3726    3747       4    3699    3720   -3732    3747       4
    3696    3678    3699    3717       6    3696    3678    3699    3720       6
    3693    3705    3723    3738       7    3687    3705    3723    3738       7
    3684    3696    3678    3699       4    3678    3699    3717    3726       4
    3678    3699    3720    3732       4    3675    3660    3666    3684       9
    3675    3672    3693    3705       4    3672    3657    3669    3687       4
    3672    3693   -3705    3687       4    3672    3693    3705    3723       4
    3669    3657    3672    3675       4    3669    3657    3672    3693       4
    3669    3687   -3705    3693       4    3669    3687    3705    3723       4
    3666    3654    3663    3678       4    3666    3660    3675    3672      10
    3666    3684   -3696    3678       4    3663    3654    3666    3684       4
    3663    3678   -3696    3684       4    3663    3678    3699    3717       6
    3663    3678    3699    3720       6    3660    3651    3657    3669      11
    3660    3651   -3657    3672      11    3660    3666    3654    3663       4
    3660    3666    3684    3696       4    3660    3675    3672    3693      12
    3657    3651    3660    3666      13    3657    3651   -3660    3675      13
    3657    3669    3687    3705       4    3657    3672   -3675    3660      12
    3657    3672   -3693    3705       4    3654    3648    3651    3657      10
    3654    3648   -3651    3660      10    3654    3663    3678    3696       4
    3654    3663    3678    3699       4    3654    3666    3660    3675       9
    3654    3666   -3684    3696       4    3651    3648    3654    3663      14
    3651    3648   -3654    3666      14    3651    3657    3669    3687       4
    3651    3657   -3672    3675       4    3651    3657    3672    3693       4
    3651    3660   -3666    3654      15    3651    3660    3666    3684      15
    3651    3660   -3675    3672      10    3648    3651    3657    3669       9
    3648    3651    3657    3672       9    3648    3651   -3660    3666      13
    3648    3651    3660    3675      13    3648    3654    3663    3678       4
    3648    3654   -3666    3660       4    3648    3654    3666    3684       4
    3987    4002    4005    4017       3    3978    3987    4002    4005       3
    3969    3978    3987    4002       3    3960    3969    3978    3987       3
    3948    3960    3969    3978       3    3930    3948    3960    3969       3
    3915    3930    3948    3960       3    3912    3891    3909    3918       4
    3912    3924   -3939    3918       4    3909    3891    3912    3924       4
    3909    3918   -3939    3924       4    3897    3915    3930    3948       5
    3891    3909    3918    3939       4    3891    3912   -3924    3939       4
    3888    3870    3891    3909       6    3888    3870    3891    3912       6
    3885    3897    3915    3930       7    3879    3897    3915    3930       7
    3876    3888    3870    3891       4    3870    3891    3909    3918       4
    3870    3891    3912    3924       4    3867    3852    3858    3876       9
    3867    3864    3885    3897       4    3864    3849    3861    3879       4
    3864    3885   -3897    3879       4    3864    3885    3897    3915       4
    3861    3849    3864    3867       4    3861    3849    3864    3885       4
    3861    3879   -3897    3885       4    3861    3879    3897    3915       4
    3858    3846    3855    3870       4    3858    3852    3867    3864      10
    3858    3876   -3888    3870       4    3855    3846    3858    3876       4
    3855    3870   -3888    3876       4    3855    3870    3891    3909       6
    3855    3870    3891    3912       6    3852    3843    3849    3861      11
    3852    3843   -3849    3864      11    3852    3858    3846    3855       4
    3852    3858    3876    3888       4    3852    3867    3864    3885      12
    3849    3843    3852    3858      13    3849    3843   -3852    3867      13
    3849    3861    3879    3897       4    3849    3864   -3867    3852      12
    3849    3864   -3885    3897       4    3846    3840    3843    3849      10
    3846    3840   -3843    3852      10    3846    3855    3870    3888       4
    3846    3855    3870    3891       4    3846    3858    3852    3867       9
    3846    3858   -3876    3888       4    3843    3840    3846    3855      14
    3843    3840   -3846    3858      14    3843    3849    3861    3879       4
    3843    3849   -3864    3867       4    3843    3849    3864    3885       4
    3843    3852   -3858    3846      15    3843    3852    3858    3876      15
    3843    3852   -3867    3864      10    3840    3843    3849    3861       9
    3840    3843    3849    3864       9    3840    3843   -3852    3858      13
    3840    3843    3852    3867      13    3840    3846    3855    3870       4
    3840    3846   -3858    3852       4    3840    3846    3858    3876       4
    4179    4194    4197    4209       3    4170    4179    4194    4197       3
    4161    4170    4179    4194       3    4152    4161    4170    4179       3
    4140    4152    4161    4170       3    4122    4140    4152    4161       3
    4107    4122    4140    4152       3    4104    4083    4101    4110       4
    4104    4116   -4131    4110       4    4101    4083    4104    4116       4
    4101    4110   -4131    4116       4    4089    4107    4122    4140       5
    4083    4101    4110    4131       4    4083    4104   -4116    4131       4
    4080    4062    4083    4101       6    4080    4062    4083    4104       6
    4077    4089    4107    4122       7    4071    4089    4107    4122       7
    4068    4080    4062    4083       4    4062    4083    4101    4110       4
    4062    4083    4104    4116       4    4059    4044    4050    4068       9
    4059    4056    4077    4089       4    4056    4041    4053    4071       4
    4056    4077   -4089    4071       4    4056    4077    4089    4107       4
    4053    4041    4056    4059       4    4053    4041    4056    4077       4
    4053    4071   -4089    4077       4    4053    4071    4089    4107       4
    4050    4038    4047    4062       4    4050    4044    4059    4056      10
    4050    4068   -4080    4062       4    4047    4038    4050    4068       4
    4047    4062   -4080    4068       4    4047    4062    4083    4101       6
    4047    4062    4083    4104       6    4044    4035    4041    4053      11
    4044    4035   -4041    4056      11    4044    4050    4038    4047       4
    4044    4050    4068    4080       4    4044    4059    4056    4077      12
    4041    4035    4044    4050      13    4041    4035   -4044    4059      13
    4041    4053    4071    4089       4    4041    4056   -4059    4044      12
    4041    4056   -4077    4089       4    4038    4032    4035    4041      10
    4038    4032   -4035    4044      10    4038    4047    4062    4080       4
    4038    4047    4062    4083       4    4038    4050    4044    4059       9
    4038    4050   -4068    4080       4    4035    4032    4038    4047      14
    4035    4032   -4038    4050      14    4035    4041    4053    4071       4
    4035    4041   -4056    4059       4    4035    4041    4056    4077       4
    4035    4044   -4050    4038      15    4035    4044    4050    4068      15
    4035    4044   -4059    4056      10    4032    4035    4041    4053       9
    4032    4035    4041    4056       9    4032    4035   -4044    4050      13
    4032    4035    4044    4059      13    4032    4038    4047    4062       4
    4032    4038   -4050    4044       4    4032    4038    4050    4068       4
    4371    4386    4389    4401       3    4362    4371    4386    4389       3
    4353    4362    4371    4386       3    4344    4353    4362    4371       3
    4332    4344    4353    4362       3    4314    4332    4344    4353       3
    4299    4314    4332    4344       3    4296    4275    4293    4302       4
    4296    4308   -4323    4302       4    4293    4275    4296    4308       4
    4293    4302   -4323    4308       4    4281    4299    4314    4332       5
    4275    4293    4302    4323       4    4275    4296   -4308    4323       4
    4272    4254    4275    4293       6    4272    4254    4275    4296       6
    4269    4281    4299    4314       7    4263    4281    4299    4314       7
    4260    4272    4254    4275       4    4254    4275    4293    4302       4
    4254    4275    4296    4308       4    4251    4236    4242    4260       9
    4251    4248    4269    4281       4    4248    4233    4245    4263       4
    4248    4269   -4281    4263       4    4248    4269    4281    4299       4
    4245    4233    4248    4251       4    4245    4233    4248    4269       4
    4245    4263   -4281    4269       4    4245    4263    4281    4299       4
    4242    4230    4239    4254       4    4242    4236    4251    4248      10
    4242    4260   -4272    4254       4    4239    4230    4242    4260       4
    4239    4254   -4272    4260       4    4239    4254    4275    4293       6
    4239    4254    4275    4296       6    4236    4227    4233    4245      11
    4236    4227   -4233    4248      11    4236    4242    4230    4239       4
    4236    4242    4260    4272       4    4236    4251    4248    4269      12
    4233    4227    4236    4242      13    4233    4227   -4236    4251      13
    4233    4245    4263    4281       4    4233    4248   -4251    4236      12
    4233    4248   -4269    4281       4    4230    4224    4227    4233      10
    4230    4224   -4227    4236      10    4230    4239    4254    4272       4
    4230    4239    4254    4275       4    4230    4242    4236    4251       9
    4230    4242   -4260    4272       4    4227    4224    4230    4239      14
    4227    4224   -4230    4242      14    4227    4233    4245    4263       4
    4227    4233   -4248    4251       4    4227    4233    4248    4269       4
    4227    4236   -4242    4230      15    4227    4236    4242    4260      15
    4227    4236   -4251    4248      10    4224    4227    4233    4245       9
    4224    4227    4233    4248       9    4224    4227   -4236    4242      13
    4224    4227    4236    4251      13    4224    4230    4239    4254       4
    4224    4230   -4242    4236       4    4224    4230    4242    4260       4
    4563    4578    4581    4593       3    4554    4563    4578    4581       3
    4545    4554    4563    4578       3    4536    4545    4554    4563       3
    4524    4536    4545    4554       3    4506    4524    4536    4545       3
    4491    4506    4524    4536       3    4488    4467    4485    4494       4
    4488    4500   -4515    4494       4    4485    4467    4488    4500       4
    4485    4494   -4515    4500       4    4473    4491    4506    4524       5
    4467    4485    4494    4515       4    4467    4488   -4500    4515       4
    4464    4446    4467    4485       6    4464    4446    4467    4488       6
    4461    4473    4491    4506       7    4455    4473    4491    4506       7
    4452    4464    4446    4467       4    4446    4467    4485    4494       4
    4446    4467    4488    4500       4    4443    4428    4434    4452       9
    4443    4440    4461    4473       4    4440    4425    4437    4455       4
    4440    4461   -4473    4455       4    4440    4461    4473    4491       4
    4437    4425    4440    4443       4    4437    4425    4440    4461       4
    4437    4455   -4473    4461       4    4437    4455    4473    4491       4
    4434    4422    4431    4446       4    4434    4428    4443    4440      10
    4434    4452   -4464    4446       4    4431    4422    4434    4452       4
    4431    4446   -4464    4452       4    4431    4446    4467    4485       6
    4431    4446    4467    4488       6    4428    4419    4425    4437      11
    4428    4419   -4425    4440      11    4428    4434    4422    4431       4
    4428    4434    4452    4464       4    4428    4443    4440    4461      12
    4425    4419    4428    4434      13    4425    4419   -4428    4443      13
    4425    4437    4455    4473       4    4425    4440   -4443    4428      12
    4425    4440   -4461    4473       4    4422    4416    4419    4425      10
    4422    4416   -4419    4428      10    4422    4431    4446    4464       4
    4422    4431    4446    4467       4    4422    4434    4428    4443       9
    4422    4434   -4452    4464       4    4419    4416    4422    4431      14
    4419    4416   -4422    4434      14    4419    4425    4437    4455       4
    4419    4425   -4440    4443       4    4419    4425    4440    4461       4
    4419    4428   -4434    4422      15    4419    4428    4434    4452      15
    4419    4428   -4443    4440      10    4416    4419    4425    4437       9
    4416    4419    4425    4440       9    4416    4419   -4428    4434      13
    4416    4419    4428    4443      13    4416    4422    4431    4446       4
    4416    4422   -4434    4428       4    4416    4422    4434    4452       4
    4755    4770    4773    4785       3    4746    4755    4770    4773       3
    4737    4746    4755    4770       3    4728    4737    4746    4755       3
    4716    4728    4737    4746       3    4698    4716    4728    4737       3
    4683    4698    4716    4728       3    4680    4659    4677    4686       4
    4680    4692   -4707    4686       4    4677    4659    4680    4692       4
    4677    4686   -4707    4692       4    4665    4683    4698    4716       5
    4659    4677    4686    4707       4    4659    4680   -4692    4707       4
    4656    4638    4659    4677       6    4656    4638    4659    4680       6
    4653    4665    4683    4698       7    4647    4665    4683    4698       7
    4644    4656    4638    4659       4    4638    4659    4677    4686       4
    4638    4659    4680    4692       4    4635    4620    4626    4644       9
    4635    4632    4653    4665       4    4632    4617    4629    4647       4
    4632    4653   -4665    4647       4    4632    4653    4665    4683       4
    4629    4617    4632    4635       4    4629    4617    4632    4653       4
    4629    4647   -4665    4653       4    4629    4647    4665    4683       4
    4626    4614    4623    4638       4    4626    4620    4635    4632      10
    4626    4644   -4656    4638       4    4623    4614    4626    4644       4
    4623    4638   -4656    4644       4    4623    4638    4659    4677       6
    4623    4638    4659    4680       6    4620    4611    4617    4629      11
    4620    4611   -4617    4632      11    4620    4626    4614    4623       4
    4620    4626    4644    4656       4    4620    4635    4632    4653      12
    4617    4611    4620    4626      13    4617    4611   -4620    4635      13
    4617    4629    4647    4665       4    4617    4632   -4635    4620      12
    4617    4632   -4653    4665       4    4614    4608    4611    4617      10
    4614    4608   -4611    4620      10    4614    4623    4638    4656       4
    4614    4623    4638    4659       4    4614    4626    4620    4635       9
    4614    4626   -4644    4656       4    4611    4608    4614    4623      14
    4611    4608   -4614    4626      14    4611    4617    4629    4647       4
    4611    4617   -4632    4635       4    4611    4617    4632    4653       4
    4611    4620   -4626    4614      15    4611    4620    4626    4644      15
    4611    4620   -4635    4632      10    4608    4611    4617    4629       9
    4608    4611    4617    4632       9    4608    4611   -4620    4626      13
    4608    4611    4620    4635      13    4608    4614    4623    4638       4
    4608    4614   -4626    4620       4    4608    4614    4626    4644       4
    4947    4962    4965    4977       3    4938    4947    4962    4965       3
    4929    4938    4947    4962       3    4920    4929    4938    4947       3
    4908    4920    4929    4938       3    4890    4908    4920    4929       3
    4875    4890    4908    4920       3    4872    4851    4869    4878       4
    4872    4884   -4899    4878       4    4869    4851    4872    4884       4
    4869    4878   -4899    4884       4    4857    4875    4890    4908       5
    4851    4869    4878    4899       4    4851    4872   -4884    4899       4
    4848    4830    4851    4869       6    4848    4830    4851    4872       6
    4845    4857    4875    4890       7    4839    4857    4875    4890       7
    4836    4848    4830    4851       4    4830    4851    4869    4878       4
    4830    4851    4872    4884       4    4827    4812    4818    4836       9
    4827    4824    4845    4857       4    4824    4809    4821    4839       4
    4824    4845   -4857    4839       4    4824    4845    4857    4875       4
    4821    4809    4824    4827       4    4821    4809    4824    4845       4
    4821    4839   -4857    4845       4    4821    4839    4857    4875       4
    4818    4806    4815    4830       4    4818    4812    4827    4824      10
    4818    4836   -4848    4830       4    4815    4806    4818    4836       4
    4815    4830   -4848    4836       4    4815    4830    4851    4869       6
    4815    4830    4851    4872       6    4812    4803    4809    4821      11
    4812    4803   -4809    4824      11    4812    4818    4806    4815       4
    4812    4818    4836    4848       4    4812    4827    4824    4845      12
    4809    4803    4812    4818      13    4809    4803   -4812    4827      13
    4809    4821    4839    4857       4    4809    4824   -4827    4812      12
    4809    4824   -4845    4857       4    4806    4800    4803    4809      10
    4806    4800   -4803    4812      10    4806    4815    4830    4848       4
    4806    4815    4830    4851       4    4806    4818    4812    4827       9
    4806    4818   -4836    4848       4    4803    4800    4806    4815      14
    4803    4800   -4806    4818      14    4803    4809    4821    4839       4
    4803    4809   -4824    4827       4    4803    4809    4824    4845       4
    4803    4812   -4818    4806      15    4803    4812    4818    4836      15
    4803    4812   -4827    4824      10    4800    4803    4809    4821       9
    4800    4803    4809    4824       9    4800    4803   -4812    4818      13
    4800    4803    4812    4827      13    4800    4806    4815    4830       4
    4800    4806   -4818    4812       4    4800    4806    4818    4836       4
    5139    5154    5157    5169       3    5130    5139    5154    5157       3
    5121    5130    5139    5154       3    5112    5121    5130    5139       3
    5100    5112    5121    5130       3    5082    5100    5112    5121       3
    5067    5082    5100    5112       3    5064    5043    5061    5070       4
    5064    5076   -5091    5070       4    5061    5043    5064    5076       4
    5061    5070   -5091    5076       4    5049    5067    5082    5100       5
    5043    5061    5070    5091       4    5043    5064   -5076    5091       4
    5040    5022    5043    5061       6    5040    5022    5043    5064       6
    5037    5049    5067    5082       7    5031    5049    5067    5082       7
    5028    5040    5022    5043       4    5022    5043    5061    5070       4
    5022    5043    5064    5076       4    5019    5004    5010    5028       9
    5019    5016    5037    5049       4    5016    5001    5013    5031       4
    5016    5037   -5049    5031       4    5016    5037    5049    5067       4
    5013    5001    5016    5019       4    5013    5001    5016    5037       4
    5013    5031   -5049    5037       4    5013    5031    5049    5067       4
    5010    4998    5007    5022       4    5010    5004    5019    5016      10
    5010    5028   -5040    5022       4    5007    4998    5010    5028       4
    5007    5022   -5040    5028       4    5007    5022    5043    5061       6
    5007    5022    5043    5064       6    5004    4995    5001    5013      11
    5004    4995   -5001    5016      11    5004    5010    4998    5007       4
    5004    5010    5028    5040       4    5004    5019    5016    5037      12
    5001    4995    5004    5010      13    5001    4995   -5004    5019      13
    5001    5013    5031    5049       4    5001    5016   -5019    5004      12
    5001    5016   -5037    5049       4    4998    4992    4995    5001      10
    4998    4992   -4995    5004      10    4998    5007    5022    5040       4
    4998    5007    5022    5043       4    4998    5010    5004    5019       9
    4998    5010   -5028    5040       4    4995    4992    4998    5007      14
    4995    4992   -4998    5010      14    4995    5001    5013    5031       4
    4995    5001   -5016    5019       4    4995    5001    5016    5037       4
    4995    5004   -5010    4998      15    4995    5004    5010    5028      15
    4995    5004   -5019    5016      10    4992    4995    5001    5013       9
    4992    4995    5001    5016       9    4992    4995   -5004    5010      13
    4992    4995    5004    5019      13    4992    4998    5007    5022       4
    4992    4998   -5010    5004       4    4992    4998    5010    5028       4
    5331    5346    5349    5361       3    5322    5331    5346    5349       3
    5313    5322    5331    5346       3    5304    5313    5322    5331       3
    5292    5304    5313    5322       3    5274    5292    5304    5313       3
    5259    5274    5292    5304       3    5256    5235    5253    5262       4
    5256    5268   -5283    5262       4    5253    5235    5256    5268       4
    5253    5262   -5283    5268       4    5241    5259    5274    5292       5
    5235    5253    5262    5283       4    5235    5256   -5268    5283       4
    5232    5214    5235    5253       6    5232    5214    5235    5256       6
    5229    5241    5259    5274       7    5223    5241    5259    5274       7
    5220    5232    5214    5235       4    5214    5235    5253    5262       4
    5214    5235    5256    5268       4    5211    5196    5202    5220       9
    5211    5208    5229    5241       4    5208    5193    5205    5223       4
    5208    5229   -5241    5223       4    5208    5229    5241    5259       4
    5205    5193    5208    5211       4    5205    5193    5208    5229       4
    5205    5223   -5241    5229       4    5205    5223    5241    5259       4
    5202    5190    5199    5214       4    5202    5196    5211    5208      10
    5202    5220   -5232    5214       4    5199    5190    5202    5220       4
    5199    5214   -5232    5220       4    5199    5214    5235    5253       6
    5199    5214    5235    5256       6    5196    5187    5193    5205      11
    5196    5187   -5193    5208      11    5196    5202    5190    5199       4
    5196    5202    5220    5232       4    5196    5211    5208    5229      12
    5193    5187    5196    5202      13    5193    5187   -5196    5211      13
    5193    5205    5223    5241       4    5193    5208   -5211    5196      12
    5193    5208   -5229    5241       4    5190    5184    5187    5193      10
    5190    5184   -5187    5196      10    5190    5199    5214    5232       4
    5190    5199    5214    5235       4    5190    5202    5196    5211       9
    5190    5202   -5220    5232       4    5187    5184    5190    5199      14
    5187    5184   -5190    5202      14    5187    5193    5205    5223       4
    5187    5193   -5208    5211       4    5187    5193    5208    5229       4
    5187    5196   -5202    5190      15    5187    5196    5202    5220      15
    5187    5196   -5211    5208      10    5184    5187    5193    5205       9
    5184    5187    5193    5208       9    5184    5187   -5196    5202      13
    5184    5187    5196    5211      13    5184    5190    5199    5214       4
    5184    5190   -5202    5196       4    5184    5190    5202    5220       4
    5523    5538    5541    5553       3    5514    5523    5538    5541       3
    5505    5514    5523    5538       3    5496    5505    5514    5523       3
    5484    5496    5505    5514       3    5466    5484    5496    5505       3
    5451    5466    5484    5496       3    5448    5427    5445    5454       4
    5448    5460   -5475    5454       4    5445    5427    5448    5460       4
    5445    5454   -5475    5460       4    5433    5451    5466    5484       5
    5427    5445    5454    5475       4    5427    5448   -5460    5475       4
    5424    5406    5427    5445       6    5424    5406    5427    5448       6
    5421    5433    5451    5466       7    5415    5433    5451    5466       7
    5412    5424    5406    5427       4    5406    5427    5445    5454       4
    5406    5427    5448    5460       4    5403    5388    5394    5412       9
    5403    5400    5421    5433       4    5400    5385    5397    5415       4
    5400    5421   -5433    5415       4    5400    5421    5433    5451       4
    5397    5385    5400    5403       4    5397    5385    5400    5421       4
    5397    5415   -5433    5421       4    5397    5415    5433    5451       4
    5394    5382    5391    5406       4    5394    5388    5403    5400      10
    5394    5412   -5424    5406       4    5391    5382    5394    5412       4
    5391    5406   -5424    5412       4    5391    5406    5427    5445       6
    5391    5406    5427    5448       6    5388    5379    5385    5397      11
    5388    5379   -5385    5400      11    5388    5394    5382    5391       4
    5388    5394    5412    5424       4    5388    5403    5400    5421      12
    5385    5379    5388    5394      13    5385    5379   -5388    5403      13
    5385    5397    5415    5433       4    5385    5400   -5403    5388      12
    5385    5400   -5421    5433       4    5382    5376    5379    5385      10
    5382    5376   -5379    5388      10    5382    5391    5406    5424       4
    5382    5391    5406    5427       4    5382    5394    5388    5403       9
    5382    5394   -5412    5424       4    5379    5376    5382    5391      14
    5379    5376   -5382    5394      14    5379    5385    5397    5415       4
    5379    5385   -5400    5403       4    5379    5385    5400    5421       4
    5379    5388   -5394    5382      15    5379    5388    5394    5412      15
    5379    5388   -5403    5400      10    5376    5379    5385    5397       9
    5376    5379    5385    5400       9    5376    5379   -5388    5394      13
    5376    5379    5388    5403      13    5376    5382    5391    5406       4
    5376    5382   -5394    5388       4    5376    5382    5394    5412       4
    5715    5730    5733    5745       3    5706    5715    5730    5733       3
    5697    5706    5715    5730       3    5688    5697    5706    5715       3
    5676    5688    5697    5706       3    5658    5676    5688    5697       3
    5643    5658    5676    5688       3    5640    5619    5637    5646       4
    5640    5652   -5667    5646       4    5637    5619    5640    5652       4
    5637    5646   -5667    5652       4    5625    5643    5658    5676       5
    5619    5637    5646    5667       4    5619    5640   -5652    5667       4
    5616    5598    5619    5637       6    5616    5598    5619    5640       6
    5613    5625    5643    5658       7    5607    5625    5643    5658       7
    5604    5616    5598    5619       4    5598    5619    5637    5646       4
    5598    5619    5640    5652       4    5595    5580    5586    5604       9
    5595    5592    5613    5625       4    5592    5577    5589    5607       4
    5592    5613   -5625    5607       4    5592    5613    5625    5643       4
    5589    5577    5592    5595       4    5589    5577    5592    5613       4
    5589    5607   -5625    5613       4    5589    5607    5625    5643       4
    5586    5574    5583    5598       4    5586    5580    5595    5592      10
    5586    5604   -5616    5598       4    5583    5574    5586    5604       4
    5583    5598   -5616    5604       4    5583    5598    5619    5637       6
    5583    5598    5619    5640       6    5580    5571    5577    5589      11
    5580    5571   -5577    5592      11    5580    5586    5574    5583       4
    5580    5586    5604    5616       4    5580    5595    5592    5613      12
    5577    5571    5580    5586      13    5577    5571   -5580    5595      13
    5577    5589    5607    5625       4    5577    5592   -5595    5580      12
    5577    5592   -5613    5625       4    5574    5568    5571    5577      10
    5574    5568   -5571    5580      10    5574    5583    5598    5616       4
    5574    5583    5598    5619       4    5574    5586    5580    5595       9
    5574    5586   -5604    5616       4    5571    5568    5574    5583      14
    5571    5568   -5574    5586      14    5571    5577    5589    5607       4
    5571    5577   -5592    5595       4    5571    5577    5592    5613       4
    5571    5580   -5586    5574      15    5571    5580    5586    5604      15
    5571    5580   -5595    5592      10    5568    5571    5577    5589       9
    5568    5571    5577    5592       9    5568    5571   -5580    5586      13
    5568    5571    5580    5595      13    5568    5574    5583    5598       4
    5568    5574   -5586    5580       4    5568    5574    5586    5604       4
    5907    5922    5925    5937       3    5898    5907    5922    5925       3
    5889    5898    5907    5922       3    5880    5889    5898    5907       3
    5868    5880    5889    5898       3    5850    5868    5880    5889       3
    5835    5850    5868    5880       3    5832    5811    5829    5838       4
    5832    5844   -5859    5838       4    5829    5811    5832    5844       4
    5829    5838   -5859    5844       4    5817    5835    5850    5868       5
    5811    5829    5838    5859       4    5811    5832   -5844    5859       4
    5808    5790    5811    5829       6    5808    5790    5811    5832       6
    5805    5817    5835    5850       7    5799    5817    5835    5850       7
    5796    5808    5790    5811       4    5790    5811    5829    5838       4
    5790    5811    5832    5844       4    5787    5772    5778    5796       9
    5787    5784    5805    5817       4    5784    5769    5781    5799       4
    5784    5805   -5817    5799       4    5784    5805    5817    5835       4
    5781    5769    5784    5787       4    5781    5769    5784    5805       4
    5781    5799   -5817    5805       4    5781    5799    5817    5835       4
    5778    5766    5775    5790       4    5778    5772    5787    5784      10
    5778    5796   -5808    5790       4    5775    5766    5778    5796       4
    5775    5790   -5808    5796       4    5775    5790    5811    5829       6
    5775    5790    5811    5832       6    5772    5763    5769    5781      11
    5772    5763   -5769    5784      11    5772    5778    5766    5775       4
    5772    5778    5796    5808       4    5772    5787    5784    5805      12
    5769    5763    5772    5778      13    5769    5763   -5772    5787      13
    5769    5781    5799    5817       4    5769    5784   -5787    5772      12
    5769    5784   -5805    5817       4    5766    5760    5763    5769      10
    5766    5760   -5763    5772      10    5766    5775    5790    5808       4
    5766    5775    5790    5811       4    5766    5778    5772    5787       9
    5766    5778   -5796    5808       4    5763    5760    5766    5775      14
    5763    5760   -5766    5778      14    5763    5769    5781    5799       4
    5763    5769   -5784    5787       4    5763    5769    5784    5805       4
    5763    5772   -5778    5766      15    5763    5772    5778    5796      15
    5763    5772   -5787    5784      10    5760    5763    5769    5781       9
    5760    5763    5769    5784       9    5760    5763   -5772    5778      13
    5760    5763    5772    5787      13    5760    5766    5775    5790       4
    5760    5766   -5778    5772       4    5760    5766    5778    5796       4
    6099    6114    6117    6129       3    6090    6099    6114    6117       3
    6081    6090    6099    6114       3    6072    6081    6090    6099       3
    6060    6072    6081    6090       3    6042    6060    6072    6081       3
    6027    6042    6060    6072       3    6024    6003    6021    6030       4
    6024    6036   -6051    6030       4    6021    6003    6024    6036       4
    6021    6030   -6051    6036       4    6009    6027    6042    6060       5
    6003    6021    6030    6051       4    6003    6024   -6036    6051       4
    6000    5982    6003    6021       6    6000    5982    6003    6024       6
    5997    6009    6027    6042       7    5991    6009    6027    6042       7
    5988    6000    5982    6003       4    5982    6003    6021    6030       4
    5982    6003    6024    6036       4    5979    5964    5970    5988       9
    5979    5976    5997    6009       4    5976    5961    5973    5991       4
    5976    5997   -6009    5991       4    5976    5997    6009    6027       4
    5973    5961    5976    5979       4    5973    5961    5976    5997       4
    5973    5991   -6009    5997       4    5973    5991    6009    6027       4
    5970    5958    5967    5982       4    5970    5964    5979    5976      10
    5970    5988   -6000    5982       4    5967    5958    5970    5988       4
    5967    5982   -6000    5988       4    5967    5982    6003    6021       6
    5967    5982    6003    6024       6    5964    5955    5961    5973      11
    5964    5955   -5961    5976      11    5964    5970    5958    5967       4
    5964    5970    5988    6000       4    5964    5979    5976    5997      12
    5961    5955    5964    5970      13    5961    5955   -5964    5979      13
    5961    5973    5991    6009       4    5961    5976   -5979    5964      12
    5961    5976   -5997    6009       4    5958    5952    5955    5961      10
    5958    5952   -5955    5964      10    5958    5967    5982    6000       4
    5958    5967    5982    6003       4    5958    5970    5964    5979       9
    5958    5970   -5988    6000       4    5955    5952    5958    5967      14
    5955    5952   -5958    5970      14    5955    5961    5973    5991       4
    5955    5961   -5976    5979       4    5955    5961    5976    5997       4
    5955    5964   -5970    5958      15    5955    5964    5970    5988      15
    5955    5964   -5979    5976      10    5952    5955    5961    5973       9
    5952    5955    5961    5976       9    5952    5955   -5964    5970      13
    5952    5955    5964    5979      13    5952    5958    5967    5982       4
    5952    5958   -5970    5964       4    5952    5958    5970    5988       4
    6291    6306    6309    6321       3    6282    6291    6306    6309       3
    6273    6282    6291    6306       3    6264    6273    6282    6291       3
    6252    6264    6273    6282       3    6234    6252    6264    6273       3
    6219    6234    6252    6264       3    6216    6195    6213    6222       4
    6216    6228   -6243    6222       4    6213    6195    6216    6228       4
    6213    6222   -6243    6228       4    6201    6219    6234    6252       5
    6195    6213    6222    6243       4    6195    6216   -6228    6243       4
    6192    6174    6195    6213       6    6192    6174    6195    6216       6
    6189    6201    6219    6234       7    6183    6201    6219    6234       7
    6180    6192    6174    6195       4    6174    6195    6213    6222       4
    6174    6195    6216    6228       4    6171    6156    6162    6180       9
    6171    6168    6189    6201       4    6168    6153    6165    6183       4
    6168    6189   -6201    6183       4    6168    6189    6201    6219       4
    6165    6153    6168    6171       4    6165    6153    6168    6189       4
    6165    6183   -6201    6189       4    6165    6183    6201    6219       4
    6162    6150    6159    6174       4    6162    6156    6171    6168      10
    6162    6180   -6192    6174       4    6159    6150    6162    6180       4
    6159    6174   -6192    6180       4    6159    6174    6195    6213       6
    6159    6174    6195    6216       6    6156    6147    6153    6165      11
    6156    6147   -6153    6168      11    6156    6162    6150    6159       4
    6156    6162    6180    6192       4    6156    6171    6168    6189      12
    6153    6147    6156    6162      13    6153    6147   -6156    6171      13
    6153    6165    6183    6201       4    6153    6168   -6171    6156      12
    6153    6168   -6189    6201       4    6150    6144    6147    6153      10
    6150    6144   -6147    6156      10    6150    6159    6174    6192       4
    6150    6159    6174    6195       4    6150    6162    6156    6171       9
    6150    6162   -6180    6192       4    6147    6144    6150    6159      14
    6147    6144   -6150    6162      14    6147    6153    6165    6183       4
    6147    6153   -6168    6171       4    6147    6153    6168    6189       4
    6147    6156   -6162    6150      15    6147    6156    6162    6180      15
    6147    6156   -6171    6168      10    6144    6147    6153    6165       9
    6144    6147    6153    6168       9    6144    6147   -6156    6162      13
    6144    6147    6156    6171      13    6144    6150    6159    6174       4
    6144    6150   -6162    6156       4    6144    6150    6162    6180       4
    6483    6498    6501    6513       3    6474    6483    6498    6501       3
    6465    6474    6483    6498       3    6456    6465    6474    6483       3
    6444    6456    6465    6474       3    6426    6444    6456    6465       3
    6411    6426    6444    6456       3    6408    6387    6405    6414       4
    6408    6420   -6435    6414       4    6405    6387    6408    6420       4
    6405    6414   -6435    6420       4    6393    6411    6426    6444       5
    6387    6405    6414    6435       4    6387    6408   -6420    6435       4
    6384    6366    6387    6405       6    6384    6366    6387    6408       6
    6381    6393    6411    6426       7    6375    6393    6411    6426       7
    6372    6384    6366    6387       4    6366    6387    6405    6414       4
    6366    6387    6408    6420       4    6363    6348    6354    6372       9
    6363    6360    6381    6393       4    6360    6345    6357    6375       4
    6360    6381   -6393    6375       4    6360    6381    6393    6411       4
    6357    6345    6360    6363       4    6357    6345    6360    6381       4
    6357    6375   -6393    6381       4    6357    6375    6393    6411       4
    6354    6342    6351    6366       4    6354    6348    6363    6360      10
    6354    6372   -6384    6366       4    6351    6342    6354    6372       4
    6351    6366   -6384    6372       4    6351    6366    6387    6405       6
    6351    6366    6387    6408       6    6348    6339    6345    6357      11
    6348    6339   -6345    6360      11    6348    6354    6342    6351       4
    6348    6354    6372    6384       4    6348    6363    6360    6381      12
    6345    6339    6348    6354      13    6345    6339   -6348    6363      13
    6345    6357    6375    6393       4    6345    6360   -6363    6348      12
    6345    6360   -6381    6393       4    6342    6336    6339    6345      10
    6342    6336   -6339    6348      10    6342    6351    6366    6384       4
    6342    6351    6366    6387       4    6342    6354    6348    6363       9
    6342    6354   -6372    6384       4    6339    6336    6342    6351      14
    6339    6336   -6342    6354      14    6339    6345    6357    6375       4
    6339    6345   -6360    6363       4    6339    6345    6360    6381       4
    6339    6348   -6354    6342      15    6339    6348    6354    6372      15
    6339    6348   -6363    6360      10    6336    6339    6345    6357       9
    6336    6339    6345    6360       9    6336    6339   -6348    6354      13
    6336    6339    6348    6363      13    6336    6342    6351    6366       4
    6336    6342   -6354    6348       4    6336    6342    6354    6372       4
    6675    6690    6693    6705       3    6666    6675    6690    6693       3
    6657    6666    6675    6690       3    6648    6657    6666    6675       3
    6636    6648    6657    6666       3    6618    6636    6648    6657       3
    6603    6618    6636    6648       3    6600    6579    6597    6606       4
    6600    6612   -6627    6606       4    6597    6579    6600    6612       4
    6597    6606   -6627    6612       4    6585    6603    6618    6636       5
    6579    6597    6606    6627       4    6579    6600   -6612    6627       4
    6576    6558    6579    6597       6    6576    6558    6579    6600       6
    6573    6585    6603    6618       7    6567    6585    6603    6618       7
    6564    6576    6558    6579       4    6558    6579    6597    6606       4
    6558    6579    6600    6612       4    6555    6540    6546    6564       9
    6555    6552    6573    6585       4    6552    6537    6549    6567       4
    6552    6573   -6585    6567       4    6552    6573    6585    6603       4
    6549    6537    6552    6555       4    6549    6537    6552    6573       4
    6549    6567   -6585    6573       4    6549    6567    6585    6603       4
    6546    6534    6543    6558       4    6546    6540    6555    6552      10
    6546    6564   -6576    6558       4    6543    6534    6546    6564       4
    6543    6558   -6576    6564       4    6543    6558    6579    6597       6
    6543    6558    6579    6600       6    6540    6531    6537    6549      11
    6540    6531   -6537    6552      11    6540    6546    6534    6543       4
    6540    6546    6564    6576       4    6540    6555    6552    6573      12
    6537    6531    6540    6546      13    6537    6531   -6540    6555      13
    6537    6549    6567    6585       4    6537    6552   -6555    6540      12
    6537    6552   -6573    6585       4    6534    6528    6531    6537      10
    6534    6528   -6531    6540      10    6534    6543    6558    6576       4
    6534    6543    6558    6579       4    6534    6546    6540    6555       9
    6534    6546   -6564    6576       4    6531    6528    6534    6543      14
    6531    6528   -6534    6546      14    6531    6537    6549    6567       4
    6531    6537   -6552    6555       4    6531    6537    6552    6573       4
    6531    6540   -6546    6534      15    6531    6540    6546    6564      15
    6531    6540   -6555    6552      10    6528    6531    6537    6549       9
    6528    6531    6537    6552       9    6528    6531   -6540    6546      13
    6528    6531    6540    6555      13    6528    6534    6543    6558       4
    6528    6534   -6546    6540       4    6528    6534    6546    6564       4
    6867    6882    6885    6897       3    6858    6867    6882    6885       3
    6849    6858    6867    6882       3    6840    6849    6858    6867       3
    6828    6840    6849    6858       3    6810    6828    6840    6849       3
    6795    6810    6828    6840       3    6792    6771    6789    6798       4
    6792    6804   -6819    6798       4    6789    6771    6792    6804       4
    6789    6798   -6819    6804       4    6777    6795    6810    6828       5
    6771    6789    6798    6819       4    6771    6792   -6804    6819       4
    6768    6750    6771    6789       6    6768    6750    6771    6792       6
    6765    6777    6795    6810       7    6759    6777    6795    6810       7
    6756    6768    6750    6771       4    6750    6771    6789    6798       4
    6750    6771    6792    6804       4    6747    6732    6738    6756       9
    6747    6744    6765    6777       4    6744    6729    6741    6759       4
    6744    6765   -6777    6759       4    6744    6765    6777    6795       4
    6741    6729    6744    6747       4    6741    6729    6744    6765       4
    6741    6759   -6777    6765       4    6741    6759    6777    6795       4
    6738    6726    6735    6750       4    6738    6732    6747    6744      10
    6738    6756   -6768    6750       4    6735    6726    6738    6756       4
    6735    6750   -6768    6756       4    6735    6750    6771    6789       6
    6735    6750    6771    6792       6    6732    6723    6729    6741      11
    6732    6723   -6729    6744      11    6732    6738    6726    6735       4
    6732    6738    6756    6768       4    6732    6747    6744    6765      12
    6729    6723    6732    6738      13    6729    6723   -6732    6747      13
    6729    6741    6759    6777       4    6729    6744   -6747    6732      12
    6729    6744   -6765    6777       4    6726    6720    6723    6729      10
    6726    6720   -6723    6732      10    6726    6735    6750    6768       4
    6726    6735    6750    6771       4    6726    6738    6732    6747       9
    6726    6738   -6756    6768       4    6723    6720    6726    6735      14
    6723    6720   -6726    6738      14    6723    6729    6741    6759       4
    6723    6729   -6744    6747       4    6723    6729    6744    6765       4
    6723    6732   -6738    6726      15    6723    6732    6738    6756      15
    6723    6732   -6747    6744      10    6720    6723    6729    6741       9
    6720    6723    6729    6744       9    6720    6723   -6732    6738      13
    6720    6723    6732    6747      13    6720    6726    6735    6750       4
    6720    6726   -6738    6732       4    6720    6726    6738    6756       4
    7059    7074    7077    7089       3    7050    7059    7074    7077       3
    7041    7050    7059    7074       3    7032    7041    7050    7059       3
    7020    7032    7041    7050       3    7002    7020    7032    7041       3
    6987    7002    7020    7032       3    6984    6963    6981    6990       4
    6984    6996   -7011    6990       4    6981    6963    6984    6996       4
    6981    6990   -7011    6996       4    6969    6987    7002    7020       5
    6963    6981    6990    7011       4    6963    6984   -6996    7011       4
    6960    6942    6963    6981       6    6960    6942    6963    6984       6
    6957    6969    6987    7002       7    6951    6969    6987    7002       7
    6948    6960    6942    6963       4    6942    6963    6981    6990       4
    6942    6963    6984    6996       4    6939    6924    6930    6948       9
    6939    6936    6957    6969       4    6936    6921    6933    6951       4
    6936    6957   -6969    6951       4    6936    6957    6969    6987       4
    6933    6921    6936    6939       4    6933    6921    6936    6957       4
    6933    6951   -6969    6957       4    6933    6951    6969    6987       4
    6930    6918    6927    6942       4    6930    6924    6939    6936      10
    6930    6948   -6960    6942       4    6927    6918    6930    6948       4
    6927    6942   -6960    6948       4    6927    6942    6963    6981       6
    6927    6942    6963    6984       6    6924    6915    6921    6933      11
    6924    6915   -6921    6936      11    6924    6930    6918    6927       4
    6924    6930    6948    6960       4    6924    6939    6936    6957      12
    6921    6915    6924    6930      13    6921    6915   -6924    6939      13
    6921    6933    6951    6969       4    6921    6936   -6939    6924      12
    6921    6936   -6957    6969       4    6918    6912    6915    6921      10
    6918    6912   -6915    6924      10    6918    6927    6942    6960       4
    6918    6927    6942    6963       4    6918    6930    6924    6939       9
    6918    6930   -6948    6960       4    6915    6912    6918    6927      14
    6915    6912   -6918    6930      14    6915    6921    6933    6951       4
    6915    6921   -6936    6939       4    6915    6921    6936    6957       4
    6915    6924   -6930    6918      15    6915    6924    6930    6948      15
    6915    6924   -6939    6936      10    6912    6915    6921    6933       9
    6912    6915    6921    6936       9    6912    6915   -6924    6930      13
    6912    6915    6924    6939      13    6912    6918    6927    6942       4
    6912    6918   -6930    6924       4    6912    6918    6930    6948       4
    7251    7266    7269    7281       3    7242    7251    7266    7269       3
    7233    7242    7251    7266       3    7224    7233    7242    7251       3
    7212    7224    7233    7242       3    7194    7212    7224    7233       3
    7179    7194    7212    7224       3    7176    7155    7173    7182       4
    7176    7188   -7203    7182       4    7173    7155    7176    7188       4
    7173    7182   -7203    7188       4    7161    7179    7194    7212       5
    7155    7173    7182    7203       4    7155    7176   -7188    7203       4
    7152    7134    7155    7173       6    7152    7134    7155    7176       6
    7149    7161    7179    7194       7    7143    7161    7179    7194       7
    7140    7152    7134    7155       4    7134    7155    7173    7182       4
    7134    7155    7176    7188       4    7131    7116    7122    7140       9
    7131    7128    7149    7161       4    7128    7113    7125    7143       4
    7128    7149   -7161    7143       4    7128    7149    7161    7179       4
    7125    7113    7128    7131       4    7125    7113    7128    7149       4
    7125    7143   -7161    7149       4    7125    7143    7161    7179       4
    7122    7110    7119    7134       4    7122    7116    7131    7128      10
    7122    7140   -7152    7134       4    7119    7110    7122    7140       4
    7119    7134   -7152    7140       4    7119    7134    7155    7173       6
    7119    7134    7155    7176       6    7116    7107    7113    7125      11
    7116    7107   -7113    7128      11    7116    7122    7110    7119       4
    7116    7122    7140    7152       4    7116    7131    7128    7149      12
    7113    7107    7116    7122      13    7113    7107   -7116    7131      13
    7113    7125    7143    7161       4    7113    7128   -7131    7116      12
    7113    7128   -7149    7161       4    7110    7104    7107    7113      10
    7110    7104   -7107    7116      10    7110    7119    7134    7152       4
    7110    7119    7134    7155       4    7110    7122    7116    7131       9
    7110    7122   -7140    7152       4    7107    7104    7110    7119      14
    7107    7104   -7110    7122      14    7107    7113    7125    7143       4
    7107    7113   -7128    7131       4    7107    7113    7128    7149       4
    7107    7116   -7122    7110      15    7107    7116    7122    7140      15
    7107    7116   -7131    7128      10    7104    7107    7113    7125       9
    7104    7107    7113    7128       9    7104    7107   -7116    7122      13
    7104    7107    7116    7131      13    7104    7110    7119    7134       4
    7104    7110   -7122    7116       4    7104    7110    7122    7140       4
    7443    7458    7461    7473       3    7434    7443    7458    7461       3
    7425    7434    7443    7458       3    7416    7425    7434    7443       3
    7404    7416    7425    7434       3    7386    7404    7416    7425       3
    7371    7386    7404    7416       3    7368    7347    7365    7374       4
    7368    7380   -7395    7374       4    7365    7347    7368    7380       4
    7365    7374   -7395    7380       4    7353    7371    7386    7404       5
    7347    7365    7374    7395       4    7347    7368   -7380    7395       4
    7344    7326    7347    7365       6    7344    7326    7347    7368       6
    7341    7353    7371    7386       7    7335    7353    7371    7386       7
    7332    7344    7326    7347       4    7326    7347    7365    7374       4
    7326    7347    7368    7380       4    7323    7308    7314    7332       9
    7323    7320    7341    7353       4    7320    7305    7317    7335       4
    7320    7341   -7353    7335       4    7320    7341    7353    7371       4
    7317    7305    7320    7323       4    7317    7305    7320    7341       4
    7317    7335   -7353    7341       4    7317    7335    7353    7371       4
    7314    7302    7311    7326       4    7314    7308    7323    7320      10
    7314    7332   -7344    7326       4    7311    7302    7314    7332       4
    7311    7326   -7344    7332       4    7311    7326    7347    7365       6
    7311    7326    7347    7368       6    7308    7299    7305    7317      11
    7308    7299   -7305    7320      11    7308    7314    7302    7311       4
    7308    7314    7332    7344       4    7308    7323    7320    7341      12
    7305    7299    7308    7314      13    7305    7299   -7308    7323      13
    7305    7317    7335    7353       4    7305    7320   -7323    7308      12
    7305    7320   -7341    7353       4    7302    7296    7299    7305      10
    7302    7296   -7299    7308      10    7302    7311    7326    7344       4
    7302    7311    7326    7347       4    7302    7314    7308    7323       9
    7302    7314   -7332    7344       4    7299    7296    7302    7311      14
    7299    7296   -7302    7314      14    7299    7305    7317    7335       4
    7299    7305   -7320    7323       4    7299    7305    7320    7341       4
    7299    7308   -7314    7302      15    7299    7308    7314    7332      15
    7299    7308   -7323    7320      10    7296    7299    7305    7317       9
    7296    7299    7305    7320       9    7296    7299   -7308    7314      13
    7296    7299    7308    7323      13    7296    7302    7311    7326       4
    7296    7302   -7314    7308       4    7296    7302    7314    7332       4
    7635    7650    7653    7665       3    7626    7635    7650    7653       3
    7617    7626    7635    7650       3    7608    7617    7626    7635       3
    7596    7608    7617    7626       3    7578    7596    7608    7617       3
    7563    7578    7596    7608       3    7560    7539    7557    7566       4
    7560    7572   -7587    7566       4    7557    7539    7560    7572       4
    7557    7566   -7587    7572       4    7545    7563    7578    7596       5
    7539    7557    7566    7587       4    7539    7560   -7572    7587       4
    7536    7518    7539    7557       6    7536    7518    7539    7560       6
    7533    7545    7563    7578       7    7527    7545    7563    7578       7
    7524    7536    7518    7539       4    7518    7539    7557    7566       4
    7518    7539    7560    7572       4    7515    7500    7506    7524       9
    7515    7512    7533    7545       4    7512    7497    7509    7527       4
    7512    7533   -7545    7527       4    7512    7533    7545    7563       4
    7509    7497    7512    7515       4    7509    7497    7512    7533       4
    7509    7527   -7545    7533       4    7509    7527    7545    7563       4
    7506    7494    7503    7518       4    7506    7500    7515    7512      10
    7506    7524   -7536    7518       4    7503    7494    7506    7524       4
    7503    7518   -7536    7524       4    7503    7518    7539    7557       6
    7503    7518    7539    7560       6    7500    7491    7497    7509      11
    7500    7491   -7497    7512      11    7500    7506    7494    7503       4
    7500    7506    7524    7536       4    7500    7515    7512    7533      12
    7497    7491    7500    7506      13    7497    7491   -7500    7515      13
    7497    7509    7527    7545       4    7497    7512   -7515    7500      12
    7497    7512   -7533    7545       4    7494    7488    7491    7497      10
    7494    7488   -7491    7500      10    7494    7503    7518    7536       4
    7494    7503    7518    7539       4    7494    7506    7500    7515       9
    7494    7506   -7524    7536       4    7491    7488    7494    7503      14
    7491    7488   -7494    7506      14    7491    7497    7509    7527       4
    7491    7497   -7512    7515       4    7491    7497    7512    7533       4
    7491    7500   -7506    7494      15    7491    7500    7506    7524      15
    7491    7500   -7515    7512      10    7488    7491    7497    7509       9
    7488    7491    7497    7512       9    7488    7491   -7500    7506      13
    7488    7491    7500    7515      13    7488    7494    7503    7518       4
    7488    7494   -7506    7500       4    7488    7494    7506    7524       4
    7827    7842    7845    7857       3    7818    7827    7842    7845       3
    7809    7818    7827    7842       3    7800    7809    7818    7827       3
    7788    7800    7809    7818       3    7770    7788    7800    7809       3
    7755    7770    7788    7800       3    7752    7731    7749    7758       4
    7752    7764   -7779    7758       4    7749    7731    7752    7764       4
    7749    7758   -7779    7764       4    7737    7755    7770    7788       5
    7731    7749    7758    7779       4    7731    7752   -7764    7779       4
    7728    7710    7731    7749       6    7728    7710    7731    7752       6
    7725    7737    7755    7770       7    7719    7737    7755    7770       7
    7716    7728    7710    7731       4    7710    7731    7749    7758       4
    7710    7731    7752    7764       4    7707    7692    7698    7716       9
    7707    7704    7725    7737       4    7704    7689    7701    7719       4
    7704    7725   -7737    7719       4    7704    7725    7737    7755       4
    7701    7689    7704    7707       4    7701    7689    7704    7725       4
    7701    7719   -7737    7725       4    7701    7719    7737    7755       4
    7698    7686    7695    7710       4    7698    7692    7707    7704      10
    7698    7716   -7728    7710       4    7695    7686    7698    7716       4
    7695    7710   -7728    7716       4    7695    7710    7731    7749       6
    7695    7710    7731    7752       6    7692    7683    7689    7701      11
    7692    7683   -7689    7704      11    7692    7698    7686    7695       4
    7692    7698    7716    7728       4    7692    7707    7704    7725      12
    7689    7683    7692    7698      13    7689    7683   -7692    7707      13
    7689    7701    7719    7737       4    7689    7704   -7707    7692      12
    7689    7704   -7725    7737       4    7686    7680    7683    7689      10
    7686    7680   -7683    7692      10    7686    7695    7710    7728       4
    7686    7695    7710    7731       4    7686    7698    7692    7707       9
    7686    7698   -7716    7728       4    7683    7680    7686    7695      14
    7683    7680   -7686    7698      14    7683    7689    7701    7719       4
    7683    7689   -7704    7707       4    7683    7689    7704    7725       4
    7683    7692   -7698    7686      15    7683    7692    7698    7716      15
    7683    7692   -7707    7704      10    7680    7683    7689    7701       9
    7680    7683    7689    7704       9    7680    7683   -7692    7698      13
    7680    7683    7692    7707      13    7680    7686    7695    7710       4
    7680    7686   -7698    7692       4    7680    7686    7698    7716       4
    8019    8034    8037    8049       3    8010    8019    8034    8037       3
    8001    8010    8019    8034       3    7992    8001    8010    8019       3
    7980    7992    8001    8010       3    7962    7980    7992    8001       3
    7947    7962    7980    7992       3    7944    7923    7941    7950       4
    7944    7956   -7971    7950       4    7941    7923    7944    7956       4
    7941    7950   -7971    7956       4    7929    7947    7962    7980       5
    7923    7941    7950    7971       4    7923    7944   -7956    7971       4
    7920    7902    7923    7941       6    7920    7902    7923    7944       6
    7917    7929    7947    7962       7    7911    7929    7947    7962       7
    7908    7920    7902    7923       4    7902    7923    7941    7950       4
    7902    7923    7944    7956       4    7899    7884    7890    7908       9
    7899    7896    7917    7929       4    7896    7881    7893    7911       4
    7896    7917   -7929    7911       4    7896    7917    7929    7947       4
    7893    7881    7896    7899       4    7893    7881    7896    7917       4
    7893    7911   -7929    7917       4    7893    7911    7929    7947       4
    7890    7878    7887    7902       4    7890    7884    7899    7896      10
    7890    7908   -7920    7902       4    7887    7878    7890    7908       4
    7887    7902   -7920    7908       4    7887    7902    7923    7941       6
    7887    7902    7923    7944       6    7884    7875    7881    7893      11
    7884    7875   -7881    7896      11    7884    7890    7878    7887       4
    7884    7890    7908    7920       4    7884    7899    7896    7917      12
    7881    7875    7884    7890      13    7881    7875   -7884    7899      13
    7881    7893    7911    7929       4    7881    7896   -7899    7884      12
    7881    7896   -7917    7929       4    7878    7872    7875    7881      10
    7878    7872   -7875    7884      10    7878    7887    7902    7920       4
    7878    7887    7902    7923       4    7878    7890    7884    7899       9
    7878    7890   -7908    7920       4    7875    7872    7878    7887      14
    7875    7872   -7878    7890      14    7875    7881    7893    7911       4
    7875    7881   -7896    7899       4    7875    7881    7896    7917       4
    7875    7884   -7890    7878      15    7875    7884    7890    7908      15
    7875    7884   -7899    7896      10    7872    7875    7881    7893       9
    7872    7875    7881    7896       9    7872    7875   -7884    7890      13
    7872    7875    7884    7899      13    7872    7878    7887    7902       4
    7872    7878   -7890    7884       4    7872    7878    7890    7908       4
    8211    8226    8229    8241       3    8202    8211    8226    8229       3
    8193    8202    8211    8226       3    8184    8193    8202    8211       3
    8172    8184    8193    8202       3    8154    8172    8184    8193       3
    8139    8154    8172    8184       3    8136    8115    8133    8142       4
    8136    8148   -8163    8142       4    8133    8115    8136    8148       4
    8133    8142   -8163    8148       4    8121    8139    8154    8172       5
    8115    8133    8142    8163       4    8115    8136   -8148    8163       4
    8112    8094    8115    8133       6    8112    8094    8115    8136       6
    8109    8121    8139    8154       7    8103    8121    8139    8154       7
    8100    8112    8094    8115       4    8094    8115    8133    8142       4
    8094    8115    8136    8148       4    8091    8076    8082    8100       9
    8091    8088    8109    8121       4    8088    8073    8085    8103       4
    8088    8109   -8121    8103       4    8088    8109    8121    8139       4
    8085    8073    8088    8091       4    8085    8073    8088    8109       4
    8085    8103   -8121    8109       4    8085    8103    8121    8139       4
    8082    8070    8079    8094       4    8082    8076    8091    8088      10
    8082    8100   -8112    8094       4    8079    8070    8082    8100       4
    8079    8094   -8112    8100       4    8079    8094    8115    8133       6
    8079    8094    8115    8136       6    8076    8067    8073    8085      11
    8076    8067   -8073    8088      11    8076    8082    8070    8079       4
    8076    8082    8100    8112       4    8076    8091    8088    8109      12
    8073    8067    8076    8082      13    8073    8067   -8076    8091      13
    8073    8085    8103    8121       4    8073    8088   -8091    8076      12
    8073    8088   -8109    8121       4    8070    8064    8067    8073      10
    8070    8064   -8067    8076      10    8070    8079    8094    8112       4
    8070    8079    8094    8115       4    8070    8082    8076    8091       9
    8070    8082   -8100    8112       4    8067    8064    8070    8079      14
    8067    8064   -8070    8082      14    8067    8073    8085    8103       4
    8067    8073   -8088    8091       4    8067    8073    8088    8109       4
    8067    8076   -8082    8070      15    8067    8076    8082    8100      15
    8067    8076   -8091    8088      10    8064    8067    8073    8085       9
    8064    8067    8073    8088       9    8064    8067   -8076    8082      13
    8064    8067    8076    8091      13    8064    8070    8079    8094       4
    8064    8070   -8082    8076       4    8064    8070    8082    8100       4
    8403    8418    8421    8433       3    8394    8403    8418    8421       3
    8385    8394    8403    8418       3    8376    8385    8394    8403       3
    8364    8376    8385    8394       3    8346    8364    8376    8385       3
    8331    8346    8364    8376       3    8328    8307    8325    8334       4
    8328    8340   -8355    8334       4    8325    8307    8328    8340       4
    8325    8334   -8355    8340       4    8313    8331    8346    8364       5
    8307    8325    8334    8355       4    8307    8328   -8340    8355       4
    8304    8286    8307    8325       6    8304    8286    8307    8328       6
    8301    8313    8331    8346       7    8295    8313    8331    8346       7
    8292    8304    8286    8307       4    8286    8307    8325    8334       4
    8286    8307    8328    8340       4    8283    8268    8274    8292       9
    8283    8280    8301    8313       4    8280    8265    8277    8295       4
    8280    8301   -8313    8295       4    8280    8301    8313    8331       4
    8277    8265    8280    8283       4    8277    8265    8280    8301       4
    8277    8295   -8313    8301       4    8277    8295    8313    8331       4
    8274    8262    8271    8286       4    8274    8268    8283    8280      10
    8274    8292   -8304    8286       4    8271    8262    8274    8292       4
    8271    8286   -8304    8292       4    8271    8286    8307    8325       6
    8271    8286    8307    8328       6    8268    8259    8265    8277      11
    8268    8259   -8265    8280      11    8268    8274    8262    8271       4
    8268    8274    8292    8304       4    8268    8283    8280    8301      12
    8265    8259    8268    8274      13    8265    8259   -8268    8283      13
    8265    8277    8295    8313       4    8265    8280   -8283    8268      12
    8265    8280   -8301    8313       4    8262    8256    8259    8265      10
    8262    8256   -8259    8268      10    8262    8271    8286    8304       4
    8262    8271    8286    8307       4    8262    8274    8268    8283       9
    8262    8274   -8292    8304       4    8259    8256    8262    8271      14
    8259    8256   -8262    8274      14    8259    8265    8277    8295       4
    8259    8265   -8280    8283       4    8259    8265    8280    8301       4
    8259    8268   -8274    8262      15    8259    8268    8274    8292      15
    8259    8268   -8283    8280      10    8256    8259    8265    8277       9
    8256    8259    8265    8280       9    8256    8259   -8268    8274      13
    8256    8259    8268    8283      13    8256    8262    8271    8286       4
    8256    8262   -8274    8268       4    8256    8262    8274    8292       4
    8595    8610    8613    8625       3    8586    8595    8610    8613       3
    8577    8586    8595    8610       3    8568    8577    8586    8595       3
    8556    8568    8577    8586       3    8538    8556    8568    8577       3
    8523    8538    8556    8568       3    8520    8499    8517    8526       4
    8520    8532   -8547    8526       4    8517    8499    8520    8532       4
    8517    8526   -8547    8532       4    8505    8523    8538    8556       5
    8499    8517    8526    8547       4    8499    8520   -8532    8547       4
    8496    8478    8499    8517       6    8496    8478    8499    8520       6
    8493    8505    8523    8538       7    8487    8505    8523    8538       7
    8484    8496    8478    8499       4    8478    8499    8517    8526       4
    8478    8499    8520    8532       4    8475    8460    8466    8484       9
    8475    8472    8493    8505       4    8472    8457    8469    8487       4
    8472    8493   -8505    8487       4    8472    8493    8505    8523       4
    8469    8457    8472    8475       4    8469    8457    8472    8493       4
    8469    8487   -8505    8493       4    8469    8487    8505    8523       4
    8466    8454    8463    8478       4    8466    8460    8475    8472      10
    8466    8484   -8496    8478       4    8463    8454    8466    8484       4
    8463    8478   -8496    8484       4    8463    8478    8499    8517       6
    8463    8478    8499    8520       6    8460    8451    8457    8469      11
    8460    8451   -8457    8472      11    8460    8466    8454    8463       4
    8460    8466    8484    8496       4    8460    8475    8472    8493      12
    8457    8451    8460    8466      13    8457    8451   -8460    8475      13
    8457    8469    8487    8505       4    8457    8472   -8475    8460      12
    8457    8472   -8493    8505       4    8454    8448    8451    8457      10
    8454    8448   -8451    8460      10    8454    8463    8478    8496       4
    8454    8463    8478    8499       4    8454    8466    8460    8475       9
    8454    8466   -8484    8496       4    8451    8448    8454    8463      14
    8451    8448   -8454    8466      14    8451    8457    8469    8487       4
    8451    8457   -8472    8475       4    8451    8457    8472    8493       4
    8451    8460   -8466    8454      15    8451    8460    8466    8484      15
    8451    8460   -8475    8472      10    8448    8451    8457    8469       9
    8448    8451    8457    8472       9    8448    8451   -8460    8466      13
    8448    8451    8460    8475      13    8448    8454    8463    8478       4
    8448    8454   -8466    8460       4    8448    8454    8466    8484       4
    8787    8802    8805    8817       3    8778    8787    8802    8805       3
    8769    8778    8787    8802       3    8760    8769    8778    8787       3
    8748    8760    8769    8778       3    8730    8748    8760    8769       3
    8715    8730    8748    8760       3    8712    8691    8709    8718       4
    8712    8724   -8739    8718       4    8709    8691    8712    8724       4
    8709    8718   -8739    8724       4    8697    8715    8730    8748       5
    8691    8709    8718    8739       4    8691    8712   -8724    8739       4
    8688    8670    8691    8709       6    8688    8670    8691    8712       6
    8685    8697    8715    8730       7    8679    8697    8715    8730       7
    8676    8688    8670    8691       4    8670    8691    8709    8718       4
    8670    8691    8712    8724       4    8667    8652    8658    8676       9
    8667    8664    8685    8697       4    8664    8649    8661    8679       4
    8664    8685   -8697    8679       4    8664    8685    8697    8715       4
    8661    8649    8664    8667       4    8661    8649    8664    8685       4
    8661    8679   -8697    8685       4    8661    8679    8697    8715       4
    8658    8646    8655    8670       4    8658    8652    8667    8664      10
    8658    8676   -8688    8670       4    8655    8646    8658    8676       4
    8655    8670   -8688    8676       4    8655    8670    8691    8709       6
    8655    8670    8691    8712       6    8652    8643    8649    8661      11
    8652    8643   -8649    8664      11    8652    8658    8646    8655       4
    8652    8658    8676    8688       4    8652    8667    8664    8685      12
    8649    8643    8652    8658      13    8649    8643   -8652    8667      13
    8649    8661    8679    8697       4    8649    8664   -8667    8652      12
    8649    8664   -8685    8697       4    8646    8640    8643    8649      10
    8646    8640   -8643    8652      10    8646    8655    8670    8688       4
    8646    8655    8670    8691       4    8646    8658    8652    8667       9
    8646    8658   -8676    8688       4    8643    8640    8646    8655      14
    8643    8640   -8646    8658      14    8643    8649    8661    8679       4
    8643    8649   -8664    8667       4    8643    8649    8664    8685       4
    8643    8652   -8658    8646      15    8643    8652    8658    8676      15
    8643    8652   -8667    8664      10    8640    8643    8649    8661       9
    8640    8643    8649    8664       9    8640    8643   -8652    8658      13
    8640    8643    8652    8667      13    8640    8646    8655    8670       4
    8640    8646   -8658    8652       4    8640    8646    8658    8676       4
    8979    8994    8997    9009       3    8970    8979    8994    8997       3
    8961    8970    8979    8994       3    8952    8961    8970    8979       3
    8940    8952    8961    8970       3    8922    8940    8952    8961       3
    8907    8922    8940    8952       3    8904    8883    8901    8910       4
    8904    8916   -8931    8910       4    8901    8883    8904    8916       4
    8901    8910   -8931    8916       4    8889    8907    8922    8940       5
    8883    8901    8910    8931       4    8883    8904   -8916    8931       4
    8880    8862    8883    8901       6    8880    8862    8883    8904       6
    8877    8889    8907    8922       7    8871    8889    8907    8922       7
    8868    8880    8862    8883       4    8862    8883    8901    8910       4
    8862    8883    8904    8916       4    8859    8844    8850    8868       9
    8859    8856    8877    8889       4    8856    8841    8853    8871       4
    8856    8877   -8889    8871       4    8856    8877    8889    8907       4
    8853    8841    8856    8859       4    8853    8841    8856    8877       4
    8853    8871   -8889    8877       4    8853    8871    8889    8907       4
    8850    8838    8847    8862       4    8850    8844    8859    8856      10
    8850    8868   -8880    8862       4    8847    8838    8850    8868       4
    8847    8862   -8880    8868       4    8847    8862    8883    8901       6
    8847    8862    8883    8904       6    8844    8835    8841    8853      11
    8844    8835   -8841    8856      11    8844    8850    8838    8847       4
    8844    8850    8868    8880       4    8844    8859    8856    8877      12
    8841    8835    8844    8850      13    8841    8835   -8844    8859      13
    8841    8853    8871    8889       4    8841    8856   -8859    8844      12
    8841    8856   -8877    8889       4    8838    8832    8835    8841      10
    8838    8832   -8835    8844      10    8838    8847    8862    8880       4
    8838    8847    8862    8883       4    8838    8850    8844    8859       9
    8838    8850   -8868    8880       4    8835    8832    8838    8847      14
    8835    8832   -8838    8850      14    8835    8841    8853    8871       4
    8835    8841   -8856    8859       4    8835    8841    8856    8877       4
    8835    8844   -8850    8838      15    8835    8844    8850    8868      15
    8835    8844   -8859    8856      10    8832    8835    8841    8853       9
    8832    8835    8841    8856       9    8832    8835   -8844    8850      13
    8832    8835    8844    8859      13    8832    8838    8847    8862       4
    8832    8838   -8850    8844       4    8832    8838    8850    8868       4
    9171    9186    9189    9201       3    9162    9171    9186    9189       3
    9153    9162    9171    9186       3    9144    9153    9162    9171       3
    9132    9144    9153    9162       3    9114    9132    9144    9153       3
    9099    9114    9132    9144       3    9096    9075    9093    9102       4
    9096    9108   -9123    9102       4    9093    9075    9096    9108       4
    9093    9102   -9123    9108       4    9081    9099    9114    9132       5
    9075    9093    9102    9123       4    9075    9096   -9108    9123       4
    9072    9054    9075    9093       6    9072    9054    9075    9096       6
    9069    9081    9099    9114       7    9063    9081    9099    9114       7
    9060    9072    9054    9075       4    9054    9075    9093    9102       4
    9054    9075    9096    9108       4    9051    9036    9042    9060       9
    9051    9048    9069    9081       4    9048    9033    9045    9063       4
    9048    9069   -9081    9063       4    9048    9069    9081    9099       4
    9045    9033    9048    9051       4    9045    9033    9048    9069       4
    9045    9063   -9081    9069       4    9045    9063    9081    9099       4
    9042    9030    9039    9054       4    9042    9036    9051    9048      10
    9042    9060   -9072    9054       4    9039    9030    9042    9060       4
    9039    9054   -9072    9060       4    9039    9054    9075    9093       6
    9039    9054    9075    9096       6    9036    9027    9033    9045      11
    9036    9027   -9033    9048      11    9036    9042    9030    9039       4
    9036    9042    9060    9072       4    9036    9051    9048    9069      12
    9033    9027    9036    9042      13    9033    9027   -9036    9051      13
    9033    9045    9063    9081       4    9033    9048   -9051    9036      12
    9033    9048   -9069    9081       4    9030    9024    9027    9033      10
    9030    9024   -9027    9036      10    9030    9039    9054    9072       4
    9030    9039    9054    9075       4    9030    9042    9036    9051       9
    9030    9042   -9060    9072       4    9027    9024    9030    9039      14
    9027    9024   -9030    9042      14    9027    9033    9045    9063       4
    9027    9033   -9048    9051       4    9027    9033    9048    9069       4
    9027    9036   -9042    9030      15    9027    9036    9042    9060      15
    9027    9036   -9051    9048      10    9024    9027    9033    9045       9
    9024    9027    9033    9048       9    9024    9027   -9036    9042      13
    9024    9027    9036    9051      13    9024    9030    9039    9054       4
    9024    9030   -9042    9036       4    9024    9030    9042    9060       4
    9363    9378    9381    9393       3    9354    9363    9378    9381       3
    9345    9354    9363    9378       3    9336    9345    9354    9363       3
    9324    9336    9345    9354       3    9306    9324    9336    9345       3
    9291    9306    9324    9336       3    9288    9267    9285    9294       4
    9288    9300   -9315    9294       4    9285    9267    9288    9300       4
    9285    9294   -9315    9300       4    9273    9291    9306    9324       5
    9267    9285    9294    9315       4    9267    9288   -9300    9315       4
    9264    9246    9267    9285       6    9264    9246    9267    9288       6
    9261    9273    9291    9306       7    9255    9273    9291    9306       7
    9252    9264    9246    9267       4    9246    9267    9285    9294       4
    9246    9267    9288    9300       4    9243    9228    9234    9252       9
    9243    9240    9261    9273       4    9240    9225    9237    9255       4
    9240    9261   -9273    9255       4    9240    9261    9273    9291       4
    9237    9225    9240    9243       4    9237    9225    9240    9261       4
    9237    9255   -9273    9261       4    9237    9255    9273    9291       4
    9234    9222    9231    9246       4    9234    9228    9243    9240      10
    9234    9252   -9264    9246       4    9231    9222    9234    9252       4
    9231    9246   -9264    9252       4    9231    9246    9267    9285       6
    9231    9246    9267    9288       6    9228    9219    9225    9237      11
    9228    9219   -9225    9240      11    9228    9234    9222    9231       4
    9228    9234    9252    9264       4    9228    9243    9240    9261      12
    9225    9219    9228    9234      13    9225    9219   -9228    9243      13
    9225    9237    9255    9273       4    9225    9240   -9243    9228      12
    9225    9240   -9261    9273       4    9222    9216    9219    9225      10
    9222    9216   -9219    9228      10    9222    9231    9246    9264       4
    9222    9231    9246    9267       4    9222    9234    9228    9243       9
    9222    9234   -9252    9264       4    9219    9216    9222    9231      14
    9219    9216   -9222    9234      14    9219    9225    9237    9255       4
    9219    9225   -9240    9243       4    9219    9225    9240    9261       4
    9219    9228   -9234    9222      15    9219    9228    9234    9252      15
    9219    9228   -9243    9240      10    9216    9219    9225    9237       9
    9216    9219    9225    9240       9    9216    9219   -9228    9234      13
    9216    9219    9228    9243      13    9216    9222    9231    9246       4
    9216    9222   -9234    9228       4    9216    9222    9234    9252       4
    9555    9570    9573    9585       3    9546    9555    9570    9573       3
    9537    9546    9555    9570       3    9528    9537    9546    9555       3
    9516    9528    9537    9546       3    9498    9516    9528    9537       3
    9483    9498    9516    9528       3    9480    9459    9477    9486       4
    9480    9492   -9507    9486       4    9477    9459    9480    9492       4
    9477    9486   -9507    9492       4    9465    9483    9498    9516       5
    9459    9477    9486    9507       4    9459    9480   -9492    9507       4
    9456    9438    9459    9477       6    9456    9438    9459    9480       6
    9453    9465    9483    9498       7    9447    9465    9483    9498       7
    9444    9456    9438    9459       4    9438    9459    9477    9486       4
    9438    9459    9480    9492       4    9435    9420    9426    9444       9
    9435    9432    9453    9465       4    9432    9417    9429    9447       4
    9432    9453   -9465    9447       4    9432    9453    9465    9483       4
    9429    9417    9432    9435       4    9429    9417    9432    9453       4
    9429    9447   -9465    9453       4    9429    9447    9465    9483       4
    9426    9414    9423    9438       4    9426    9420    9435    9432      10
    9426    9444   -9456    9438       4    9423    9414    9426    9444       4
    9423    9438   -9456    9444       4    9423    9438    9459    9477       6
    9423    9438    9459    9480       6    9420    9411    9417    9429      11
    9420    9411   -9417    9432      11    9420    9426    9414    9423       4
    9420    9426    9444    9456       4    9420    9435    9432    9453      12
    9417    9411    9420    9426      13    9417    9411   -9420    9435      13
    9417    9429    9447    9465       4    9417    9432   -9435    9420      12
    9417    9432   -9453    9465       4    9414    9408    9411    9417      10
    9414    9408   -9411    9420      10    9414    9423    9438    9456       4
    9414    9423    9438    9459       4    9414    9426    9420    9435       9
    9414    9426   -9444    9456       4    9411    9408    9414    9423      14
    9411    9408   -9414    9426      14    9411    9417    9429    9447       4
    9411    9417   -9432    9435       4    9411    9417    9432    9453       4
    9411    9420   -9426    9414      15    9411    9420    9426    9444      15
    9411    9420   -9435    9432      10    9408    9411    9417    9429       9
    9408    9411    9417    9432       9    9408    9411   -9420    9426      13
    9408    9411    9420    9435      13    9408    9414    9423    9438       4
    9408    9414   -9426    9420       4    9408    9414    9426    9444       4
    9747    9762    9765    9777       3    9738    9747    9762    9765       3
    9729    9738    9747    9762       3    9720    9729    9738    9747       3
    9708    9720    9729    9738       3    9690    9708    9720    9729       3
    9675    9690    9708    9720       3    9672    9651    9669    9678       4
    9672    9684   -9699    9678       4    9669    9651    9672    9684       4
    9669    9678   -9699    9684       4    9657    9675    9690    9708       5
    9651    9669    9678    9699       4    9651    9672   -9684    9699       4
    9648    9630    9651    9669       6    9648    9630    9651    9672       6
    9645    9657    9675    9690       7    9639    9657    9675    9690       7
    9636    9648    9630    9651       4    9630    9651    9669    9678       4
    9630    9651    9672    9684       4    9627    9612    9618    9636       9
    9627    9624    9645    9657       4    9624    9609    9621    9639       4
    9624    9645   -9657    9639       4    9624    9645    9657    9675       4
    9621    9609    9624    9627       4    9621    9609    9624    9645       4
    9621    9639   -9657    9645       4    9621    9639    9657    9675       4
    9618    9606    9615    9630       4    9618    9612    9627    9624      10
    9618    9636   -9648    9630       4    9615    9606    9618    9636       4
    9615    9630   -9648    9636       4    9615    9630    9651    9669       6
    9615    9630    9651    9672       6    9612    9603    9609    9621      11
    9612    9603   -9609    9624      11    9612    9618    9606    9615       4
    9612    9618    9636    9648       4    9612    9627    9624    9645      12
    9609    9603    9612    9618      13    9609    9603   -9612    9627      13
    9609    9621    9639    9657       4    9609    9624   -9627    9612      12
    9609    9624   -9645    9657       4    9606    9600    9603    9609      10
    9606    9600   -9603    9612      10    9606    9615    9630    9648       4
    9606    9615    9630    9651       4    9606    9618    9612    9627       9
    9606    9618   -9636    9648       4    9603    9600    9606    9615      14
    9603    9600   -9606    9618      14    9603    9609    9621    9639       4
    9603    9609   -9624    9627       4    9603    9609    9624    9645       4
    9603    9612   -9618    9606      15    9603    9612    9618    9636      15
    9603    9612   -9627    9624      10    9600    9603    9609    9621       9
    9600    9603    9609    9624       9    9600    9603   -9612    9618      13
    9600    9603    9612    9627      13    9600    9606    9615    9630       4
    9600    9606   -9618    9612       4    9600    9606    9618    9636       4
    9939    9954    9957    9969       3    9930    9939    9954    9957       3
    9921    9930    9939    9954       3    9912    9921    9930    9939       3
    9900    9912    9921    9930       3    9882    9900    9912    9921       3
    9867    9882    9900    9912       3    9864    9843    9861    9870       4
    9864    9876   -9891    9870       4    9861    9843    9864    9876       4
    9861    9870   -9891    9876       4    9849    9867    9882    9900       5
    9843    9861    9870    9891       4    9843    9864   -9876    9891       4
    9840    9822    9843    9861       6    9840    9822    9843    9864       6
    9837    9849    9867    9882       7    9831    9849    9867    9882       7
    9828    9840    9822    9843       4    9822    9843    9861    9870       4
    9822    9843    9864    9876       4    9819    9804    9810    9828       9
    9819    9816    9837    9849       4    9816    9801    9813    9831       4
    9816    9837   -9849    9831       4    9816    9837    9849    9867       4
    9813    9801    9816    9819       4    9813    9801    9816    9837       4
    9813    9831   -9849    9837       4    9813    9831    9849    9867       4
    9810    9798    9807    9822       4    9810    9804    9819    9816      10
    9810    9828   -9840    9822       4    9807    9798    9810    9828       4
    9807    9822   -9840    9828       4    9807    9822    9843    9861       6
    9807    9822    9843    9864       6    9804    9795    9801    9813      11
    9804    9795   -9801    9816      11    9804    9810    9798    9807       4
    9804    9810    9828    9840       4    9804    9819    9816    9837      12
    9801    9795    9804    9810      13    9801    9795   -9804    9819      13
    9801    9813    9831    9849       4    9801    9816   -9819    9804      12
    9801    9816   -9837    9849       4    9798    9792    9795    9801      10
    9798    9792   -9795    9804      10    9798    9807    9822    9840       4
    9798    9807    9822    9843       4    9798    9810    9804    9819       9
    9798    9810   -9828    9840       4    9795    9792    9798    9807      14
    9795    9792   -9798    9810      14    9795    9801    9813    9831       4
    9795    9801   -9816    9819       4    9795    9801    9816    9837       4
    9795    9804   -9810    9798      15    9795    9804    9810    9828      15
    9795    9804   -9819    9816      10    9792    9795    9801    9813       9
    9792    9795    9801    9816       9    9792    9795   -9804    9810      13
    9792    9795    9804    9819      13    9792    9798    9807    9822       4
    9792    9798   -9810    9804       4    9792    9798    9810    9828       4
   10131   10146   10149   10161       3   10122   10131   10146   10149       3
   10113   10122   10131   10146       3   10104   10113   10122   10131       3
   10092   10104   10113   10122       3   10074   10092   10104   10113       3
   10059   10074   10092   10104       3   10056   10035   10053   10062       4
   10056   10068  -10083   10062       4   10053   10035   10056   10068       4
   10053   10062  -10083   10068       4   10041   10059   10074   10092       5
   10035   10053   10062   10083       4   10035   10056  -10068   10083       4
   10032   10014   10035   10053       6   10032   10014   10035   10056       6
   10029   10041   10059   10074       7   10023   10041   10059   10074       7
   10020   10032   10014   10035       4   10014   10035   10053   10062       4
   10014   10035   10056   10068       4   10011    9996   10002   10020       9
   10011   10008   10029   10041       4   10008    9993   10005   10023       4
   10008   10029  -10041   10023       4   10008   10029   10041   10059       4
   10005    9993   10008   10011       4   10005    9993   10008   10029       4
   10005   10023  -10041   10029       4   10005   10023   10041   10059       4
   10002    9990    9999   10014       4   10002    9996   10011   10008      10
   10002   10020  -10032   10014       4    9999    9990   10002   10020       4
    9999   10014  -10032   10020       4    9999   10014   10035   10053       6
    9999   10014   10035   10056       6    9996    9987    9993   10005      11
    9996    9987   -9993   10008      11    9996   10002    9990    9999       4
    9996   10002   10020   10032       4    9996   10011   10008   10029      12
    9993    9987    9996   10002      13    9993    9987   -9996   10011      13
    9993   10005   10023   10041       4    9993   10008  -10011    9996      12
    9993   10008  -10029   10041       4    9990    9984    9987    9993      10
    9990    9984   -9987    9996      10    9990    9999   10014   10032       4
    9990    9999   10014   10035       4    9990   10002    9996   10011       9
    9990   10002  -10020   10032       4    9987    9984    9990    9999      14
    9987    9984   -9990   10002      14    9987    9993   10005   10023       4
    9987    9993  -10008   10011       4    9987    9993   10008   10029       4
    9987    9996  -10002    9990      15    9987    9996   10002   10020      15
    9987    9996  -10011   10008      10    9984    9987    9993   10005       9
    9984    9987    9993   10008       9    9984    9987   -9996   10002      13
    9984    9987    9996   10011      13    9984    9990    9999   10014       4
    9984    9990  -10002    9996       4    9984    9990   10002   10020       4
   10323   10338   10341   10353       3   10314   10323   10338   10341       3
   10305   10314   10323   10338       3   10296   10305   10314   10323       3
   10284   10296   10305   10314       3   10266   10284   10296   10305       3
   10251   10266   10284   10296       3   10248   10227   10245   10254       4
   10248   10260  -10275   10254       4   10245   10227   10248   10260       4
   10245   10254  -10275   10260       4   10233   10251   10266   10284       5
   10227   10245   10254   10275       4   10227   10248  -10260   10275       4
   10224   10206   10227   10245       6   10224   10206   10227   10248       6
   10221   10233   10251   10266       7   10215   10233   10251   10266       7
   10212   10224   10206   10227       4   10206   10227   10245   10254       4
   10206   10227   10248   10260       4   10203   10188   10194   10212       9
   10203   10200   10221   10233       4   10200   10185   10197   10215       4
   10200   10221  -10233   10215       4   10200   10221   10233   10251       4
   10197   10185   10200   10203       4   10197   10185   10200   10221       4
   10197   10215  -10233   10221       4   10197   10215   10233   10251       4
   10194   10182   10191   10206       4   10194   10188   10203   10200      10
   10194   10212  -10224   10206       4   10191   10182   10194   10212       4
   10191   10206  -10224   10212       4   10191   10206   10227   10245       6
   10191   10206   10227   10248       6   10188   10179   10185   10197      11
   10188   10179  -10185   10200      11   10188   10194   10182   10191       4
   10188   10194   10212   10224       4   10188   10203   10200   10221      12
   10185   10179   10188   10194      13   10185   10179  -10188   10203      13
   10185   10197   10215   10233       4   10185   10200  -10203   10188      12
   10185   10200  -10221   10233       4   10182   10176   10179   10185      10
   10182   10176  -10179   10188      10   10182   10191   10206   10224       4
   10182   10191   10206   10227       4   10182   10194   10188   10203       9
   10182   10194  -10212   10224       4   10179   10176   10182   10191      14
   10179   10176  -10182   10194      14   10179   10185   10197   10215       4
   10179   10185  -10200   10203       4   10179   10185   10200   10221       4
   10179   10188  -10194   10182      15   10179   10188   10194   10212      15
   10179   10188  -10203   10200      10   10176   10179   10185   10197       9
   10176   10179   10185   10200       9   10176   10179  -10188   10194      13
   10176   10179   10188   10203      13   10176   10182   10191   10206       4
   10176   10182  -10194   10188       4   10176   10182   10194   10212       4
   10515   10530   10533   10545       3   10506   10515   10530   10533       3
   10497   10506   10515   10530       3   10488   10497   10506   10515       3
   10476   10488   10497   10506       3   10458   10476   10488   10497       3
   10443   10458   10476   10488       3   10440   10419   10437   10446       4
   10440   10452  -10467   10446       4   10437   10419   10440   10452       4
   10437   10446  -10467   10452       4   10425   10443   10458   10476       5
   10419   10437   10446   10467       4   10419   10440  -10452   10467       4
   10416   10398   10419   10437       6   10416   10398   10419   10440       6
   10413   10425   10443   10458       7   10407   10425   10443   10458       7
   10404   10416   10398   10419       4   10398   10419   10437   10446       4
   10398   10419   10440   10452       4   10395   10380   10386   10404       9
   10395   10392   10413   10425       4   10392   10377   10389   10407       4
   10392   10413  -10425   10407       4   10392   10413   10425   10443       4
   10389   10377   10392   10395       4   10389   10377   10392   10413       4
   10389   10407  -10425   10413       4   10389   10407   10425   10443       4
   10386   10374   10383   10398       4   10386   10380   10395   10392      10
   10386   10404  -10416   10398       4   10383   10374   10386   10404       4
   10383   10398  -10416   10404       4   10383   10398   10419   10437       6
   10383   10398   10419   10440       6   10380   10371   10377   10389      11
   10380   10371  -10377   10392      11   10380   10386   10374   10383       4
   10380   10386   10404   10416       4   10380   10395   10392   10413      12
   10377   10371   10380   10386      13   10377   10371  -10380   10395      13
   10377   10389   10407   10425       4   10377   10392  -10395   10380      12
   10377   10392  -10413   10425       4   10374   10368   10371   10377      10
   10374   10368  -10371   10380      10   10374   10383   10398   10416       4
   10374   10383   10398   10419       4   10374   10386   10380   10395       9
   10374   10386  -10404   10416       4   10371   10368   10374   10383      14
   10371   10368  -10374   10386      14   10371   10377   10389   10407       4
   10371   10377  -10392   10395       4   10371   10377   10392   10413       4
   10371   10380  -10386   10374      15   10371   10380   10386   10404      15
   10371   10380  -10395   10392      10   10368   10371   10377   10389       9
   10368   10371   10377   10392       9   10368   10371  -10380   10386      13
   10368   10371   10380   10395      13   10368   10374   10383   10398       4
   10368   10374  -10386   10380       4   10368   10374   10386   10404       4
   10707   10722   10725   10737       3   10698   10707   10722   10725       3
   10689   10698   10707   10722       3   10680   10689   10698   10707       3
   10668   10680   10689   10698       3   10650   10668   10680   10689       3
   10635   10650   10668   10680       3   10632   10611   10629   10638       4
   10632   10644  -10659   10638       4   10629   10611   10632   10644       4
   10629   10638  -10659   10644       4   10617   10635   10650   10668       5
   10611   10629   10638   10659       4   10611   10632  -10644   10659       4
   10608   10590   10611   10629       6   10608   10590   10611   10632       6
   10605   10617   10635   10650       7   10599   10617   10635   10650       7
   10596   10608   10590   10611       4   10590   10611   10629   10638       4
   10590   10611   10632   10644       4   10587   10572   10578   10596       9
   10587   10584   10605   10617       4   10584   10569   10581   10599       4
   10584   10605  -10617   10599       4   10584   10605   10617   10635       4
   10581   10569   10584   10587       4   10581   10569   10584   10605       4
   10581   10599  -10617   10605       4   10581   10599   10617   10635       4
   10578   10566   10575   10590       4   10578   10572   10587   10584      10
   10578   10596  -10608   10590       4   10575   10566   10578   10596       4
   10575   10590  -10608   10596       4   10575   10590   10611   10629       6
   10575   10590   10611   10632       6   10572   10563   10569   10581      11
   10572   10563  -10569   10584      11   10572   10578   10566   10575       4
   10572   10578   10596   10608       4   10572   10587   10584   10605      12
   10569   10563   10572   10578      13   10569   10563  -10572   10587      13
   10569   10581   10599   10617       4   10569   10584  -10587   10572      12
   10569   10584  -10605   10617       4   10566   10560   10563   10569      10
   10566   10560  -10563   10572      10   10566   10575   10590   10608       4
   10566   10575   10590   10611       4   10566   10578   10572   10587       9
   10566   10578  -10596   10608       4   10563   10560   10566   10575      14
   10563   10560  -10566   10578      14   10563   10569   10581   10599       4
   10563   10569  -10584   10587       4   10563   10569   10584   10605       4
   10563   10572  -10578   10566      15   10563   10572   10578   10596      15
   10563   10572  -10587   10584      10   10560   10563   10569   10581       9
   10560   10563   10569   10584       9   10560   10563  -10572   10578      13
   10560   10563   10572   10587      13   10560   10566   10575   10590       4
   10560   10566  -10578   10572       4   10560   10566   10578   10596       4
   10899   10914   10917   10929       3   10890   10899   10914   10917       3
   10881   10890   10899   10914       3   10872   10881   10890   10899       3
   10860   10872   10881   10890       3   10842   10860   10872   10881       3
   10827   10842   10860   10872       3   10824   10803   10821   10830       4
   10824   10836  -10851   10830       4   10821   10803   10824   10836       4
   10821   10830  -10851   10836       4   10809   10827   10842   10860       5
   10803   10821   10830   10851       4   10803   10824  -10836   10851       4
   10800   10782   10803   10821       6   10800   10782   10803   10824       6
   10797   10809   10827   10842       7   10791   10809   10827   10842       7
   10788   10800   10782   10803       4   10782   10803   10821   10830       4
   10782   10803   10824   10836       4   10779   10764   10770   10788       9
   10779   10776   10797   10809       4   10776   10761   10773   10791       4
   10776   10797  -10809   10791       4   10776   10797   10809   10827       4
   10773   10761   10776   10779       4   10773   10761   10776   10797       4
   10773   10791  -10809   10797       4   10773   10791   10809   10827       4
   10770   10758   10767   10782       4   10770   10764   10779   10776      10
   10770   10788  -10800   10782       4   10767   10758   10770   10788       4
   10767   10782  -10800   10788       4   10767   10782   10803   10821       6
   10767   10782   10803   10824       6   10764   10755   10761   10773      11
   10764   10755  -10761   10776      11   10764   10770   10758   10767       4
   10764   10770   10788   10800       4   10764   10779   10776   10797      12
   10761   10755   10764   10770      13   10761   10755  -10764   10779      13
   10761   10773   10791   10809       4   10761   10776  -10779   10764      12
   10761   10776  -10797   10809       4   10758   10752   10755   10761      10
   10758   10752  -10755   10764      10   10758   10767   10782   10800       4
   10758   10767   10782   10803       4   10758   10770   10764   10779       9
   10758   10770  -10788   10800       4   10755   10752   10758   10767      14
   10755   10752  -10758   10770      14   10755   10761   10773   10791       4
   10755   10761  -10776   10779       4   10755   10761   10776   10797       4
   10755   10764  -10770   10758      15   10755   10764   10770   10788      15
   10755   10764  -10779   10776      10   10752   10755   10761   10773       9
   10752   10755   10761   10776       9   10752   10755  -10764   10770      13
   10752   10755   10764   10779      13   10752   10758   10767   10782       4
   10752   10758  -10770   10764       4   10752   10758   10770   10788       4
   11091   11106   11109   11121       3   11082   11091   11106   11109       3
   11073   11082   11091   11106       3   11064   11073   11082   11091       3
   11052   11064   11073   11082       3   11034   11052   11064   11073       3
   11019   11034   11052   11064       3   11016   10995   11013   11022       4
   11016   11028  -11043   11022       4   11013   10995   11016   11028       4
   11013   11022  -11043   11028       4   11001   11019   11034   11052       5
   10995   11013   11022   11043       4   10995   11016  -11028   11043       4
   10992   10974   10995   11013       6   10992   10974   10995   11016       6
   10989   11001   11019   11034       7   10983   11001   11019   11034       7
   10980   10992   10974   10995       4   10974   10995   11013   11022       4
   10974   10995   11016   11028       4   10971   10956   10962   10980       9
   10971   10968   10989   11001       4   10968   10953   10965   10983       4
   10968   10989  -11001   10983       4   10968   10989   11001   11019       4
   10965   10953   10968   10971       4   10965   10953   10968   10989       4
   10965   10983  -11001   10989       4   10965   10983   11001   11019       4
   10962   10950   10959   10974       4   10962   10956   10971   10968      10
   10962   10980  -10992   10974       4   10959   10950   10962   10980       4
   10959   10974  -10992   10980       4   10959   10974   10995   11013       6
   10959   10974   10995   11016       6   10956   10947   10953   10965      11
   10956   10947  -10953   10968      11   10956   10962   10950   10959       4
   10956   10962   10980   10992       4   10956   10971   10968   10989      12
   10953   10947   10956   10962      13   10953   10947  -10956   10971      13
   10953   10965   10983   11001       4   10953   10968  -10971   10956      12
   10953   10968  -10989   11001       4   10950   10944   10947   10953      10
   10950   10944  -10947   10956      10   10950   10959   10974   10992       4
   10950   10959   10974   10995       4   10950   10962   10956   10971       9
   10950   10962  -10980   10992       4   10947   10944   10950   10959      14
   10947   10944  -10950   10962      14   10947   10953   10965   10983       4
   10947   10953  -10968   10971       4   10947   10953   10968   10989       4
   10947   10956  -10962   10950      15   10947   10956   10962   10980      15
   10947   10956  -10971   10968      10   10944   10947   10953   10965       9
   10944   10947   10953   10968       9   10944   10947  -10956   10962      13
   10944   10947   10956   10971      13   10944   10950   10959   10974       4
   10944   10950  -10962   10956       4   10944   10950   10962   10980       4
   11283   11298   11301   11313       3   11274   11283   11298   11301       3
   11265   11274   11283   11298       3   11256   11265   11274   11283       3
   11244   11256   11265   11274       3   11226   11244   11256   11265       3
   11211   11226   11244   11256       3   11208   11187   11205   11214       4
   11208   11220  -11235   11214       4   11205   11187   11208   11220       4
   11205   11214  -11235   11220       4   11193   11211   11226   11244       5
   11187   11205   11214   11235       4   11187   11208  -11220   11235       4
   11184   11166   11187   11205       6   11184   11166   11187   11208       6
   11181   11193   11211   11226       7   11175   11193   11211   11226       7
   11172   11184   11166   11187       4   11166   11187   11205   11214       4
   11166   11187   11208   11220       4   11163   11148   11154   11172       9
   11163   11160   11181   11193       4   11160   11145   11157   11175       4
   11160   11181  -11193   11175       4   11160   11181   11193   11211       4
   11157   11145   11160   11163       4   11157   11145   11160   11181       4
   11157   11175  -11193   11181       4   11157   11175   11193   11211       4
   11154   11142   11151   11166       4   11154   11148   11163   11160      10
   11154   11172  -11184   11166       4   11151   11142   11154   11172       4
   11151   11166  -11184   11172       4   11151   11166   11187   11205       6
   11151   11166   11187   11208       6   11148   11139   11145   11157      11
   11148   11139  -11145   11160      11   11148   11154   11142   11151       4
   11148   11154   11172   11184       4   11148   11163   11160   11181      12
   11145   11139   11148   11154      13   11145   11139  -11148   11163      13
   11145   11157   11175   11193       4   11145   11160  -11163   11148      12
   11145   11160  -11181   11193       4   11142   11136   11139   11145      10
   11142   11136  -11139   11148      10   11142   11151   11166   11184       4
   11142   11151   11166   11187       4   11142   11154   11148   11163       9
   11142   11154  -11172   11184       4   11139   11136   11142   11151      14
   11139   11136  -11142   11154      14   11139   11145   11157   11175       4
   11139   11145  -11160   11163       4   11139   11145   11160   11181       4
   11139   11148  -11154   11142      15   11139   11148   11154   11172      15
   11139   11148  -11163   11160      10   11136   11139   11145   11157       9
   11136   11139   11145   11160       9   11136   11139  -11148   11154      13
   11136   11139   11148   11163      13   11136   11142   11151   11166       4
   11136   11142  -11154   11148       4   11136   11142   11154   11172       4
   11475   11490   11493   11505       3   11466   11475   11490   11493       3
   11457   11466   11475   11490       3   11448   11457   11466   11475       3
   11436   11448   11457   11466       3   11418   11436   11448   11457       3
   11403   11418   11436   11448       3   11400   11379   11397   11406       4
   11400   11412  -11427   11406       4   11397   11379   11400   11412       4
   11397   11406  -11427   11412       4   11385   11403   11418   11436       5
   11379   11397   11406   11427       4   11379   11400  -11412   11427       4
   11376   11358   11379   11397       6   11376   11358   11379   11400       6
   11373   11385   11403   11418       7   11367   11385   11403   11418       7
   11364   11376   11358   11379       4   11358   11379   11397   11406       4
   11358   11379   11400   11412       4   11355   11340   11346   11364       9
   11355   11352   11373   11385       4   11352   11337   11349   11367       4
   11352   11373  -11385   11367       4   11352   11373   11385   11403       4
   11349   11337   11352   11355       4   11349   11337   11352   11373       4
   11349   11367  -11385   11373       4   11349   11367   11385   11403       4
   11346   11334   11343   11358       4   11346   11340   11355   11352      10
   11346   11364  -11376   11358       4   11343   11334   11346   11364       4
   11343   11358  -11376   11364       4   11343   11358   11379   11397       6
   11343   11358   11379   11400       6   11340   11331   11337   11349      11
   11340   11331  -11337   11352      11   11340   11346   11334   11343       4
   11340   11346   11364   11376       4   11340   11355   11352   11373      12
   11337   11331   11340   11346      13   11337   11331  -11340   11355      13
   11337   11349   11367   11385       4   11337   11352  -11355   11340      12
   11337   11352  -11373   11385       4   11334   11328   11331   11337      10
   11334   11328  -11331   11340      10   11334   11343   11358   11376       4
   11334   11343   11358   11379       4   11334   11346   11340   11355       9
   11334   11346  -11364   11376       4   11331   11328   11334   11343      14
   11331   11328  -11334   11346      14   11331   11337   11349   11367       4
   11331   11337  -11352   11355       4   11331   11337   11352   11373       4
   11331   11340  -11346   11334      15   11331   11340   11346   11364      15
   11331   11340  -11355   11352      10   11328   11331   11337   11349       9
   11328   11331   11337   11352       9   11328   11331  -11340   11346      13
   11328   11331   11340   11355      13   11328   11334   11343   11358       4
   11328   11334  -11346   11340       4   11328   11334   11346   11364       4
   11667   11682   11685   11697       3   11658   11667   11682   11685       3
   11649   11658   11667   11682       3   11640   11649   11658   11667       3
   11628   11640   11649   11658       3   11610   11628   11640   11649       3
   11595   11610   11628   11640       3   11592   11571   11589   11598       4
   11592   11604  -11619   11598       4   11589   11571   11592   11604       4
   11589   11598  -11619   11604       4   11577   11595   11610   11628       5
   11571   11589   11598   11619       4   11571   11592  -11604   11619       4
   11568   11550   11571   11589       6   11568   11550   11571   11592       6
   11565   11577   11595   11610       7   11559   11577   11595   11610       7
   11556   11568   11550   11571       4   11550   11571   11589   11598       4
   11550   11571   11592   11604       4   11547   11532   11538   11556       9
   11547   11544   11565   11577       4   11544   11529   11541   11559       4
   11544   11565  -11577   11559       4   11544   11565   11577   11595       4
   11541   11529   11544   11547       4   11541   11529   11544   11565       4
   11541   11559  -11577   11565       4   11541   11559   11577   11595       4
   11538   11526   11535   11550       4   11538   11532   11547   11544      10
   11538   11556  -11568   11550       4   11535   11526   11538   11556       4
   11535   11550  -11568   11556       4   11535   11550   11571   11589       6
   11535   11550   11571   11592       6   11532   11523   11529   11541      11
   11532   11523  -11529   11544      11   11532   11538   11526   11535       4
   11532   11538   11556   11568       4   11532   11547   11544   11565      12
   11529   11523   11532   11538      13   11529   11523  -11532   11547      13
   11529   11541   11559   11577       4   11529   11544  -11547   11532      12
   11529   11544  -11565   11577       4   11526   11520   11523   11529      10
   11526   11520  -11523   11532      10   11526   11535   11550   11568       4
   11526   11535   11550   11571       4   11526   11538   11532   11547       9
   11526   11538  -11556   11568       4   11523   11520   11526   11535      14
   11523   11520  -11526   11538      14   11523   11529   11541   11559       4
   11523   11529  -11544   11547       4   11523   11529   11544   11565       4
   11523   11532  -11538   11526      15   11523   11532   11538   11556      15
   11523   11532  -11547   11544      10   11520   11523   11529   11541       9
   11520   11523   11529   11544       9   11520   11523  -11532   11538      13
   11520   11523   11532   11547      13   11520   11526   11535   11550       4
   11520   11526  -11538   11532       4   11520   11526   11538   11556       4
   11859   11874   11877   11889       3   11850   11859   11874   11877       3
   11841   11850   11859   11874       3   11832   11841   11850   11859       3
   11820   11832   11841   11850       3   11802   11820   11832   11841       3
   11787   11802   11820   11832       3   11784   11763   11781   11790       4
   11784   11796  -11811   11790       4   11781   11763   11784   11796       4
   11781   11790  -11811   11796       4   11769   11787   11802   11820       5
   11763   11781   11790   11811       4   11763   11784  -11796   11811       4
   11760   11742   11763   11781       6   11760   11742   11763   11784       6
   11757   11769   11787   11802       7   11751   11769   11787   11802       7
   11748   11760   11742   11763       4   11742   11763   11781   11790       4
   11742   11763   11784   11796       4   11739   11724   11730   11748       9
   11739   11736   11757   11769       4   11736   11721   11733   11751       4
   11736   11757  -11769   11751       4   11736   11757   11769   11787       4
   11733   11721   11736   11739       4   11733   11721   11736   11757       4
   11733   11751  -11769   11757       4   11733   11751   11769   11787       4
   11730   11718   11727   11742       4   11730   11724   11739   11736      10
   11730   11748  -11760   11742       4   11727   11718   11730   11748       4
   11727   11742  -11760   11748       4   11727   11742   11763   11781       6
   11727   11742   11763   11784       6   11724   11715   11721   11733      11
   11724   11715  -11721   11736      11   11724   11730   11718   11727       4
   11724   11730   11748   11760       4   11724   11739   11736   11757      12
   11721   11715   11724   11730      13   11721   11715  -11724   11739      13
   11721   11733   11751   11769       4   11721   11736  -11739   11724      12
   11721   11736  -11757   11769       4   11718   11712   11715   11721      10
   11718   11712  -11715   11724      10   11718   11727   11742   11760       4
   11718   11727   11742   11763       4   11718   11730   11724   11739       9
   11718   11730  -11748   11760       4   11715   11712   11718   11727      14
   11715   11712  -11718   11730      14   11715   11721   11733   11751       4
   11715   11721  -11736   11739       4   11715   11721   11736   11757       4
   11715   11724  -11730   11718      15   11715   11724   11730   11748      15
   11715   11724  -11739   11736      10   11712   11715   11721   11733       9
   11712   11715   11721   11736       9   11712   11715  -11724   11730      13
   11712   11715   11724   11739      13   11712   11718   11727   11742       4
   11712   11718  -11730   11724       4   11712   11718   11730   11748       4
   12051   12066   12069   12081       3   12042   12051   12066   12069       3
   12033   12042   12051   12066       3   12024   12033   12042   12051       3
   12012   12024   12033   12042       3   11994   12012   12024   12033       3
   11979   11994   12012   12024       3   11976   11955   11973   11982       4
   11976   11988  -12003   11982       4   11973   11955   11976   11988       4
   11973   11982  -12003   11988       4   11961   11979   11994   12012       5
   11955   11973   11982   12003       4   11955   11976  -11988   12003       4
   11952   11934   11955   11973       6   11952   11934   11955   11976       6
   11949   11961   11979   11994       7   11943   11961   11979   11994       7
   11940   11952   11934   11955       4   11934   11955   11973   11982       4
   11934   11955   11976   11988       4   11931   11916   11922   11940       9
   11931   11928   11949   11961       4   11928   11913   11925   11943       4
   11928   11949  -11961   11943       4   11928   11949   11961   11979       4
   11925   11913   11928   11931       4   11925   11913   11928   11949       4
   11925   11943  -11961   11949       4   11925   11943   11961   11979       4
   11922   11910   11919   11934       4   11922   11916   11931   11928      10
   11922   11940  -11952   11934       4   11919   11910   11922   11940       4
   11919   11934  -11952   11940       4   11919   11934   11955   11973       6
   11919   11934   11955   11976       6   11916   11907   11913   11925      11
   11916   11907  -11913   11928      11   11916   11922   11910   11919       4
   11916   11922   11940   11952       4   11916   11931   11928   11949      12
   11913   11907   11916   11922      13   11913   11907  -11916   11931      13
   11913   11925   11943   11961       4   11913   11928  -11931   11916      12
   11913   11928  -11949   11961       4   11910   11904   11907   11913      10
   11910   11904  -11907   11916      10   11910   11919   11934   11952       4
   11910   11919   11934   11955       4   11910   11922   11916   11931       9
   11910   11922  -11940   11952       4   11907   11904   11910   11919      14
   11907   11904  -11910   11922      14   11907   11913   11925   11943       4
   11907   11913  -11928   11931       4   11907   11913   11928   11949       4
   11907   11916  -11922   11910      15   11907   11916   11922   11940      15
   11907   11916  -11931   11928      10   11904   11907   11913   11925       9
   11904   11907   11913   11928       9   11904   11907  -11916   11922      13
   11904   11907   11916   11931      13   11904   11910   11919   11934       4
   11904   11910  -11922   11916       4   11904   11910   11922   11940       4
   12243   12258   12261   12273       3   12234   12243   12258   12261       3
   12225   12234   12243   12258       3   12216   12225   12234   12243       3
   12204   12216   12225   12234       3   12186   12204   12216   12225       3
   12171   12186   12204   12216       3   12168   12147   12165   12174       4
   12168   12180  -12195   12174       4   12165   12147   12168   12180       4
   12165   12174  -12195   12180       4   12153   12171   12186   12204       5
   12147   12165   12174   12195       4   12147   12168  -12180   12195       4
   12144   12126   12147   12165       6   12144   12126   12147   12168       6
   12141   12153   12171   12186       7   12135   12153   12171   12186       7
   12132   12144   12126   12147       4   12126   12147   12165   12174       4
   12126   12147   12168   12180       4   12123   12108   12114   12132       9
   12123   12120   12141   12153       4   12120   12105   12117   12135       4
   12120   12141  -12153   12135       4   12120   12141   12153   12171       4
   12117   12105   12120   12123       4   12117   12105   12120   12141       4
   12117   12135  -12153   12141       4   12117   12135   12153   12171       4
   12114   12102   12111   12126       4   12114   12108   12123   12120      10
   12114   12132  -12144   12126       4   12111   12102   12114   12132       4
   12111   12126  -12144   12132       4   12111   12126   12147   12165       6
   12111   12126   12147   12168       6   12108   12099   12105   12117      11
   12108   12099  -12105   12120      11   12108   12114   12102   12111       4
   12108   12114   12132   12144       4   12108   12123   12120   12141      12
   12105   12099   12108   12114      13   12105   12099  -12108   12123      13
   12105   12117   12135   12153       4   12105   12120  -12123   12108      12
   12105   12120  -12141   12153       4   12102   12096   12099   12105      10
   12102   12096  -12099   12108      10   12102   12111   12126   12144       4
   12102   12111   12126   12147       4   12102   12114   12108   12123       9
   12102   12114  -12132   12144       4   12099   12096   12102   12111      14
   12099   12096  -12102   12114      14   12099   12105   12117   12135       4
   12099   12105  -12120   12123       4   12099   12105   12120   12141       4
   12099   12108  -12114   12102      15   12099   12108   12114   12132      15
   12099   12108  -12123   12120      10   12096   12099   12105   12117       9
   12096   12099   12105   12120       9   12096   12099  -12108   12114      13
   12096   12099   12108   12123      13   12096   12102   12111   12126       4
   12096   12102  -12114   12108       4   12096   12102   12114   12132       4
   12435   12450   12453   12465       3   12426   12435   12450   12453       3
   12417   12426   12435   12450       3   12408   12417   12426   12435       3
   12396   12408   12417   12426       3   12378   12396   12408   12417       3
   12363   12378   12396   12408       3   12360   12339   12357   12366       4
   12360   12372  -12387   12366       4   12357   12339   12360   12372       4
   12357   12366  -12387   12372       4   12345   12363   12378   12396       5
   12339   12357   12366   12387       4   12339   12360  -12372   12387       4
   12336   12318   12339   12357       6   12336   12318   12339   12360       6
   12333   12345   12363   12378       7   12327   12345   12363   12378       7
   12324   12336   12318   12339       4   12318   12339   12357   12366       4
   12318   12339   12360   12372       4   12315   12300   12306   12324       9
   12315   12312   12333   12345       4   12312   12297   12309   12327       4
   12312   12333  -12345   12327       4   12312   12333   12345   12363       4
   12309   12297   12312   12315       4   12309   12297   12312   12333       4
   12309   12327  -12345   12333       4   12309   12327   12345   12363       4
   12306   12294   12303   12318       4   12306   12300   12315   12312      10
   12306   12324  -12336   12318       4   12303   12294   12306   12324       4
   12303   12318  -12336   12324       4   12303   12318   12339   12357       6
   12303   12318   12339   12360       6   12300   12291   12297   12309      11
   12300   12291  -12297   12312      11   12300   12306   12294   12303       4
   12300   12306   12324   12336       4   12300   12315   12312   12333      12
   12297   12291   12300   12306      13   12297   12291  -12300   12315      13
   12297   12309   12327   12345       4   12297   12312  -12315   12300      12
   12297   12312  -12333   12345       4   12294   12288   12291   12297      10
   12294   12288  -12291   12300      10   12294   12303   12318   12336       4
   12294   12303   12318   12339       4   12294   12306   12300   12315       9
   12294   12306  -12324   12336       4   12291   12288   12294   12303      14
   12291   12288  -12294   12306      14   12291   12297   12309   12327       4
   12291   12297  -12312   12315       4   12291   12297   12312   12333       4
   12291   12300  -12306   12294      15   12291   12300   12306   12324      15
   12291   12300  -12315   12312      10   12288   12291   12297   12309       9
   12288   12291   12297   12312       9   12288   12291  -12300   12306      13
   12288   12291   12300   12315      13   12288   12294   12303   12318       4
   12288   12294  -12306   12300       4   12288   12294   12306   12324       4
   12627   12642   12645   12657       3   12618   12627   12642   12645       3
   12609   12618   12627   12642       3   12600   12609   12618   12627       3
   12588   12600   12609   12618       3   12570   12588   12600   12609       3
   12555   12570   12588   12600       3   12552   12531   12549   12558       4
   12552   12564  -12579   12558       4   12549   12531   12552   12564       4
   12549   12558  -12579   12564       4   12537   12555   12570   12588       5
   12531   12549   12558   12579       4   12531   12552  -12564   12579       4
   12528   12510   12531   12549       6   12528   12510   12531   12552       6
   12525   12537   12555   12570       7   12519   12537   12555   12570       7
   12516   12528   12510   12531       4   12510   12531   12549   12558       4
   12510   12531   12552   12564       4   12507   12492   12498   12516       9
   12507   12504   12525   12537       4   12504   12489   12501   12519       4
   12504   12525  -12537   12519       4   12504   12525   12537   12555       4
   12501   12489   12504   12507       4   12501   12489   12504   12525       4
   12501   12519  -12537   12525       4   12501   12519   12537   12555       4
   12498   12486   12495   12510       4   12498   12492   12507   12504      10
   12498   12516  -12528   12510       4   12495   12486   12498   12516       4
   12495   12510  -12528   12516       4   12495   12510   12531   12549       6
   12495   12510   12531   12552       6   12492   12483   12489   12501      11
   12492   12483  -12489   12504      11   12492   12498   12486   12495       4
   12492   12498   12516   12528       4   12492   12507   12504   12525      12
   12489   12483   12492   12498      13   12489   12483  -12492   12507      13
   12489   12501   12519   12537       4   12489   12504  -12507   12492      12
   12489   12504  -12525   12537       4   12486   12480   12483   12489      10
   12486   12480  -12483   12492      10   12486   12495   12510   12528       4
   12486   12495   12510   12531       4   12486   12498   12492   12507       9
   12486   12498  -12516   12528       4   12483   12480   12486   12495      14
   12483   12480  -12486   12498      14   12483   12489   12501   12519       4
   12483   12489  -12504   12507       4   12483   12489   12504   12525       4
   12483   12492  -12498   12486      15   12483   12492   12498   12516      15
   12483   12492  -12507   12504      10   12480   12483   12489   12501       9
   12480   12483   12489   12504       9   12480   12483  -12492   12498      13
   12480   12483   12492   12507      13   12480   12486   12495   12510       4
   12480   12486  -12498   12492       4   12480   12486   12498   12516       4
   12819   12834   12837   12849       3   12810   12819   12834   12837       3
   12801   12810   12819   12834       3   12792   12801   12810   12819       3
   12780   12792   12801   12810       3   12762   12780   12792   12801       3
   12747   12762   12780   12792       3   12744   12723   12741   12750       4
   12744   12756  -12771   12750       4   12741   12723   12744   12756       4
   12741   12750  -12771   12756       4   12729   12747   12762   12780       5
   12723   12741   12750   12771       4   12723   12744  -12756   12771       4
   12720   12702   12723   12741       6   12720   12702   12723   12744       6
   12717   12729   12747   12762       7   12711   12729   12747   12762       7
   12708   12720   12702   12723       4   12702   12723   12741   12750       4
   12702   12723   12744   12756       4   12699   12684   12690   12708       9
   12699   12696   12717   12729       4   12696   12681   12693   12711       4
   12696   12717  -12729   12711       4   12696   12717   12729   12747       4
   12693   12681   12696   12699       4   12693   12681   12696   12717       4
   12693   12711  -12729   12717       4   12693   12711   12729   12747       4
   12690   12678   12687   12702       4   12690   12684   12699   12696      10
   12690   12708  -12720   12702       4   12687   12678   12690   12708       4
   12687   12702  -12720   12708       4   12687   12702   12723   12741       6
   12687   12702   12723   12744       6   12684   12675   12681   12693      11
   12684   12675  -12681   12696      11   12684   12690   12678   12687       4
   12684   12690   12708   12720       4   12684   12699   12696   12717      12
   12681   12675   12684   12690      13   12681   12675  -12684   12699      13
   12681   12693   12711   12729       4   12681   12696  -12699   12684      12
   12681   12696  -12717   12729       4   12678   12672   12675   12681      10
   12678   12672  -12675   12684      10   12678   12687   12702   12720       4
   12678   12687   12702   12723       4   12678   12690   12684   12699       9
   12678   12690  -12708   12720       4   12675   12672   12678   12687      14
   12675   12672  -12678   12690      14   12675   12681   12693   12711       4
   12675   12681  -12696   12699       4   12675   12681   12696   12717       4
   12675   12684  -12690   12678      15   12675   12684   12690   12708      15
   12675   12684  -12699   12696      10   12672   12675   12681   12693       9
   12672   12675   12681   12696       9   12672   12675  -12684   12690      13
   12672   12675   12684   12699      13   12672   12678   12687   12702       4
   12672   12678  -12690   12684       4   12672   12678   12690   12708       4
   13011   13026   13029   13041       3   13002   13011   13026   13029       3
   12993   13002   13011   13026       3   12984   12993   13002   13011       3
   12972   12984   12993   13002       3   12954   12972   12984   12993       3
   12939   12954   12972   12984       3   12936   12915   12933   12942       4
   12936   12948  -12963   12942       4   12933   12915   12936   12948       4
   12933   12942  -12963   12948       4   12921   12939   12954   12972       5
   12915   12933   12942   12963       4   12915   12936  -12948   12963       4
   12912   12894   12915   12933       6   12912   12894   12915   12936       6
   12909   12921   12939   12954       7   12903   12921   12939   12954       7
   12900   12912   12894   12915       4   12894   12915   12933   12942       4
   12894   12915   12936   12948       4   12891   12876   12882   12900       9
   12891   12888   12909   12921       4   12888   12873   12885   12903       4
   12888   12909  -12921   12903       4   12888   12909   12921   12939       4
   12885   12873   12888   12891       4   12885   12873   12888   12909       4
   12885   12903  -12921   12909       4   12885   12903   12921   12939       4
   12882   12870   12879   12894       4   12882   12876   12891   12888      10
   12882   12900  -12912   12894       4   12879   12870   12882   12900       4
   12879   12894  -12912   12900       4   12879   12894   12915   12933       6
   12879   12894   12915   12936       6   12876   12867   12873   12885      11
   12876   12867  -12873   12888      11   12876   12882   12870   12879       4
   12876   12882   12900   12912       4   12876   12891   12888   12909      12
   12873   12867   12876   12882      13   12873   12867  -12876   12891      13
   12873   12885   12903   12921       4   12873   12888  -12891   12876      12
   12873   12888  -12909   12921       4   12870   12864   12867   12873      10
   12870   12864  -12867   12876      10   12870   12879   12894   12912       4
   12870   12879   12894   12915       4   12870   12882   12876   12891       9
   12870   12882  -12900   12912       4   12867   12864   12870   12879      14
   12867   12864  -12870   12882      14   12867   12873   12885   12903       4
   12867   12873  -12888   12891       4   12867   12873   12888   12909       4
   12867   12876  -12882   12870      15   12867   12876   12882   12900      15
   12867   12876  -12891   12888      10   12864   12867   12873   12885       9
   12864   12867   12873   12888       9   12864   12867  -12876   12882      13
   12864   12867   12876   12891      13   12864   12870   12879   12894       4
   12864   12870  -12882   12876       4   12864   12870   12882   12900       4
   13203   13218   13221   13233       3   13194   13203   13218   13221       3
   13185   13194   13203   13218       3   13176   13185   13194   13203       3
   13164   13176   13185   13194       3   13146   13164   13176   13185       3
   13131   13146   13164   13176       3   13128   13107   13125   13134       4
   13128   13140  -13155   13134       4   13125   13107   13128   13140       4
   13125   13134  -13155   13140       4   13113   13131   13146   13164       5
   13107   13125   13134   13155       4   13107   13128  -13140   13155       4
   13104   13086   13107   13125       6   13104   13086   13107   13128       6
   13101   13113   13131   13146       7   13095   13113   13131   13146       7
   13092   13104   13086   13107       4   13086   13107   13125   13134       4
   13086   13107   13128   13140       4   13083   13068   13074   13092       9
   13083   13080   13101   13113       4   13080   13065   13077   13095       4
   13080   13101  -13113   13095       4   13080   13101   13113   13131       4
   13077   13065   13080   13083       4   13077   13065   13080   13101       4
   13077   13095  -13113   13101       4   13077   13095   13113   13131       4
   13074   13062   13071   13086       4   13074   13068   13083   13080      10
   13074   13092  -13104   13086       4   13071   13062   13074   13092       4
   13071   13086  -13104   13092       4   13071   13086   13107   13125       6
   13071   13086   13107   13128       6   13068   13059   13065   13077      11
   13068   13059  -13065   13080      11   13068   13074   13062   13071       4
   13068   13074   13092   13104       4   13068   13083   13080   13101      12
   13065   13059   13068   13074      13   13065   13059  -13068   13083      13
   13065   13077   13095   13113       4   13065   13080  -13083   13068      12
   13065   13080  -13101   13113       4   13062   13056   13059   13065      10
   13062   13056  -13059   13068      10   13062   13071   13086   13104       4
   13062   13071   13086   13107       4   13062   13074   13068   13083       9
   13062   13074  -13092   13104       4   13059   13056   13062   13071      14
   13059   13056  -13062   13074      14   13059   13065   13077   13095       4
   13059   13065  -13080   13083       4   13059   13065   13080   13101       4
   13059   13068  -13074   13062      15   13059   13068   13074   13092      15
   13059   13068  -13083   13080      10   13056   13059   13065   13077       9
   13056   13059   13065   13080       9   13056   13059  -13068   13074      13
   13056   13059   13068   13083      13   13056   13062   13071   13086       4
   13056   13062  -13074   13068       4   13056   13062   13074   13092       4
   13395   13410   13413   13425       3   13386   13395   13410   13413       3
   13377   13386   13395   13410       3   13368   13377   13386   13395       3
   13356   13368   13377   13386       3   13338   13356   13368   13377       3
   13323   13338   13356   13368       3   13320   13299   13317   13326       4
   13320   13332  -13347   13326       4   13317   13299   13320   13332       4
   13317   13326  -13347   13332       4   13305   13323   13338   13356       5
   13299   13317   13326   13347       4   13299   13320  -13332   13347       4
   13296   13278   13299   13317       6   13296   13278   13299   13320       6
   13293   13305   13323   13338       7   13287   13305   13323   13338       7
   13284   13296   13278   13299       4   13278   13299   13317   13326       4
   13278   13299   13320   13332       4   13275   13260   13266   13284       9
   13275   13272   13293   13305       4   13272   13257   13269   13287       4
   13272   13293  -13305   13287       4   13272   13293   13305   13323       4
   13269   13257   13272   13275       4   13269   13257   13272   13293       4
   13269   13287  -13305   13293       4   13269   13287   13305   13323       4
   13266   13254   13263   13278       4   13266   13260   13275   13272      10
   13266   13284  -13296   13278       4   13263   13254   13266   13284       4
   13263   13278  -13296   13284       4   13263   13278   13299   13317       6
   13263   13278   13299   13320       6   13260   13251   13257   13269      11
   13260   13251  -13257   13272      11   13260   13266   13254   13263       4
   13260   13266   13284   13296       4   13260   13275   13272   13293      12
   13257   13251   13260   13266      13   13257   13251  -13260   13275      13
   13257   13269   13287   13305       4   13257   13272  -13275   13260      12
   13257   13272  -13293   13305       4   13254   13248   13251   13257      10
   13254   13248  -13251   13260      10   13254   13263   13278   13296       4
   13254   13263   13278   13299       4   13254   13266   13260   13275       9
   13254   13266  -13284   13296       4   13251   13248   13254   13263      14
   13251   13248  -13254   13266      14   13251   13257   13269   13287       4
   13251   13257  -13272   13275       4   13251   13257   13272   13293       4
   13251   13260  -13266   13254      15   13251   13260   13266   13284      15
   13251   13260  -13275   13272      10   13248   13251   13257   13269       9
   13248   13251   13257   13272       9   13248   13251  -13260   13266      13
   13248   13251   13260   13275      13   13248   13254   13263   13278       4
   13248   13254  -13266   13260       4   13248   13254   13266   13284       4
   13587   13602   13605   13617       3   13578   13587   13602   13605       3
   13569   13578   13587   13602       3   13560   13569   13578   13587       3
   13548   13560   13569   13578       3   13530   13548   13560   13569       3
   13515   13530   13548   13560       3   13512   13491   13509   13518       4
   13512   13524  -13539   13518       4   13509   13491   13512   13524       4
   13509   13518  -13539   13524       4   13497   13515   13530   13548       5
   13491   13509   13518   13539       4   13491   13512  -13524   13539       4
   13488   13470   13491   13509       6   13488   13470   13491   13512       6
   13485   13497   13515   13530       7   13479   13497   13515   13530       7
   13476   13488   13470   13491       4   13470   13491   13509   13518       4
   13470   13491   13512   13524       4   13467   13452   13458   13476       9
   13467   13464   13485   13497       4   13464   13449   13461   13479       4
   13464   13485  -13497   13479       4   13464   13485   13497   13515       4
   13461   13449   13464   13467       4   13461   13449   13464   13485       4
   13461   13479  -13497   13485       4   13461   13479   13497   13515       4
   13458   13446   13455   13470       4   13458   13452   13467   13464      10
   13458   13476  -13488   13470       4   13455   13446   13458   13476       4
   13455   13470  -13488   13476       4   13455   13470   13491   13509       6
   13455   13470   13491   13512       6   13452   13443   13449   13461      11
   13452   13443  -13449   13464      11   13452   13458   13446   13455       4
   13452   13458   13476   13488       4   13452   13467   13464   13485      12
   13449   13443   13452   13458      13   13449   13443  -13452   13467      13
   13449   13461   13479   13497       4   13449   13464  -13467   13452      12
   13449   13464  -13485   13497       4   13446   13440   13443   13449      10
   13446   13440  -13443   13452      10   13446   13455   13470   13488       4
   13446   13455   13470   13491       4   13446   13458   13452   13467       9
   13446   13458  -13476   13488       4   13443   13440   13446   13455      14
   13443   13440  -13446   13458      14   13443   13449   13461   13479       4
   13443   13449  -13464   13467       4   13443   13449   13464   13485       4
   13443   13452  -13458   13446      15   13443   13452   13458   13476      15
   13443   13452  -13467   13464      10   13440   13443   13449   13461       9
   13440   13443   13449   13464       9   13440   13443  -13452   13458      13
   13440   13443   13452   13467      13   13440   13446   13455   13470       4
   13440   13446  -13458   13452       4   13440   13446   13458   13476       4
   13779   13794   13797   13809       3   13770   13779   13794   13797       3
   13761   13770   13779   13794       3   13752   13761   13770   13779       3
   13740   13752   13761   13770       3   13722   13740   13752   13761       3
   13707   13722   13740   13752       3   13704   13683   13701   13710       4
   13704   13716  -13731   13710       4   13701   13683   13704   13716       4
   13701   13710  -13731   13716       4   13689   13707   13722   13740       5
   13683   13701   13710   13731       4   13683   13704  -13716   13731       4
   13680   13662   13683   13701       6   13680   13662   13683   13704       6
   13677   13689   13707   13722       7   13671   13689   13707   13722       7
   13668   13680   13662   13683       4   13662   13683   13701   13710       4
   13662   13683   13704   13716       4   13659   13644   13650   13668       9
   13659   13656   13677   13689       4   13656   13641   13653   13671       4
   13656   13677  -13689   13671       4   13656   13677   13689   13707       4
   13653   13641   13656   13659       4   13653   13641   13656   13677       4
   13653   13671  -13689   13677       4   13653   13671   13689   13707       4
   13650   13638   13647   13662       4   13650   13644   13659   13656      10
   13650   13668  -13680   13662       4   13647   13638   13650   13668       4
   13647   13662  -13680   13668       4   13647   13662   13683   13701       6
   13647   13662   13683   13704       6   13644   13635   13641   13653      11
   13644   13635  -13641   13656      11   13644   13650   13638   13647       4
   13644   13650   13668   13680       4   13644   13659   13656   13677      12
   13641   13635   13644   13650      13   13641   13635  -13644   13659      13
   13641   13653   13671   13689       4   13641   13656  -13659   13644      12
   13641   13656  -13677   13689       4   13638   13632   13635   13641      10
   13638   13632  -13635   13644      10   13638   13647   13662   13680       4
   13638   13647   13662   13683       4   13638   13650   13644   13659       9
   13638   13650  -13668   13680       4   13635   13632   13638   13647      14
   13635   13632  -13638   13650      14   13635   13641   13653   13671       4
   13635   13641  -13656   13659       4   13635   13641   13656   13677       4
   13635   13644  -13650   13638      15   13635   13644   13650   13668      15
   13635   13644  -13659   13656      10   13632   13635   13641   13653       9
   13632   13635   13641   13656       9   13632   13635  -13644   13650      13
   13632   13635   13644   13659      13   13632   13638   13647   13662       4
   13632   13638  -13650   13644       4   13632   13638   13650   13668       4
   13971   13986   13989   14001       3   13962   13971   13986   13989       3
   13953   13962   13971   13986       3   13944   13953   13962   13971       3
   13932   13944   13953   13962       3   13914   13932   13944   13953       3
   13899   13914   13932   13944       3   13896   13875   13893   13902       4
   13896   13908  -13923   13902       4   13893   13875   13896   13908       4
   13893   13902  -13923   13908       4   13881   13899   13914   13932       5
   13875   13893   13902   13923       4   13875   13896  -13908   13923       4
   13872   13854   13875   13893       6   13872   13854   13875   13896       6
   13869   13881   13899   13914       7   13863   13881   13899   13914       7
   13860   13872   13854   13875       4   13854   13875   13893   13902       4
   13854   13875   13896   13908       4   13851   13836   13842   13860       9
   13851   13848   13869   13881       4   13848   13833   13845   13863       4
   13848   13869  -13881   13863       4   13848   13869   13881   13899       4
   13845   13833   13848   13851       4   13845   13833   13848   13869       4
   13845   13863  -13881   13869       4   13845   13863   13881   13899       4
   13842   13830   13839   13854       4   13842   13836   13851   13848      10
   13842   13860  -13872   13854       4   13839   13830   13842   13860       4
   13839   13854  -13872   13860       4   13839   13854   13875   13893       6
   13839   13854   13875   13896       6   13836   13827   13833   13845      11
   13836   13827  -13833   13848      11   13836   13842   13830   13839       4
   13836   13842   13860   13872       4   13836   13851   13848   13869      12
   13833   13827   13836   13842      13   13833   13827  -13836   13851      13
   13833   13845   13863   13881       4   13833   13848  -13851   13836      12
   13833   13848  -13869   13881       4   13830   13824   13827   13833      10
   13830   13824  -13827   13836      10   13830   13839   13854   13872       4
   13830   13839   13854   13875       4   13830   13842   13836   13851       9
   13830   13842  -13860   13872       4   13827   13824   13830   13839      14
   13827   13824  -13830   13842      14   13827   13833   13845   13863       4
   13827   13833  -13848   13851       4   13827   13833   13848   13869       4
   13827   13836  -13842   13830      15   13827   13836   13842   13860      15
   13827   13836  -13851   13848      10   13824   13827   13833   13845       9
   13824   13827   13833   13848       9   13824   13827  -13836   13842      13
   13824   13827   13836   13851      13   13824   13830   13839   13854       4
   13824   13830  -13842   13836       4   13824   13830   13842   13860       4
   14163   14178   14181   14193       3   14154   14163   14178   14181       3
   14145   14154   14163   14178       3   14136   14145   14154   14163       3
   14124   14136   14145   14154       3   14106   14124   14136   14145       3
   14091   14106   14124   14136       3   14088   14067   14085   14094       4
   14088   14100  -14115   14094       4   14085   14067   14088   14100       4
   14085   14094  -14115   14100       4   14073   14091   14106   14124       5
   14067   14085   14094   14115       4   14067   14088  -14100   14115       4
   14064   14046   14067   14085       6   14064   14046   14067   14088       6
   14061   14073   14091   14106       7   14055   14073   14091   14106       7
   14052   14064   14046   14067       4   14046   14067   14085   14094       4
   14046   14067   14088   14100       4   14043   14028   14034   14052       9
   14043   14040   14061   14073       4   14040   14025   14037   14055       4
   14040   14061  -14073   14055       4   14040   14061   14073   14091       4
   14037   14025   14040   14043       4   14037   14025   14040   14061       4
   14037   14055  -14073   14061       4   14037   14055   14073   14091       4
   14034   14022   14031   14046       4   14034   14028   14043   14040      10
   14034   14052  -14064   14046       4   14031   14022   14034   14052       4
   14031   14046  -14064   14052       4   14031   14046   14067   14085       6
   14031   14046   14067   14088       6   14028   14019   14025   14037      11
   14028   14019  -14025   14040      11   14028   14034   14022   14031       4
   14028   14034   14052   14064       4   14028   14043   14040   14061      12
   14025   14019   14028   14034      13   14025   14019  -14028   14043      13
   14025   14037   14055   14073       4   14025   14040  -14043   14028      12
   14025   14040  -14061   14073       4   14022   14016   14019   14025      10
   14022   14016  -14019   14028      10   14022   14031   14046   14064       4
   14022   14031   14046   14067       4   14022   14034   14028   14043       9
   14022   14034  -14052   14064       4   14019   14016   14022   14031      14
   14019   14016  -14022   14034      14   14019   14025   14037   14055       4
   14019   14025  -14040   14043       4   14019   14025   14040   14061       4
   14019   14028  -14034   14022      15   14019   14028   14034   14052      15
   14019   14028  -14043   14040      10   14016   14019   14025   14037       9
   14016   14019   14025   14040       9   14016   14019  -14028   14034      13
   14016   14019   14028   14043      13   14016   14022   14031   14046       4
   14016   14022  -14034   14028       4   14016   14022   14034   14052       4
   14355   14370   14373   14385       3   14346   14355   14370   14373       3
   14337   14346   14355   14370       3   14328   14337   14346   14355       3
   14316   14328   14337   14346       3   14298   14316   14328   14337       3
   14283   14298   14316   14328       3   14280   14259   14277   14286       4
   14280   14292  -14307   14286       4   14277   14259   14280   14292       4
   14277   14286  -14307   14292       4   14265   14283   14298   14316       5
   14259   14277   14286   14307       4   14259   14280  -14292   14307       4
   14256   14238   14259   14277       6   14256   14238   14259   14280       6
   14253   14265   14283   14298       7   14247   14265   14283   14298       7
   14244   14256   14238   14259       4   14238   14259   14277   14286       4
   14238   14259   14280   14292       4   14235   14220   14226   14244       9
   14235   14232   14253   14265       4   14232   14217   14229   14247       4
   14232   14253  -14265   14247       4   14232   14253   14265   14283       4
   14229   14217   14232   14235       4   14229   14217   14232   14253       4
   14229   14247  -14265   14253       4   14229   14247   14265   14283       4
   14226   14214   14223   14238       4   14226   14220   14235   14232      10
   14226   14244  -14256   14238       4   14223   14214   14226   14244       4
   14223   14238  -14256   14244       4   14223   14238   14259   14277       6
   14223   14238   14259   14280       6   14220   14211   14217   14229      11
   14220   14211  -14217   14232      11   14220   14226   14214   14223       4
   14220   14226   14244   14256       4   14220   14235   14232   14253      12
   14217   14211   14220   14226      13   14217   14211  -14220   14235      13
   14217   14229   14247   14265       4   14217   14232  -14235   14220      12
   14217   14232  -14253   14265       4   14214   14208   14211   14217      10
   14214   14208  -14211   14220      10   14214   14223   14238   14256       4
   14214   14223   14238   14259       4   14214   14226   14220   14235       9
   14214   14226  -14244   14256       4   14211   14208   14214   14223      14
   14211   14208  -14214   14226      14   14211   14217   14229   14247       4
   14211   14217  -14232   14235       4   14211   14217   14232   14253       4
   14211   14220  -14226   14214      15   14211   14220   14226   14244      15
   14211   14220  -14235   14232      10   14208   14211   14217   14229       9
   14208   14211   14217   14232       9   14208   14211  -14220   14226      13
   14208   14211   14220   14235      13   14208   14214   14223   14238       4
   14208   14214  -14226   14220       4   14208   14214   14226   14244       4
   14547   14562   14565   14577       3   14538   14547   14562   14565       3
   14529   14538   14547   14562       3   14520   14529   14538   14547       3
   14508   14520   14529   14538       3   14490   14508   14520   14529       3
   14475   14490   14508   14520       3   14472   14451   14469   14478       4
   14472   14484  -14499   14478       4   14469   14451   14472   14484       4
   14469   14478  -14499   14484       4   14457   14475   14490   14508       5
   14451   14469   14478   14499       4   14451   14472  -14484   14499       4
   14448   14430   14451   14469       6   14448   14430   14451   14472       6
   14445   14457   14475   14490       7   14439   14457   14475   14490       7
   14436   14448   14430   14451       4   14430   14451   14469   14478       4
   14430   14451   14472   14484       4   14427   14412   14418   14436       9
   14427   14424   14445   14457       4   14424   14409   14421   14439       4
   14424   14445  -14457   14439       4   14424   14445   14457   14475       4
   14421   14409   14424   14427       4   14421   14409   14424   14445       4
   14421   14439  -14457   14445       4   14421   14439   14457   14475       4
   14418   14406   14415   14430       4   14418   14412   14427   14424      10
   14418   14436  -14448   14430       4   14415   14406   14418   14436       4
   14415   14430  -14448   14436       4   14415   14430   14451   14469       6
   14415   14430   14451   14472       6   14412   14403   14409   14421      11
   14412   14403  -14409   14424      11   14412   14418   14406   14415       4
   14412   14418   14436   14448       4   14412   14427   14424   14445      12
   14409   14403   14412   14418      13   14409   14403  -14412   14427      13
   14409   14421   14439   14457       4   14409   14424  -14427   14412      12
   14409   14424  -14445   14457       4   14406   14400   14403   14409      10
   14406   14400  -14403   14412      10   14406   14415   14430   14448       4
   14406   14415   14430   14451       4   14406   14418   14412   14427       9
   14406   14418  -14436   14448       4   14403   14400   14406   14415      14
   14403   14400  -14406   14418      14   14403   14409   14421   14439       4
   14403   14409  -14424   14427       4   14403   14409   14424   14445       4
   14403   14412  -14418   14406      15   14403   14412   14418   14436      15
   14403   14412  -14427   14424      10   14400   14403   14409   14421       9
   14400   14403   14409   14424       9   14400   14403  -14412   14418      13
   14400   14403   14412   14427      13   14400   14406   14415   14430       4
   14400   14406  -14418   14412       4   14400   14406   14418   14436       4
   14739   14754   14757   14769       3   14730   14739   14754   14757       3
   14721   14730   14739   14754       3   14712   14721   14730   14739       3
   14700   14712   14721   14730       3   14682   14700   14712   14721       3
   14667   14682   14700   14712       3   14664   14643   14661   14670       4
   14664   14676  -14691   14670       4   14661   14643   14664   14676       4
   14661   14670  -14691   14676       4   14649   14667   14682   14700       5
   14643   14661   14670   14691       4   14643   14664  -14676   14691       4
   14640   14622   14643   14661       6   14640   14622   14643   14664       6
   14637   14649   14667   14682       7   14631   14649   14667   14682       7
   14628   14640   14622   14643       4   14622   14643   14661   14670       4
   14622   14643   14664   14676       4   14619   14604   14610   14628       9
   14619   14616   14637   14649       4   14616   14601   14613   14631       4
   14616   14637  -14649   14631       4   14616   14637   14649   14667       4
   14613   14601   14616   14619       4   14613   14601   14616   14637       4
   14613   14631  -14649   14637       4   14613   14631   14649   14667       4
   14610   14598   14607   14622       4   14610   14604   14619   14616      10
   14610   14628  -14640   14622       4   14607   14598   14610   14628       4
   14607   14622  -14640   14628       4   14607   14622   14643   14661       6
   14607   14622   14643   14664       6   14604   14595   14601   14613      11
   14604   14595  -14601   14616      11   14604   14610   14598   14607       4
   14604   14610   14628   14640       4   14604   14619   14616   14637      12
   14601   14595   14604   14610      13   14601   14595  -14604   14619      13
   14601   14613   14631   14649       4   14601   14616  -14619   14604      12
   14601   14616  -14637   14649       4   14598   14592   14595   14601      10
   14598   14592  -14595   14604      10   14598   14607   14622   14640       4
   14598   14607   14622   14643       4   14598   14610   14604   14619       9
   14598   14610  -14628   14640       4   14595   14592   14598   14607      14
   14595   14592  -14598   14610      14   14595   14601   14613   14631       4
   14595   14601  -14616   14619       4   14595   14601   14616   14637       4
   14595   14604  -14610   14598      15   14595   14604   14610   14628      15
   14595   14604  -14619   14616      10   14592   14595   14601   14613       9
   14592   14595   14601   14616       9   14592   14595  -14604   14610      13
   14592   14595   14604   14619      13   14592   14598   14607   14622       4
   14592   14598  -14610   14604       4   14592   14598   14610   14628       4
   14931   14946   14949   14961       3   14922   14931   14946   14949       3
   14913   14922   14931   14946       3   14904   14913   14922   14931       3
   14892   14904   14913   14922       3   14874   14892   14904   14913       3
   14859   14874   14892   14904       3   14856   14835   14853   14862       4
   14856   14868  -14883   14862       4   14853   14835   14856   14868       4
   14853   14862  -14883   14868       4   14841   14859   14874   14892       5
   14835   14853   14862   14883       4   14835   14856  -14868   14883       4
   14832   14814   14835   14853       6   14832   14814   14835   14856       6
   14829   14841   14859   14874       7   14823   14841   14859   14874       7
   14820   14832   14814   14835       4   14814   14835   14853   14862       4
   14814   14835   14856   14868       4   14811   14796   14802   14820       9
   14811   14808   14829   14841       4   14808   14793   14805   14823       4
   14808   14829  -14841   14823       4   14808   14829   14841   14859       4
   14805   14793   14808   14811       4   14805   14793   14808   14829       4
   14805   14823  -14841   14829       4   14805   14823   14841   14859       4
   14802   14790   14799   14814       4   14802   14796   14811   14808      10
   14802   14820  -14832   14814       4   14799   14790   14802   14820       4
   14799   14814  -14832   14820       4   14799   14814   14835   14853       6
   14799   14814   14835   14856       6   14796   14787   14793   14805      11
   14796   14787  -14793   14808      11   14796   14802   14790   14799       4
   14796   14802   14820   14832       4   14796   14811   14808   14829      12
   14793   14787   14796   14802      13   14793   14787  -14796   14811      13
   14793   14805   14823   14841       4   14793   14808  -14811   14796      12
   14793   14808  -14829   14841       4   14790   14784   14787   14793      10
   14790   14784  -14787   14796      10   14790   14799   14814   14832       4
   14790   14799   14814   14835       4   14790   14802   14796   14811       9
   14790   14802  -14820   14832       4   14787   14784   14790   14799      14
   14787   14784  -14790   14802      14   14787   14793   14805   14823       4
   14787   14793  -14808   14811       4   14787   14793   14808   14829       4
   14787   14796  -14802   14790      15   14787   14796   14802   14820      15
   14787   14796  -14811   14808      10   14784   14787   14793   14805       9
   14784   14787   14793   14808       9   14784   14787  -14796   14802      13
   14784   14787   14796   14811      13   14784   14790   14799   14814       4
   14784   14790  -14802   14796       4   14784   14790   14802   14820       4
   15123   15138   15141   15153       3   15114   15123   15138   15141       3
   15105   15114   15123   15138       3   15096   15105   15114   15123       3
   15084   15096   15105   15114       3   15066   15084   15096   15105       3
   15051   15066   15084   15096       3   15048   15027   15045   15054       4
   15048   15060  -15075   15054       4   15045   15027   15048   15060       4
   15045   15054  -15075   15060       4   15033   15051   15066   15084       5
   15027   15045   15054   15075       4   15027   15048  -15060   15075       4
   15024   15006   15027   15045       6   15024   15006   15027   15048       6
   15021   15033   15051   15066       7   15015   15033   15051   15066       7
   15012   15024   15006   15027       4   15006   15027   15045   15054       4
   15006   15027   15048   15060       4   15003   14988   14994   15012       9
   15003   15000   15021   15033       4   15000   14985   14997   15015       4
   15000   15021  -15033   15015       4   15000   15021   15033   15051       4
   14997   14985   15000   15003       4   14997   14985   15000   15021       4
   14997   15015  -15033   15021       4   14997   15015   15033   15051       4
   14994   14982   14991   15006       4   14994   14988   15003   15000      10
   14994   15012  -15024   15006       4   14991   14982   14994   15012       4
   14991   15006  -15024   15012       4   14991   15006   15027   15045       6
   14991   15006   15027   15048       6   14988   14979   14985   14997      11
   14988   14979  -14985   15000      11   14988   14994   14982   14991       4
   14988   14994   15012   15024       4   14988   15003   15000   15021      12
   14985   14979   14988   14994      13   14985   14979  -14988   15003      13
   14985   14997   15015   15033       4   14985   15000  -15003   14988      12
   14985   15000  -15021   15033       4   14982   14976   14979   14985      10
   14982   14976  -14979   14988      10   14982   14991   15006   15024       4
   14982   14991   15006   15027       4   14982   14994   14988   15003       9
   14982   14994  -15012   15024       4   14979   14976   14982   14991      14
   14979   14976  -14982   14994      14   14979   14985   14997   15015       4
   14979   14985  -15000   15003       4   14979   14985   15000   15021       4
   14979   14988  -14994   14982      15   14979   14988   14994   15012      15
   14979   14988  -15003   15000      10   14976   14979   14985   14997       9
   14976   14979   14985   15000       9   14976   14979  -14988   14994      13
   14976   14979   14988   15003      13   14976   14982   14991   15006       4
   14976   14982  -14994   14988       4   14976   14982   14994   15012       4
   15315   15330   15333   15345       3   15306   15315   15330   15333       3
   15297   15306   15315   15330       3   15288   15297   15306   15315       3
   15276   15288   15297   15306       3   15258   15276   15288   15297       3
   15243   15258   15276   15288       3   15240   15219   15237   15246       4
   15240   15252  -15267   15246       4   15237   15219   15240   15252       4
   15237   15246  -15267   15252       4   15225   15243   15258   15276       5
   15219   15237   15246   15267       4   15219   15240  -15252   15267       4
   15216   15198   15219   15237       6   15216   15198   15219   15240       6
   15213   15225   15243   15258       7   15207   15225   15243   15258       7
   15204   15216   15198   15219       4   15198   15219   15237   15246       4
   15198   15219   15240   15252       4   15195   15180   15186   15204       9
   15195   15192   15213   15225       4   15192   15177   15189   15207       4
   15192   15213  -15225   15207       4   15192   15213   15225   15243       4
   15189   15177   15192   15195       4   15189   15177   15192   15213       4
   15189   15207  -15225   15213       4   15189   15207   15225   15243       4
   15186   15174   15183   15198       4   15186   15180   15195   15192      10
   15186   15204  -15216   15198       4   15183   15174   15186   15204       4
   15183   15198  -15216   15204       4   15183   15198   15219   15237       6
   15183   15198   15219   15240       6   15180   15171   15177   15189      11
   15180   15171  -15177   15192      11   15180   15186   15174   15183       4
   15180   15186   15204   15216       4   15180   15195   15192   15213      12
   15177   15171   15180   15186      13   15177   15171  -15180   15195      13
   15177   15189   15207   15225       4   15177   15192  -15195   15180      12
   15177   15192  -15213   15225       4   15174   15168   15171   15177      10
   15174   15168  -15171   15180      10   15174   15183   15198   15216       4
   15174   15183   15198   15219       4   15174   15186   15180   15195       9
   15174   15186  -15204   15216       4   15171   15168   15174   15183      14
   15171   15168  -15174   15186      14   15171   15177   15189   15207       4
   15171   15177  -15192   15195       4   15171   15177   15192   15213       4
   15171   15180  -15186   15174      15   15171   15180   15186   15204      15
   15171   15180  -15195   15192      10   15168   15171   15177   15189       9
   15168   15171   15177   15192       9   15168   15171  -15180   15186      13
   15168   15171   15180   15195      13   15168   15174   15183   15198       4
   15168   15174  -15186   15180       4   15168   15174   15186   15204       4
   15507   15522   15525   15537       3   15498   15507   15522   15525       3
   15489   15498   15507   15522       3   15480   15489   15498   15507       3
   15468   15480   15489   15498       3   15450   15468   15480   15489       3
   15435   15450   15468   15480       3   15432   15411   15429   15438       4
   15432   15444  -15459   15438       4   15429   15411   15432   15444       4
   15429   15438  -15459   15444       4   15417   15435   15450   15468       5
   15411   15429   15438   15459       4   15411   15432  -15444   15459       4
   15408   15390   15411   15429       6   15408   15390   15411   15432       6
   15405   15417   15435   15450       7   15399   15417   15435   15450       7
   15396   15408   15390   15411       4   15390   15411   15429   15438       4
   15390   15411   15432   15444       4   15387   15372   15378   15396       9
   15387   15384   15405   15417       4   15384   15369   15381   15399       4
   15384   15405  -15417   15399       4   15384   15405   15417   15435       4
   15381   15369   15384   15387       4   15381   15369   15384   15405       4
   15381   15399  -15417   15405       4   15381   15399   15417   15435       4
   15378   15366   15375   15390       4   15378   15372   15387   15384      10
   15378   15396  -15408   15390       4   15375   15366   15378   15396       4
   15375   15390  -15408   15396       4   15375   15390   15411   15429       6
   15375   15390   15411   15432       6   15372   15363   15369   15381      11
   15372   15363  -15369   15384      11   15372   15378   15366   15375       4
   15372   15378   15396   15408       4   15372   15387   15384   15405      12
   15369   15363   15372   15378      13   15369   15363  -15372   15387      13
   15369   15381   15399   15417       4   15369   15384  -15387   15372      12
   15369   15384  -15405   15417       4   15366   15360   15363   15369      10
   15366   15360  -15363   15372      10   15366   15375   15390   15408       4
   15366   15375   15390   15411       4   15366   15378   15372   15387       9
   15366   15378  -15396   15408       4   15363   15360   15366   15375      14
   15363   15360  -15366   15378      14   15363   15369   15381   15399       4
   15363   15369  -15384   15387       4   15363   15369   15384   15405       4
   15363   15372  -15378   15366      15   15363   15372   15378   15396      15
   15363   15372  -15387   15384      10   15360   15363   15369   15381       9
   15360   15363   15369   15384       9   15360   15363  -15372   15378      13
   15360   15363   15372   15387      13   15360   15366   15375   15390       4
   15360   15366  -15378   15372       4   15360   15366   15378   15396       4
   15699   15714   15717   15729       3   15690   15699   15714   15717       3
   15681   15690   15699   15714       3   15672   15681   15690   15699       3
   15660   15672   15681   15690       3   15642   15660   15672   15681       3
   15627   15642   15660   15672       3   15624   15603   15621   15630       4
   15624   15636  -15651   15630       4   15621   15603   15624   15636       4
   15621   15630  -15651   15636       4   15609   15627   15642   15660       5
   15603   15621   15630   15651       4   15603   15624  -15636   15651       4
   15600   15582   15603   15621       6   15600   15582   15603   15624       6
   15597   15609   15627   15642       7   15591   15609   15627   15642       7
   15588   15600   15582   15603       4   15582   15603   15621   15630       4
   15582   15603   15624   15636       4   15579   15564   15570   15588       9
   15579   15576   15597   15609       4   15576   15561   15573   15591       4
   15576   15597  -15609   15591       4   15576   15597   15609   15627       4
   15573   15561   15576   15579       4   15573   15561   15576   15597       4
   15573   15591  -15609   15597       4   15573   15591   15609   15627       4
   15570   15558   15567   15582       4   15570   15564   15579   15576      10
   15570   15588  -15600   15582       4   15567   15558   15570   15588       4
   15567   15582  -15600   15588       4   15567   15582   15603   15621       6
   15567   15582   15603   15624       6   15564   15555   15561   15573      11
   15564   15555  -15561   15576      11   15564   15570   15558   15567       4
   15564   15570   15588   15600       4   15564   15579   15576   15597      12
   15561   15555   15564   15570      13   15561   15555  -15564   15579      13
   15561   15573   15591   15609       4   15561   15576  -15579   15564      12
   15561   15576  -15597   15609       4   15558   15552   15555   15561      10
   15558   15552  -15555   15564      10   15558   15567   15582   15600       4
   15558   15567   15582   15603       4   15558   15570   15564   15579       9
   15558   15570  -15588   15600       4   15555   15552   15558   15567      14
   15555   15552  -15558   15570      14   15555   15561   15573   15591       4
   15555   15561  -15576   15579       4   15555   15561   15576   15597       4
   15555   15564  -15570   15558      15   15555   15564   15570   15588      15
   15555   15564  -15579   15576      10   15552   15555   15561   15573       9
   15552   15555   15561   15576       9   15552   15555  -15564   15570      13
   15552   15555   15564   15579      13   15552   15558   15567   15582       4
   15552   15558  -15570   15564       4   15552   15558   15570   15588       4
   15891   15906   15909   15921       3   15882   15891   15906   15909       3
   15873   15882   15891   15906       3   15864   15873   15882   15891       3
   15852   15864   15873   15882       3   15834   15852   15864   15873       3
   15819   15834   15852   15864       3   15816   15795   15813   15822       4
   15816   15828  -15843   15822       4   15813   15795   15816   15828       4
   15813   15822  -15843   15828       4   15801   15819   15834   15852       5
   15795   15813   15822   15843       4   15795   15816  -15828   15843       4
   15792   15774   15795   15813       6   15792   15774   15795   15816       6
   15789   15801   15819   15834       7   15783   15801   15819   15834       7
   15780   15792   15774   15795       4   15774   15795   15813   15822       4
   15774   15795   15816   15828       4   15771   15756   15762   15780       9
   15771   15768   15789   15801       4   15768   15753   15765   15783       4
   15768   15789  -15801   15783       4   15768   15789   15801   15819       4
   15765   15753   15768   15771       4   15765   15753   15768   15789       4
   15765   15783  -15801   15789       4   15765   15783   15801   15819       4
   15762   15750   15759   15774       4   15762   15756   15771   15768      10
   15762   15780  -15792   15774       4   15759   15750   15762   15780       4
   15759   15774  -15792   15780       4   15759   15774   15795   15813       6
   15759   15774   15795   15816       6   15756   15747   15753   15765      11
   15756   15747  -15753   15768      11   15756   15762   15750   15759       4
   15756   15762   15780   15792       4   15756   15771   15768   15789      12
   15753   15747   15756   15762      13   15753   15747  -15756   15771      13
   15753   15765   15783   15801       4   15753   15768  -15771   15756      12
   15753   15768  -15789   15801       4   15750   15744   15747   15753      10
   15750   15744  -15747   15756      10   15750   15759   15774   15792       4
   15750   15759   15774   15795       4   15750   15762   15756   15771       9
   15750   15762  -15780   15792       4   15747   15744   15750   15759      14
   15747   15744  -15750   15762      14   15747   15753   15765   15783       4
   15747   15753  -15768   15771       4   15747   15753   15768   15789       4
   15747   15756  -15762   15750      15   15747   15756   15762   15780      15
   15747   15756  -15771   15768      10   15744   15747   15753   15765       9
   15744   15747   15753   15768       9   15744   15747  -15756   15762      13
   15744   15747   15756   15771      13   15744   15750   15759   15774       4
   15744   15750  -15762   15756       4   15744   15750   15762   15780       4
   16083   16098   16101   16113       3   16074   16083   16098   16101       3
   16065   16074   16083   16098       3   16056   16065   16074   16083       3
   16044   16056   16065   16074       3   16026   16044   16056   16065       3
   16011   16026   16044   16056       3   16008   15987   16005   16014       4
   16008   16020  -16035   16014       4   16005   15987   16008   16020       4
   16005   16014  -16035   16020       4   15993   16011   16026   16044       5
   15987   16005   16014   16035       4   15987   16008  -16020   16035       4
   15984   15966   15987   16005       6   15984   15966   15987   16008       6
   15981   15993   16011   16026       7   15975   15993   16011   16026       7
   15972   15984   15966   15987       4   15966   15987   16005   16014       4
   15966   15987   16008   16020       4   15963   15948   15954   15972       9
   15963   15960   15981   15993       4   15960   15945   15957   15975       4
   15960   15981  -15993   15975       4   15960   15981   15993   16011       4
   15957   15945   15960   15963       4   15957   15945   15960   15981       4
   15957   15975  -15993   15981       4   15957   15975   15993   16011       4
   15954   15942   15951   15966       4   15954   15948   15963   15960      10
   15954   15972  -15984   15966       4   15951   15942   15954   15972       4
   15951   15966  -15984   15972       4   15951   15966   15987   16005       6
   15951   15966   15987   16008       6   15948   15939   15945   15957      11
   15948   15939  -15945   15960      11   15948   15954   15942   15951       4
   15948   15954   15972   15984       4   15948   15963   15960   15981      12
   15945   15939   15948   15954      13   15945   15939  -15948   15963      13
   15945   15957   15975   15993       4   15945   15960  -15963   15948      12
   15945   15960  -15981   15993       4   15942   15936   15939   15945      10
   15942   15936  -15939   15948      10   15942   15951   15966   15984       4
   15942   15951   15966   15987       4   15942   15954   15948   15963       9
   15942   15954  -15972   15984       4   15939   15936   15942   15951      14
   15939   15936  -15942   15954      14   15939   15945   15957   15975       4
   15939   15945  -15960   15963       4   15939   15945   15960   15981       4
   15939   15948  -15954   15942      15   15939   15948   15954   15972      15
   15939   15948  -15963   15960      10   15936   15939   15945   15957       9
   15936   15939   15945   15960       9   15936   15939  -15948   15954      13
   15936   15939   15948   15963      13   15936   15942   15951   15966       4
   15936   15942  -15954   15948       4   15936   15942   15954   15972       4
   16275   16290   16293   16305       3   16266   16275   16290   16293       3
   16257   16266   16275   16290       3   16248   16257   16266   16275       3
   16236   16248   16257   16266       3   16218   16236   16248   16257       3
   16203   16218   16236   16248       3   16200   16179   16197   16206       4
   16200   16212  -16227   16206       4   16197   16179   16200   16212       4
   16197   16206  -16227   16212       4   16185   16203   16218   16236       5
   16179   16197   16206   16227       4   16179   16200  -16212   16227       4
   16176   16158   16179   16197       6   16176   16158   16179   16200       6
   16173   16185   16203   16218       7   16167   16185   16203   16218       7
   16164   16176   16158   16179       4   16158   16179   16197   16206       4
   16158   16179   16200   16212       4   16155   16140   16146   16164       9
   16155   16152   16173   16185       4   16152   16137   16149   16167       4
   16152   16173  -16185   16167       4   16152   16173   16185   16203       4
   16149   16137   16152   16155       4   16149   16137   16152   16173       4
   16149   16167  -16185   16173       4   16149   16167   16185   16203       4
   16146   16134   16143   16158       4   16146   16140   16155   16152      10
   16146   16164  -16176   16158       4   16143   16134   16146   16164       4
   16143   16158  -16176   16164       4   16143   16158   16179   16197       6
   16143   16158   16179   16200       6   16140   16131   16137   16149      11
   16140   16131  -16137   16152      11   16140   16146   16134   16143       4
   16140   16146   16164   16176       4   16140   16155   16152   16173      12
   16137   16131   16140   16146      13   16137   16131  -16140   16155      13
   16137   16149   16167   16185       4   16137   16152  -16155   16140      12
   16137   16152  -16173   16185       4   16134   16128   16131   16137      10
   16134   16128  -16131   16140      10   16134   16143   16158   16176       4
   16134   16143   16158   16179       4   16134   16146   16140   16155       9
   16134   16146  -16164   16176       4   16131   16128   16134   16143      14
   16131   16128  -16134   16146      14   16131   16137   16149   16167       4
   16131   16137  -16152   16155       4   16131   16137   16152   16173       4
   16131   16140  -16146   16134      15   16131   16140   16146   16164      15
   16131   16140  -16155   16152      10   16128   16131   16137   16149       9
   16128   16131   16137   16152       9   16128   16131  -16140   16146      13
   16128   16131   16140   16155      13   16128   16134   16143   16158       4
   16128   16134  -16146   16140       4   16128   16134   16146   16164       4
   16467   16482   16485   16497       3   16458   16467   16482   16485       3
   16449   16458   16467   16482       3   16440   16449   16458   16467       3
   16428   16440   16449   16458       3   16410   16428   16440   16449       3
   16395   16410   16428   16440       3   16392   16371   16389   16398       4
   16392   16404  -16419   16398       4   16389   16371   16392   16404       4
   16389   16398  -16419   16404       4   16377   16395   16410   16428       5
   16371   16389   16398   16419       4   16371   16392  -16404   16419       4
   16368   16350   16371   16389       6   16368   16350   16371   16392       6
   16365   16377   16395   16410       7   16359   16377   16395   16410       7
   16356   16368   16350   16371       4   16350   16371   16389   16398       4
   16350   16371   16392   16404       4   16347   16332   16338   16356       9
   16347   16344   16365   16377       4   16344   16329   16341   16359       4
   16344   16365  -16377   16359       4   16344   16365   16377   16395       4
   16341   16329   16344   16347       4   16341   16329   16344   16365       4
   16341   16359  -16377   16365       4   16341   16359   16377   16395       4
   16338   16326   16335   16350       4   16338   16332   16347   16344      10
   16338   16356  -16368   16350       4   16335   16326   16338   16356       4
   16335   16350  -16368   16356       4   16335   16350   16371   16389       6
   16335   16350   16371   16392       6   16332   16323   16329   16341      11
   16332   16323  -16329   16344      11   16332   16338   16326   16335       4
   16332   16338   16356   16368       4   16332   16347   16344   16365      12
   16329   16323   16332   16338      13   16329   16323  -16332   16347      13
   16329   16341   16359   16377       4   16329   16344  -16347   16332      12
   16329   16344  -16365   16377       4   16326   16320   16323   16329      10
   16326   16320  -16323   16332      10   16326   16335   16350   16368       4
   16326   16335   16350   16371       4   16326   16338   16332   16347       9
   16326   16338  -16356   16368       4   16323   16320   16326   16335      14
   16323   16320  -16326   16338      14   16323   16329   16341   16359       4
   16323   16329  -16344   16347       4   16323   16329   16344   16365       4
   16323   16332  -16338   16326      15   16323   16332   16338   16356      15
   16323   16332  -16347   16344      10   16320   16323   16329   16341       9
   16320   16323   16329   16344       9   16320   16323  -16332   16338      13
   16320   16323   16332   16347      13   16320   16326   16335   16350       4
   16320   16326  -16338   16332       4   16320   16326   16338   16356       4
   16659   16674   16677   16689       3   16650   16659   16674   16677       3
   16641   16650   16659   16674       3   16632   16641   16650   16659       3
   16620   16632   16641   16650       3   16602   16620   16632   16641       3
   16587   16602   16620   16632       3   16584   16563   16581   16590       4
   16584   16596  -16611   16590       4   16581   16563   16584   16596       4
   16581   16590  -16611   16596       4   16569   16587   16602   16620       5
   16563   16581   16590   16611       4   16563   16584  -16596   16611       4
   16560   16542   16563   16581       6   16560   16542   16563   16584       6
   16557   16569   16587   16602       7   16551   16569   16587   16602       7
   16548   16560   16542   16563       4   16542   16563   16581   16590       4
   16542   16563   16584   16596       4   16539   16524   16530   16548       9
   16539   16536   16557   16569       4   16536   16521   16533   16551       4
   16536   16557  -16569   16551       4   16536   16557   16569   16587       4
   16533   16521   16536   16539       4   16533   16521   16536   16557       4
   16533   16551  -16569   16557       4   16533   16551   16569   16587       4
   16530   16518   16527   16542       4   16530   16524   16539   16536      10
   16530   16548  -16560   16542       4   16527   16518   16530   16548       4
   16527   16542  -16560   16548       4   16527   16542   16563   16581       6
   16527   16542   16563   16584       6   16524   16515   16521   16533      11
   16524   16515  -16521   16536      11   16524   16530   16518   16527       4
   16524   16530   16548   16560       4   16524   16539   16536   16557      12
   16521   16515   16524   16530      13   16521   16515  -16524   16539      13
   16521   16533   16551   16569       4   16521   16536  -16539   16524      12
   16521   16536  -16557   16569       4   16518   16512   16515   16521      10
   16518   16512  -16515   16524      10   16518   16527   16542   16560       4
   16518   16527   16542   16563       4   16518   16530   16524   16539       9
   16518   16530  -16548   16560       4   16515   16512   16518   16527      14
   16515   16512  -16518   16530      14   16515   16521   16533   16551       4
   16515   16521  -16536   16539       4   16515   16521   16536   16557       4
   16515   16524  -16530   16518      15   16515   16524   16530   16548      15
   16515   16524  -16539   16536      10   16512   16515   16521   16533       9
   16512   16515   16521   16536       9   16512   16515  -16524   16530      13
   16512   16515   16524   16539      13   16512   16518   16527   16542       4
   16512   16518  -16530   16524       4   16512   16518   16530   16548       4
   16851   16866   16869   16881       3   16842   16851   16866   16869       3
   16833   16842   16851   16866       3   16824   16833   16842   16851       3
   16812   16824   16833   16842       3   16794   16812   16824   16833       3
   16779   16794   16812   16824       3   16776   16755   16773   16782       4
   16776   16788  -16803   16782       4   16773   16755   16776   16788       4
   16773   16782  -16803   16788       4   16761   16779   16794   16812       5
   16755   16773   16782   16803       4   16755   16776  -16788   16803       4
   16752   16734   16755   16773       6   16752   16734   16755   16776       6
   16749   16761   16779   16794       7   16743   16761   16779   16794       7
   16740   16752   16734   16755       4   16734   16755   16773   16782       4
   16734   16755   16776   16788       4   16731   16716   16722   16740       9
   16731   16728   16749   16761       4   16728   16713   16725   16743       4
   16728   16749  -16761   16743       4   16728   16749   16761   16779       4
   16725   16713   16728   16731       4   16725   16713   16728   16749       4
   16725   16743  -16761   16749       4   16725   16743   16761   16779       4
   16722   16710   16719   16734       4   16722   16716   16731   16728      10
   16722   16740  -16752   16734       4   16719   16710   16722   16740       4
   16719   16734  -16752   16740       4   16719   16734   16755   16773       6
   16719   16734   16755   16776       6   16716   16707   16713   16725      11
   16716   16707  -16713   16728      11   16716   16722   16710   16719       4
   16716   16722   16740   16752       4   16716   16731   16728   16749      12
   16713   16707   16716   16722      13   16713   16707  -16716   16731      13
   16713   16725   16743   16761       4   16713   16728  -16731   16716      12
   16713   16728  -16749   16761       4   16710   16704   16707   16713      10
   16710   16704  -16707   16716      10   16710   16719   16734   16752       4
   16710   16719   16734   16755       4   16710   16722   16716   16731       9
   16710   16722  -16740   16752       4   16707   16704   16710   16719      14
   16707   16704  -16710   16722      14   16707   16713   16725   16743       4
   16707   16713  -16728   16731       4   16707   16713   16728   16749       4
   16707   16716  -16722   16710      15   16707   16716   16722   16740      15
   16707   16716  -16731   16728      10   16704   16707   16713   16725       9
   16704   16707   16713   16728       9   16704   16707  -16716   16722      13
   16704   16707   16716   16731      13   16704   16710   16719   16734       4
   16704   16710  -16722   16716       4   16704   16710   16722   16740       4
   17043   17058   17061   17073       3   17034   17043   17058   17061       3
   17025   17034   17043   17058       3   17016   17025   17034   17043       3
   17004   17016   17025   17034       3   16986   17004   17016   17025       3
   16971   16986   17004   17016       3   16968   16947   16965   16974       4
   16968   16980  -16995   16974       4   16965   16947   16968   16980       4
   16965   16974  -16995   16980       4   16953   16971   16986   17004       5
   16947   16965   16974   16995       4   16947   16968  -16980   16995       4
   16944   16926   16947   16965       6   16944   16926   16947   16968       6
   16941   16953   16971   16986       7   16935   16953   16971   16986       7
   16932   16944   16926   16947       4   16926   16947   16965   16974       4
   16926   16947   16968   16980       4   16923   16908   16914   16932       9
   16923   16920   16941   16953       4   16920   16905   16917   16935       4
   16920   16941  -16953   16935       4   16920   16941   16953   16971       4
   16917   16905   16920   16923       4   16917   16905   16920   16941       4
   16917   16935  -16953   16941       4   16917   16935   16953   16971       4
   16914   16902   16911   16926       4   16914   16908   16923   16920      10
   16914   16932  -16944   16926       4   16911   16902   16914   16932       4
   16911   16926  -16944   16932       4   16911   16926   16947   16965       6
   16911   16926   16947   16968       6   16908   16899   16905   16917      11
   16908   16899  -16905   16920      11   16908   16914   16902   16911       4
   16908   16914   16932   16944       4   16908   16923   16920   16941      12
   16905   16899   16908   16914      13   16905   16899  -16908   16923      13
   16905   16917   16935   16953       4   16905   16920  -16923   16908      12
   16905   16920  -16941   16953       4   16902   16896   16899   16905      10
   16902   16896  -16899   16908      10   16902   16911   16926   16944       4
   16902   16911   16926   16947       4   16902   16914   16908   16923       9
   16902   16914  -16932   16944       4   16899   16896   16902   16911      14
   16899   16896  -16902   16914      14   16899   16905   16917   16935       4
   16899   16905  -16920   16923       4   16899   16905   16920   16941       4
   16899   16908  -16914   16902      15   16899   16908   16914   16932      15
   16899   16908  -16923   16920      10   16896   16899   16905   16917       9
   16896   16899   16905   16920       9   16896   16899  -16908   16914      13
   16896   16899   16908   16923      13   16896   16902   16911   16926       4
   16896   16902  -16914   16908       4   16896   16902   16914   16932       4
   17235   17250   17253   17265       3   17226   17235   17250   17253       3
   17217   17226   17235   17250       3   17208   17217   17226   17235       3
   17196   17208   17217   17226       3   17178   17196   17208   17217       3
   17163   17178   17196   17208       3   17160   17139   17157   17166       4
   17160   17172  -17187   17166       4   17157   17139   17160   17172       4
   17157   17166  -17187   17172       4   17145   17163   17178   17196       5
   17139   17157   17166   17187       4   17139   17160  -17172   17187       4
   17136   17118   17139   17157       6   17136   17118   17139   17160       6
   17133   17145   17163   17178       7   17127   17145   17163   17178       7
   17124   17136   17118   17139       4   17118   17139   17157   17166       4
   17118   17139   17160   17172       4   17115   17100   17106   17124       9
   17115   17112   17133   17145       4   17112   17097   17109   17127       4
   17112   17133  -17145   17127       4   17112   17133   17145   17163       4
   17109   17097   17112   17115       4   17109   17097   17112   17133       4
   17109   17127  -17145   17133       4   17109   17127   17145   17163       4
   17106   17094   17103   17118       4   17106   17100   17115   17112      10
   17106   17124  -17136   17118       4   17103   17094   17106   17124       4
   17103   17118  -17136   17124       4   17103   17118   17139   17157       6
   17103   17118   17139   17160       6   17100   17091   17097   17109      11
   17100   17091  -17097   17112      11   17100   17106   17094   17103       4
   17100   17106   17124   17136       4   17100   17115   17112   17133      12
   17097   17091   17100   17106      13   17097   17091  -17100   17115      13
   17097   17109   17127   17145       4   17097   17112  -17115   17100      12
   17097   17112  -17133   17145       4   17094   17088   17091   17097      10
   17094   17088  -17091   17100      10   17094   17103   17118   17136       4
   17094   17103   17118   17139       4   17094   17106   17100   17115       9
   17094   17106  -17124   17136       4   17091   17088   17094   17103      14
   17091   17088  -17094   17106      14   17091   17097   17109   17127       4
   17091   17097  -17112   17115       4   17091   17097   17112   17133       4
   17091   17100  -17106   17094      15   17091   17100   17106   17124      15
   17091   17100  -17115   17112      10   17088   17091   17097   17109       9
   17088   17091   17097   17112       9   17088   17091  -17100   17106      13
   17088   17091   17100   17115      13   17088   17094   17103   17118       4
   17088   17094  -17106   17100       4   17088   17094   17106   17124       4
   17427   17442   17445   17457       3   17418   17427   17442   17445       3
   17409   17418   17427   17442       3   17400   17409   17418   17427       3
   17388   17400   17409   17418       3   17370   17388   17400   17409       3
   17355   17370   17388   17400       3   17352   17331   17349   17358       4
   17352   17364  -17379   17358       4   17349   17331   17352   17364       4
   17349   17358  -17379   17364       4   17337   17355   17370   17388       5
   17331   17349   17358   17379       4   17331   17352  -17364   17379       4
   17328   17310   17331   17349       6   17328   17310   17331   17352       6
   17325   17337   17355   17370       7   17319   17337   17355   17370       7
   17316   17328   17310   17331       4   17310   17331   17349   17358       4
   17310   17331   17352   17364       4   17307   17292   17298   17316       9
   17307   17304   17325   17337       4   17304   17289   17301   17319       4
   17304   17325  -17337   17319       4   17304   17325   17337   17355       4
   17301   17289   17304   17307       4   17301   17289   17304   17325       4
   17301   17319  -17337   17325       4   17301   17319   17337   17355       4
   17298   17286   17295   17310       4   17298   17292   17307   17304      10
   17298   17316  -17328   17310       4   17295   17286   17298   17316       4
   17295   17310  -17328   17316       4   17295   17310   17331   17349       6
   17295   17310   17331   17352       6   17292   17283   17289   17301      11
   17292   17283  -17289   17304      11   17292   17298   17286   17295       4
   17292   17298   17316   17328       4   17292   17307   17304   17325      12
   17289   17283   17292   17298      13   17289   17283  -17292   17307      13
   17289   17301   17319   17337       4   17289   17304  -17307   17292      12
   17289   17304  -17325   17337       4   17286   17280   17283   17289      10
   17286   17280  -17283   17292      10   17286   17295   17310   17328       4
   17286   17295   17310   17331       4   17286   17298   17292   17307       9
   17286   17298  -17316   17328       4   17283   17280   17286   17295      14
   17283   17280  -17286   17298      14   17283   17289   17301   17319       4
   17283   17289  -17304   17307       4   17283   17289   17304   17325       4
   17283   17292  -17298   17286      15   17283   17292   17298   17316      15
   17283   17292  -17307   17304      10   17280   17283   17289   17301       9
   17280   17283   17289   17304       9   17280   17283  -17292   17298      13
   17280   17283   17292   17307      13   17280   17286   17295   17310       4
   17280   17286  -17298   17292       4   17280   17286   17298   17316       4
   17619   17634   17637   17649       3   17610   17619   17634   17637       3
   17601   17610   17619   17634       3   17592   17601   17610   17619       3
   17580   17592   17601   17610       3   17562   17580   17592   17601       3
   17547   17562   17580   17592       3   17544   17523   17541   17550       4
   17544   17556  -17571   17550       4   17541   17523   17544   17556       4
   17541   17550  -17571   17556       4   17529   17547   17562   17580       5
   17523   17541   17550   17571       4   17523   17544  -17556   17571       4
   17520   17502   17523   17541       6   17520   17502   17523   17544       6
   17517   17529   17547   17562       7   17511   17529   17547   17562       7
   17508   17520   17502   17523       4   17502   17523   17541   17550       4
   17502   17523   17544   17556       4   17499   17484   17490   17508       9
   17499   17496   17517   17529       4   17496   17481   17493   17511       4
   17496   17517  -17529   17511       4   17496   17517   17529   17547       4
   17493   17481   17496   17499       4   17493   17481   17496   17517       4
   17493   17511  -17529   17517       4   17493   17511   17529   17547       4
   17490   17478   17487   17502       4   17490   17484   17499   17496      10
   17490   17508  -17520   17502       4   17487   17478   17490   17508       4
   17487   17502  -17520   17508       4   17487   17502   17523   17541       6
   17487   17502   17523   17544       6   17484   17475   17481   17493      11
   17484   17475  -17481   17496      11   17484   17490   17478   17487       4
   17484   17490   17508   17520       4   17484   17499   17496   17517      12
   17481   17475   17484   17490      13   17481   17475  -17484   17499      13
   17481   17493   17511   17529       4   17481   17496  -17499   17484      12
   17481   17496  -17517   17529       4   17478   17472   17475   17481      10
   17478   17472  -17475   17484      10   17478   17487   17502   17520       4
   17478   17487   17502   17523       4   17478   17490   17484   17499       9
   17478   17490  -17508   17520       4   17475   17472   17478   17487      14
   17475   17472  -17478   17490      14   17475   17481   17493   17511       4
   17475   17481  -17496   17499       4   17475   17481   17496   17517       4
   17475   17484  -17490   17478      15   17475   17484   17490   17508      15
   17475   17484  -17499   17496      10   17472   17475   17481   17493       9
   17472   17475   17481   17496       9   17472   17475  -17484   17490      13
   17472   17475   17484   17499      13   17472   17478   17487   17502       4
   17472   17478  -17490   17484       4   17472   17478   17490   17508       4
   17811   17826   17829   17841       3   17802   17811   17826   17829       3
   17793   17802   17811   17826       3   17784   17793   17802   17811       3
   17772   17784   17793   17802       3   17754   17772   17784   17793       3
   17739   17754   17772   17784       3   17736   17715   17733   17742       4
   17736   17748  -17763   17742       4   17733   17715   17736   17748       4
   17733   17742  -17763   17748       4   17721   17739   17754   17772       5
   17715   17733   17742   17763       4   17715   17736  -17748   17763       4
   17712   17694   17715   17733       6   17712   17694   17715   17736       6
   17709   17721   17739   17754       7   17703   17721   17739   17754       7
   17700   17712   17694   17715       4   17694   17715   17733   17742       4
   17694   17715   17736   17748       4   17691   17676   17682   17700       9
   17691   17688   17709   17721       4   17688   17673   17685   17703       4
   17688   17709  -17721   17703       4   17688   17709   17721   17739       4
   17685   17673   17688   17691       4   17685   17673   17688   17709       4
   17685   17703  -17721   17709       4   17685   17703   17721   17739       4
   17682   17670   17679   17694       4   17682   17676   17691   17688      10
   17682   17700  -17712   17694       4   17679   17670   17682   17700       4
   17679   17694  -17712   17700       4   17679   17694   17715   17733       6
   17679   17694   17715   17736       6   17676   17667   17673   17685      11
   17676   17667  -17673   17688      11   17676   17682   17670   17679       4
   17676   17682   17700   17712       4   17676   17691   17688   17709      12
   17673   17667   17676   17682      13   17673   17667  -17676   17691      13
   17673   17685   17703   17721       4   17673   17688  -17691   17676      12
   17673   17688  -17709   17721       4   17670   17664   17667   17673      10
   17670   17664  -17667   17676      10   17670   17679   17694   17712       4
   17670   17679   17694   17715       4   17670   17682   17676   17691       9
   17670   17682  -17700   17712       4   17667   17664   17670   17679      14
   17667   17664  -17670   17682      14   17667   17673   17685   17703       4
   17667   17673  -17688   17691       4   17667   17673   17688   17709       4
   17667   17676  -17682   17670      15   17667   17676   17682   17700      15
   17667   17676  -17691   17688      10   17664   17667   17673   17685       9
   17664   17667   17673   17688       9   17664   17667  -17676   17682      13
   17664   17667   17676   17691      13   17664   17670   17679   17694       4
   17664   17670  -17682   17676       4   17664   17670   17682   17700       4
   18003   18018   18021   18033       3   17994   18003   18018   18021       3
   17985   17994   18003   18018       3   17976   17985   17994   18003       3
   17964   17976   17985   17994       3   17946   17964   17976   17985       3
   17931   17946   17964   17976       3   17928   17907   17925   17934       4
   17928   17940  -17955   17934       4   17925   17907   17928   17940       4
   17925   17934  -17955   17940       4   17913   17931   17946   17964       5
   17907   17925   17934   17955       4   17907   17928  -17940   17955       4
   17904   17886   17907   17925       6   17904   17886   17907   17928       6
   17901   17913   17931   17946       7   17895   17913   17931   17946       7
   17892   17904   17886   17907       4   17886   17907   17925   17934       4
   17886   17907   17928   17940       4   17883   17868   17874   17892       9
   17883   17880   17901   17913       4   17880   17865   17877   17895       4
   17880   17901  -17913   17895       4   17880   17901   17913   17931       4
   17877   17865   17880   17883       4   17877   17865   17880   17901       4
   17877   17895  -17913   17901       4   17877   17895   17913   17931       4
   17874   17862   17871   17886       4   17874   17868   17883   17880      10
   17874   17892  -17904   17886       4   17871   17862   17874   17892       4
   17871   17886  -17904   17892       4   17871   17886   17907   17925       6
   17871   17886   17907   17928       6   17868   17859   17865   17877      11
   17868   17859  -17865   17880      11   17868   17874   17862   17871       4
   17868   17874   17892   17904       4   17868   17883   17880   17901      12
   17865   17859   17868   17874      13   17865   17859  -17868   17883      13
   17865   17877   17895   17913       4   17865   17880  -17883   17868      12
   17865   17880  -17901   17913       4   17862   17856   17859   17865      10
   17862   17856  -17859   17868      10   17862   17871   17886   17904       4
   17862   17871   17886   17907       4   17862   17874   17868   17883       9
   17862   17874  -17892   17904       4   17859   17856   17862   17871      14
   17859   17856  -17862   17874      14   17859   17865   17877   17895       4
   17859   17865  -17880   17883       4   17859   17865   17880   17901       4
   17859   17868  -17874   17862      15   17859   17868   17874   17892      15
   17859   17868  -17883   17880      10   17856   17859   17865   17877       9
   17856   17859   17865   17880       9   17856   17859  -17868   17874      13
   17856   17859   17868   17883      13   17856   17862   17871   17886       4
   17856   17862  -17874   17868       4   17856   17862   17874   17892       4
   18195   18210   18213   18225       3   18186   18195   18210   18213       3
   18177   18186   18195   18210       3   18168   18177   18186   18195       3
   18156   18168   18177   18186       3   18138   18156   18168   18177       3
   18123   18138   18156   18168       3   18120   18099   18117   18126       4
   18120   18132  -18147   18126       4   18117   18099   18120   18132       4
   18117   18126  -18147   18132       4   18105   18123   18138   18156       5
   18099   18117   18126   18147       4   18099   18120  -18132   18147       4
   18096   18078   18099   18117       6   18096   18078   18099   18120       6
   18093   18105   18123   18138       7   18087   18105   18123   18138       7
   18084   18096   18078   18099       4   18078   18099   18117   18126       4
   18078   18099   18120   18132       4   18075   18060   18066   18084       9
   18075   18072   18093   18105       4   18072   18057   18069   18087       4
   18072   18093  -18105   18087       4   18072   18093   18105   18123       4
   18069   18057   18072   18075       4   18069   18057   18072   18093       4
   18069   18087  -18105   18093       4   18069   18087   18105   18123       4
   18066   18054   18063   18078       4   18066   18060   18075   18072      10
   18066   18084  -18096   18078       4   18063   18054   18066   18084       4
   18063   18078  -18096   18084       4   18063   18078   18099   18117       6
   18063   18078   18099   18120       6   18060   18051   18057   18069      11
   18060   18051  -18057   18072      11   18060   18066   18054   18063       4
   18060   18066   18084   18096       4   18060   18075   18072   18093      12
   18057   18051   18060   18066      13   18057   18051  -18060   18075      13
   18057   18069   18087   18105       4   18057   18072  -18075   18060      12
   18057   18072  -18093   18105       4   18054   18048   18051   18057      10
   18054   18048  -18051   18060      10   18054   18063   18078   18096       4
   18054   18063   18078   18099       4   18054   18066   18060   18075       9
   18054   18066  -18084   18096       4   18051   18048   18054   18063      14
   18051   18048  -18054   18066      14   18051   18057   18069   18087       4
   18051   18057  -18072   18075       4   18051   18057   18072   18093       4
   18051   18060  -18066   18054      15   18051   18060   18066   18084      15
   18051   18060  -18075   18072      10   18048   18051   18057   18069       9
   18048   18051   18057   18072       9   18048   18051  -18060   18066      13
   18048   18051   18060   18075      13   18048   18054   18063   18078       4
   18048   18054  -18066   18060       4   18048   18054   18066   18084       4
   18387   18402   18405   18417       3   18378   18387   18402   18405       3
   18369   18378   18387   18402       3   18360   18369   18378   18387       3
   18348   18360   18369   18378       3   18330   18348   18360   18369       3
   18315   18330   18348   18360       3   18312   18291   18309   18318       4
   18312   18324  -18339   18318       4   18309   18291   18312   18324       4
   18309   18318  -18339   18324       4   18297   18315   18330   18348       5
   18291   18309   18318   18339       4   18291   18312  -18324   18339       4
   18288   18270   18291   18309       6   18288   18270   18291   18312       6
   18285   18297   18315   18330       7   18279   18297   18315   18330       7
   18276   18288   18270   18291       4   18270   18291   18309   18318       4
   18270   18291   18312   18324       4   18267   18252   18258   18276       9
   18267   18264   18285   18297       4   18264   18249   18261   18279       4
   18264   18285  -18297   18279       4   18264   18285   18297   18315       4
   18261   18249   18264   18267       4   18261   18249   18264   18285       4
   18261   18279  -18297   18285       4   18261   18279   18297   18315       4
   18258   18246   18255   18270       4   18258   18252   18267   18264      10
   18258   18276  -18288   18270       4   18255   18246   18258   18276       4
   18255   18270  -18288   18276       4   18255   18270   18291   18309       6
   18255   18270   18291   18312       6   18252   18243   18249   18261      11
   18252   18243  -18249   18264      11   18252   18258   18246   18255       4
   18252   18258   18276   18288       4   18252   18267   18264   18285      12
   18249   18243   18252   18258      13   18249   18243  -18252   18267      13
   18249   18261   18279   18297       4   18249   18264  -18267   18252      12
   18249   18264  -18285   18297       4   18246   18240   18243   18249      10
   18246   18240  -18243   18252      10   18246   18255   18270   18288       4
   18246   18255   18270   18291       4   18246   18258   18252   18267       9
   18246   18258  -18276   18288       4   18243   18240   18246   18255      14
   18243   18240  -18246   18258      14   18243   18249   18261   18279       4
   18243   18249  -18264   18267       4   18243   18249   18264   18285       4
   18243   18252  -18258   18246      15   18243   18252   18258   18276      15
   18243   18252  -18267   18264      10   18240   18243   18249   18261       9
   18240   18243   18249   18264       9   18240   18243  -18252   18258      13
   18240   18243   18252   18267      13   18240   18246   18255   18270       4
   18240   18246  -18258   18252       4   18240   18246   18258   18276       4
   18579   18594   18597   18609       3   18570   18579   18594   18597       3
   18561   18570   18579   18594       3   18552   18561   18570   18579       3
   18540   18552   18561   18570       3   18522   18540   18552   18561       3
   18507   18522   18540   18552       3   18504   18483   18501   18510       4
   18504   18516  -18531   18510       4   18501   18483   18504   18516       4
   18501   18510  -18531   18516       4   18489   18507   18522   18540       5
   18483   18501   18510   18531       4   18483   18504  -18516   18531       4
   18480   18462   18483   18501       6   18480   18462   18483   18504       6
   18477   18489   18507   18522       7   18471   18489   18507   18522       7
   18468   18480   18462   18483       4   18462   18483   18501   18510       4
   18462   18483   18504   18516       4   18459   18444   18450   18468       9
   18459   18456   18477   18489       4   18456   18441   18453   18471       4
   18456   18477  -18489   18471       4   18456   18477   18489   18507       4
   18453   18441   18456   18459       4   18453   18441   18456   18477       4
   18453   18471  -18489   18477       4   18453   18471   18489   18507       4
   18450   18438   18447   18462       4   18450   18444   18459   18456      10
   18450   18468  -18480   18462       4   18447   18438   18450   18468       4
   18447   18462  -18480   18468       4   18447   18462   18483   18501       6
   18447   18462   18483   18504       6   18444   18435   18441   18453      11
   18444   18435  -18441   18456      11   18444   18450   18438   18447       4
   18444   18450   18468   18480       4   18444   18459   18456   18477      12
   18441   18435   18444   18450      13   18441   18435  -18444   18459      13
   18441   18453   18471   18489       4   18441   18456  -18459   18444      12
   18441   18456  -18477   18489       4   18438   18432   18435   18441      10
   18438   18432  -18435   18444      10   18438   18447   18462   18480       4
   18438   18447   18462   18483       4   18438   18450   18444   18459       9
   18438   18450  -18468   18480       4   18435   18432   18438   18447      14
   18435   18432  -18438   18450      14   18435   18441   18453   18471       4
   18435   18441  -18456   18459       4   18435   18441   18456   18477       4
   18435   18444  -18450   18438      15   18435   18444   18450   18468      15
   18435   18444  -18459   18456      10   18432   18435   18441   18453       9
   18432   18435   18441   18456       9   18432   18435  -18444   18450      13
   18432   18435   18444   18459      13   18432   18438   18447   18462       4
   18432   18438  -18450   18444       4   18432   18438   18450   18468       4
   18771   18786   18789   18801       3   18762   18771   18786   18789       3
   18753   18762   18771   18786       3   18744   18753   18762   18771       3
   18732   18744   18753   18762       3   18714   18732   18744   18753       3
   18699   18714   18732   18744       3   18696   18675   18693   18702       4
   18696   18708  -18723   18702       4   18693   18675   18696   18708       4
   18693   18702  -18723   18708       4   18681   18699   18714   18732       5
   18675   18693   18702   18723       4   18675   18696  -18708   18723       4
   18672   18654   18675   18693       6   18672   18654   18675   18696       6
   18669   18681   18699   18714       7   18663   18681   18699   18714       7
   18660   18672   18654   18675       4   18654   18675   18693   18702       4
   18654   18675   18696   18708       4   18651   18636   18642   18660       9
   18651   18648   18669   18681       4   18648   18633   18645   18663       4
   18648   18669  -18681   18663       4   18648   18669   18681   18699       4
   18645   18633   18648   18651       4   18645   18633   18648   18669       4
   18645   18663  -18681   18669       4   18645   18663   18681   18699       4
   18642   18630   18639   18654       4   18642   18636   18651   18648      10
   18642   18660  -18672   18654       4   18639   18630   18642   18660       4
   18639   18654  -18672   18660       4   18639   18654   18675   18693       6
   18639   18654   18675   18696       6   18636   18627   18633   18645      11
   18636   18627  -18633   18648      11   18636   18642   18630   18639       4
   18636   18642   18660   18672       4   18636   18651   18648   18669      12
   18633   18627   18636   18642      13   18633   18627  -18636   18651      13
   18633   18645   18663   18681       4   18633   18648  -18651   18636      12
   18633   18648  -18669   18681       4   18630   18624   18627   18633      10
   18630   18624  -18627   18636      10   18630   18639   18654   18672       4
   18630   18639   18654   18675       4   18630   18642   18636   18651       9
   18630   18642  -18660   18672       4   18627   18624   18630   18639      14
   18627   18624  -18630   18642      14   18627   18633   18645   18663       4
   18627   18633  -18648   18651       4   18627   18633   18648   18669       4
   18627   18636  -18642   18630      15   18627   18636   18642   18660      15
   18627   18636  -18651   18648      10   18624   18627   18633   18645       9
   18624   18627   18633   18648       9   18624   18627  -18636   18642      13
   18624   18627   18636   18651      13   18624   18630   18639   18654       4
   18624   18630  -18642   18636       4   18624   18630   18642   18660       4
   18963   18978   18981   18993       3   18954   18963   18978   18981       3
   18945   18954   18963   18978       3   18936   18945   18954   18963       3
   18924   18936   18945   18954       3   18906   18924   18936   18945       3
   18891   18906   18924   18936       3   18888   18867   18885   18894       4
   18888   18900  -18915   18894       4   18885   18867   18888   18900       4
   18885   18894  -18915   18900       4   18873   18891   18906   18924       5
   18867   18885   18894   18915       4   18867   18888  -18900   18915       4
   18864   18846   18867   18885       6   18864   18846   18867   18888       6
   18861   18873   18891   18906       7   18855   18873   18891   18906       7
   18852   18864   18846   18867       4   18846   18867   18885   18894       4
   18846   18867   18888   18900       4   18843   18828   18834   18852       9
   18843   18840   18861   18873       4   18840   18825   18837   18855       4
   18840   18861  -18873   18855       4   18840   18861   18873   18891       4
   18837   18825   18840   18843       4   18837   18825   18840   18861       4
   18837   18855  -18873   18861       4   18837   18855   18873   18891       4
   18834   18822   18831   18846       4   18834   18828   18843   18840      10
   18834   18852  -18864   18846       4   18831   18822   18834   18852       4
   18831   18846  -18864   18852       4   18831   18846   18867   18885       6
   18831   18846   18867   18888       6   18828   18819   18825   18837      11
   18828   18819  -18825   18840      11   18828   18834   18822   18831       4
   18828   18834   18852   18864       4   18828   18843   18840   18861      12
   18825   18819   18828   18834      13   18825   18819  -18828   18843      13
   18825   18837   18855   18873       4   18825   18840  -18843   18828      12
   18825   18840  -18861   18873       4   18822   18816   18819   18825      10
   18822   18816  -18819   18828      10   18822   18831   18846   18864       4
   18822   18831   18846   18867       4   18822   18834   18828   18843       9
   18822   18834  -18852   18864       4   18819   18816   18822   18831      14
   18819   18816  -18822   18834      14   18819   18825   18837   18855       4
   18819   18825  -18840   18843       4   18819   18825   18840   18861       4
   18819   18828  -18834   18822      15   18819   18828   18834   18852      15
   18819   18828  -18843   18840      10   18816   18819   18825   18837       9
   18816   18819   18825   18840       9   18816   18819  -18828   18834      13
   18816   18819   18828   18843      13   18816   18822   18831   18846       4
   18816   18822  -18834   18828       4   18816   18822   18834   18852       4
   19155   19170   19173   19185       3   19146   19155   19170   19173       3
   19137   19146   19155   19170       3   19128   19137   19146   19155       3
   19116   19128   19137   19146       3   19098   19116   19128   19137       3
   19083   19098   19116   19128       3   19080   19059   19077   19086       4
   19080   19092  -19107   19086       4   19077   19059   19080   19092       4
   19077   19086  -19107   19092       4   19065   19083   19098   19116       5
   19059   19077   19086   19107       4   19059   19080  -19092   19107       4
   19056   19038   19059   19077       6   19056   19038   19059   19080       6
   19053   19065   19083   19098       7   19047   19065   19083   19098       7
   19044   19056   19038   19059       4   19038   19059   19077   19086       4
   19038   19059   19080   19092       4   19035   19020   19026   19044       9
   19035   19032   19053   19065       4   19032   19017   19029   19047       4
   19032   19053  -19065   19047       4   19032   19053   19065   19083       4
   19029   19017   19032   19035       4   19029   19017   19032   19053       4
   19029   19047  -19065   19053       4   19029   19047   19065   19083       4
   19026   19014   19023   19038       4   19026   19020   19035   19032      10
   19026   19044  -19056   19038       4   19023   19014   19026   19044       4
   19023   19038  -19056   19044       4   19023   19038   19059   19077       6
   19023   19038   19059   19080       6   19020   19011   19017   19029      11
   19020   19011  -19017   19032      11   19020   19026   19014   19023       4
   19020   19026   19044   19056       4   19020   19035   19032   19053      12
   19017   19011   19020   19026      13   19017   19011  -19020   19035      13
   19017   19029   19047   19065       4   19017   19032  -19035   19020      12
   19017   19032  -19053   19065       4   19014   19008   19011   19017      10
   19014   19008  -19011   19020      10   19014   19023   19038   19056       4
   19014   19023   19038   19059       4   19014   19026   19020   19035       9
   19014   19026  -19044   19056       4   19011   19008   19014   19023      14
   19011   19008  -19014   19026      14   19011   19017   19029   19047       4
   19011   19017  -19032   19035       4   19011   19017   19032   19053       4
   19011   19020  -19026   19014      15   19011   19020   19026   19044      15
   19011   19020  -19035   19032      10   19008   19011   19017   19029       9
   19008   19011   19017   19032       9   19008   19011  -19020   19026      13
   19008   19011   19020   19035      13   19008   19014   19023   19038       4
   19008   19014  -19026   19020       4   19008   19014   19026   19044       4
   19347   19362   19365   19377       3   19338   19347   19362   19365       3
   19329   19338   19347   19362       3   19320   19329   19338   19347       3
   19308   19320   19329   19338       3   19290   19308   19320   19329       3
   19275   19290   19308   19320       3   19272   19251   19269   19278       4
   19272   19284  -19299   19278       4   19269   19251   19272   19284       4
   19269   19278  -19299   19284       4   19257   19275   19290   19308       5
   19251   19269   19278   19299       4   19251   19272  -19284   19299       4
   19248   19230   19251   19269       6   19248   19230   19251   19272       6
   19245   19257   19275   19290       7   19239   19257   19275   19290       7
   19236   19248   19230   19251       4   19230   19251   19269   19278       4
   19230   19251   19272   19284       4   19227   19212   19218   19236       9
   19227   19224   19245   19257       4   19224   19209   19221   19239       4
   19224   19245  -19257   19239       4   19224   19245   19257   19275       4
   19221   19209   19224   19227       4   19221   19209   19224   19245       4
   19221   19239  -19257   19245       4   19221   19239   19257   19275       4
   19218   19206   19215   19230       4   19218   19212   19227   19224      10
   19218   19236  -19248   19230       4   19215   19206   19218   19236       4
   19215   19230  -19248   19236       4   19215   19230   19251   19269       6
   19215   19230   19251   19272       6   19212   19203   19209   19221      11
   19212   19203  -19209   19224      11   19212   19218   19206   19215       4
   19212   19218   19236   19248       4   19212   19227   19224   19245      12
   19209   19203   19212   19218      13   19209   19203  -19212   19227      13
   19209   19221   19239   19257       4   19209   19224  -19227   19212      12
   19209   19224  -19245   19257       4   19206   19200   19203   19209      10
   19206   19200  -19203   19212      10   19206   19215   19230   19248       4
   19206   19215   19230   19251       4   19206   19218   19212   19227       9
   19206   19218  -19236   19248       4   19203   19200   19206   19215      14
   19203   19200  -19206   19218      14   19203   19209   19221   19239       4
   19203   19209  -19224   19227       4   19203   19209   19224   19245       4
   19203   19212  -19218   19206      15   19203   19212   19218   19236      15
   19203   19212  -19227   19224      10   19200   19203   19209   19221       9
   19200   19203   19209   19224       9   19200   19203  -19212   19218      13
   19200   19203   19212   19227      13   19200   19206   19215   19230       4
   19200   19206  -19218   19212       4   19200   19206   19218   19236       4
   19539   19554   19557   19569       3   19530   19539   19554   19557       3
   19521   19530   19539   19554       3   19512   19521   19530   19539       3
   19500   19512   19521   19530       3   19482   19500   19512   19521       3
   19467   19482   19500   19512       3   19464   19443   19461   19470       4
   19464   19476  -19491   19470       4   19461   19443   19464   19476       4
   19461   19470  -19491   19476       4   19449   19467   19482   19500       5
   19443   19461   19470   19491       4   19443   19464  -19476   19491       4
   19440   19422   19443   19461       6   19440   19422   19443   19464       6
   19437   19449   19467   19482       7   19431   19449   19467   19482       7
   19428   19440   19422   19443       4   19422   19443   19461   19470       4
   19422   19443   19464   19476       4   19419   19404   19410   19428       9
   19419   19416   19437   19449       4   19416   19401   19413   19431       4
   19416   19437  -19449   19431       4   19416   19437   19449   19467       4
   19413   19401   19416   19419       4   19413   19401   19416   19437       4
   19413   19431  -19449   19437       4   19413   19431   19449   19467       4
   19410   19398   19407   19422       4   19410   19404   19419   19416      10
   19410   19428  -19440   19422       4   19407   19398   19410   19428       4
   19407   19422  -19440   19428       4   19407   19422   19443   19461       6
   19407   19422   19443   19464       6   19404   19395   19401   19413      11
   19404   19395  -19401   19416      11   19404   19410   19398   19407       4
   19404   19410   19428   19440       4   19404   19419   19416   19437      12
   19401   19395   19404   19410      13   19401   19395  -19404   19419      13
   19401   19413   19431   19449       4   19401   19416  -19419   19404      12
   19401   19416  -19437   19449       4   19398   19392   19395   19401      10
   19398   19392  -19395   19404      10   19398   19407   19422   19440       4
   19398   19407   19422   19443       4   19398   19410   19404   19419       9
   19398   19410  -19428   19440       4   19395   19392   19398   19407      14
   19395   19392  -19398   19410      14   19395   19401   19413   19431       4
   19395   19401  -19416   19419       4   19395   19401   19416   19437       4
   19395   19404  -19410   19398      15   19395   19404   19410   19428      15
   19395   19404  -19419   19416      10   19392   19395   19401   19413       9
   19392   19395   19401   19416       9   19392   19395  -19404   19410      13
   19392   19395   19404   19419      13   19392   19398   19407   19422       4
   19392   19398  -19410   19404       4   19392   19398   19410   19428       4
   19731   19746   19749   19761       3   19722   19731   19746   19749       3
   19713   19722   19731   19746       3   19704   19713   19722   19731       3
   19692   19704   19713   19722       3   19674   19692   19704   19713       3
   19659   19674   19692   19704       3   19656   19635   19653   19662       4
   19656   19668  -19683   19662       4   19653   19635   19656   19668       4
   19653   19662  -19683   19668       4   19641   19659   19674   19692       5
   19635   19653   19662   19683       4   19635   19656  -19668   19683       4
   19632   19614   19635   19653       6   19632   19614   19635   19656       6
   19629   19641   19659   19674       7   19623   19641   19659   19674       7
   19620   19632   19614   19635       4   19614   19635   19653   19662       4
   19614   19635   19656   19668       4   19611   19596   19602   19620       9
   19611   19608   19629   19641       4   19608   19593   19605   19623       4
   19608   19629  -19641   19623       4   19608   19629   19641   19659       4
   19605   19593   19608   19611       4   19605   19593   19608   19629       4
   19605   19623  -19641   19629       4   19605   19623   19641   19659       4
   19602   19590   19599   19614       4   19602   19596   19611   19608      10
   19602   19620  -19632   19614       4   19599   19590   19602   19620       4
   19599   19614  -19632   19620       4   19599   19614   19635   19653       6
   19599   19614   19635   19656       6   19596   19587   19593   19605      11
   19596   19587  -19593   19608      11   19596   19602   19590   19599       4
   19596   19602   19620   19632       4   19596   19611   19608   19629      12
   19593   19587   19596   19602      13   19593   19587  -19596   19611      13
   19593   19605   19623   19641       4   19593   19608  -19611   19596      12
   19593   19608  -19629   19641       4   19590   19584   19587   19593      10
   19590   19584  -19587   19596      10   19590   19599   19614   19632       4
   19590   19599   19614   19635       4   19590   19602   19596   19611       9
   19590   19602  -19620   19632       4   19587   19584   19590   19599      14
   19587   19584  -19590   19602      14   19587   19593   19605   19623       4
   19587   19593  -19608   19611       4   19587   19593   19608   19629       4
   19587   19596  -19602   19590      15   19587   19596   19602   19620      15
   19587   19596  -19611   19608      10   19584   19587   19593   19605       9
   19584   19587   19593   19608       9   19584   19587  -19596   19602      13
   19584   19587   19596   19611      13   19584   19590   19599   19614       4
   19584   19590  -19602   19596       4   19584   19590   19602   19620       4
   19923   19938   19941   19953       3   19914   19923   19938   19941       3
   19905   19914   19923   19938       3   19896   19905   19914   19923       3
   19884   19896   19905   19914       3   19866   19884   19896   19905       3
   19851   19866   19884   19896       3   19848   19827   19845   19854       4
   19848   19860  -19875   19854       4   19845   19827   19848   19860       4
   19845   19854  -19875   19860       4   19833   19851   19866   19884       5
   19827   19845   19854   19875       4   19827   19848  -19860   19875       4
   19824   19806   19827   19845       6   19824   19806   19827   19848       6
   19821   19833   19851   19866       7   19815   19833   19851   19866       7
   19812   19824   19806   19827       4   19806   19827   19845   19854       4
   19806   19827   19848   19860       4   19803   19788   19794   19812       9
   19803   19800   19821   19833       4   19800   19785   19797   19815       4
   19800   19821  -19833   19815       4   19800   19821   19833   19851       4
   19797   19785   19800   19803       4   19797   19785   19800   19821       4
   19797   19815  -19833   19821       4   19797   19815   19833   19851       4
   19794   19782   19791   19806       4   19794   19788   19803   19800      10
   19794   19812  -19824   19806       4   19791   19782   19794   19812       4
   19791   19806  -19824   19812       4   19791   19806   19827   19845       6
   19791   19806   19827   19848       6   19788   19779   19785   19797      11
   19788   19779  -19785   19800      11   19788   19794   19782   19791       4
   19788   19794   19812   19824       4   19788   19803   19800   19821      12
   19785   19779   19788   19794      13   19785   19779  -19788   19803      13
   19785   19797   19815   19833       4   19785   19800  -19803   19788      12
   19785   19800  -19821   19833       4   19782   19776   19779   19785      10
   19782   19776  -19779   19788      10   19782   19791   19806   19824       4
   19782   19791   19806   19827       4   19782   19794   19788   19803       9
   19782   19794  -19812   19824       4   19779   19776   19782   19791      14
   19779   19776  -19782   19794      14   19779   19785   19797   19815       4
   19779   19785  -19800   19803       4   19779   19785   19800   19821       4
   19779   19788  -19794   19782      15   19779   19788   19794   19812      15
   19779   19788  -19803   19800      10   19776   19779   19785   19797       9
   19776   19779   19785   19800       9   19776   19779  -19788   19794      13
   19776   19779   19788   19803      13   19776   19782   19791   19806       4
   19776   19782  -19794   19788       4   19776   19782   19794   19812       4
   20115   20130   20133   20145       3   20106   20115   20130   20133       3
   20097   20106   20115   20130       3   20088   20097   20106   20115       3
   20076   20088   20097   20106       3   20058   20076   20088   20097       3
   20043   20058   20076   20088       3   20040   20019   20037   20046       4
   20040   20052  -20067   20046       4   20037   20019   20040   20052       4
   20037   20046  -20067   20052       4   20025   20043   20058   20076       5
   20019   20037   20046   20067       4   20019   20040  -20052   20067       4
   20016   19998   20019   20037       6   20016   19998   20019   20040       6
   20013   20025   20043   20058       7   20007   20025   20043   20058       7
   20004   20016   19998   20019       4   19998   20019   20037   20046       4
   19998   20019   20040   20052       4   19995   19980   19986   20004       9
   19995   19992   20013   20025       4   19992   19977   19989   20007       4
   19992   20013  -20025   20007       4   19992   20013   20025   20043       4
   19989   19977   19992   19995       4   19989   19977   19992   20013       4
   19989   20007  -20025   20013       4   19989   20007   20025   20043       4
   19986   19974   19983   19998       4   19986   19980   19995   19992      10
   19986   20004  -20016   19998       4   19983   19974   19986   20004       4
   19983   19998  -20016   20004       4   19983   19998   20019   20037       6
   19983   19998   20019   20040       6   19980   19971   19977   19989      11
   19980   19971  -19977   19992      11   19980   19986   19974   19983       4
   19980   19986   20004   20016       4   19980   19995   19992   20013      12
   19977   19971   19980   19986      13   19977   19971  -19980   19995      13
   19977   19989   20007   20025       4   19977   19992  -19995   19980      12
   19977   19992  -20013   20025       4   19974   19968   19971   19977      10
   19974   19968  -19971   19980      10   19974   19983   19998   20016       4
   19974   19983   19998   20019       4   19974   19986   19980   19995       9
   19974   19986  -20004   20016       4   19971   19968   19974   19983      14
   19971   19968  -19974   19986      14   19971   19977   19989   20007       4
   19971   19977  -19992   19995       4   19971   19977   19992   20013       4
   19971   19980  -19986   19974      15   19971   19980   19986   20004      15
   19971   19980  -19995   19992      10   19968   19971   19977   19989       9
   19968   19971   19977   19992       9   19968   19971  -19980   19986      13
   19968   19971   19980   19995      13   19968   19974   19983   19998       4
   19968   19974  -19986   19980       4   19968   19974   19986   20004       4
   20307   20322   20325   20337       3   20298   20307   20322   20325       3
   20289   20298   20307   20322       3   20280   20289   20298   20307       3
   20268   20280   20289   20298       3   20250   20268   20280   20289       3
   20235   20250   20268   20280       3   20232   20211   20229   20238       4
   20232   20244  -20259   20238       4   20229   20211   20232   20244       4
   20229   20238  -20259   20244       4   20217   20235   20250   20268       5
   20211   20229   20238   20259       4   20211   20232  -20244   20259       4
   20208   20190   20211   20229       6   20208   20190   20211   20232       6
   20205   20217   20235   20250       7   20199   20217   20235   20250       7
   20196   20208   20190   20211       4   20190   20211   20229   20238       4
   20190   20211   20232   20244       4   20187   20172   20178   20196       9
   20187   20184   20205   20217       4   20184   20169   20181   20199       4
   20184   20205  -20217   20199       4   20184   20205   20217   20235       4
   20181   20169   20184   20187       4   20181   20169   20184   20205       4
   20181   20199  -20217   20205       4   20181   20199   20217   20235       4
   20178   20166   20175   20190       4   20178   20172   20187   20184      10
   20178   20196  -20208   20190       4   20175   20166   20178   20196       4
   20175   20190  -20208   20196       4   20175   20190   20211   20229       6
   20175   20190   20211   20232       6   20172   20163   20169   20181      11
   20172   20163  -20169   20184      11   20172   20178   20166   20175       4
   20172   20178   20196   20208       4   20172   20187   20184   20205      12
   20169   20163   20172   20178      13   20169   20163  -20172   20187      13
   20169   20181   20199   20217       4   20169   20184  -20187   20172      12
   20169   20184  -20205   20217       4   20166   20160   20163   20169      10
   20166   20160  -20163   20172      10   20166   20175   20190   20208       4
   20166   20175   20190   20211       4   20166   20178   20172   20187       9
   20166   20178  -20196   20208       4   20163   20160   20166   20175      14
   20163   20160  -20166   20178      14   20163   20169   20181   20199       4
   20163   20169  -20184   20187       4   20163   20169   20184   20205       4
   20163   20172  -20178   20166      15   20163   20172   20178   20196      15
   20163   20172  -20187   20184      10   20160   20163   20169   20181       9
   20160   20163   20169   20184       9   20160   20163  -20172   20178      13
   20160   20163   20172   20187      13   20160   20166   20175   20190       4
   20160   20166  -20178   20172       4   20160   20166   20178   20196       4
   20499   20514   20517   20529       3   20490   20499   20514   20517       3
   20481   20490   20499   20514       3   20472   20481   20490   20499       3
   20460   20472   20481   20490       3   20442   20460   20472   20481       3
   20427   20442   20460   20472       3   20424   20403   20421   20430       4
   20424   20436  -20451   20430       4   20421   20403   20424   20436       4
   20421   20430  -20451   20436       4   20409   20427   20442   20460       5
   20403   20421   20430   20451       4   20403   20424  -20436   20451       4
   20400   20382   20403   20421       6   20400   20382   20403   20424       6
   20397   20409   20427   20442       7   20391   20409   20427   20442       7
   20388   20400   20382   20403       4   20382   20403   20421   20430       4
   20382   20403   20424   20436       4   20379   20364   20370   20388       9
   20379   20376   20397   20409       4   20376   20361   20373   20391       4
   20376   20397  -20409   20391       4   20376   20397   20409   20427       4
   20373   20361   20376   20379       4   20373   20361   20376   20397       4
   20373   20391  -20409   20397       4   20373   20391   20409   20427       4
   20370   20358   20367   20382       4   20370   20364   20379   20376      10
   20370   20388  -20400   20382       4   20367   20358   20370   20388       4
   20367   20382  -20400   20388       4   20367   20382   20403   20421       6
   20367   20382   20403   20424       6   20364   20355   20361   20373      11
   20364   20355  -20361   20376      11   20364   20370   20358   20367       4
   20364   20370   20388   20400       4   20364   20379   20376   20397      12
   20361   20355   20364   20370      13   20361   20355  -20364   20379      13
   20361   20373   20391   20409       4   20361   20376  -20379   20364      12
   20361   20376  -20397   20409       4   20358   20352   20355   20361      10
   20358   20352  -20355   20364      10   20358   20367   20382   20400       4
   20358   20367   20382   20403       4   20358   20370   20364   20379       9
   20358   20370  -20388   20400       4   20355   20352   20358   20367      14
   20355   20352  -20358   20370      14   20355   20361   20373   20391       4
   20355   20361  -20376   20379       4   20355   20361   20376   20397       4
   20355   20364  -20370   20358      15   20355   20364   20370   20388      15
   20355   20364  -20379   20376      10   20352   20355   20361   20373       9
   20352   20355   20361   20376       9   20352   20355  -20364   20370      13
   20352   20355   20364   20379      13   20352   20358   20367   20382       4
   20352   20358  -20370   20364       4   20352   20358   20370   20388       4
   20691   20706   20709   20721       3   20682   20691   20706   20709       3
   20673   20682   20691   20706       3   20664   20673   20682   20691       3
   20652   20664   20673   20682       3   20634   20652   20664   20673       3
   20619   20634   20652   20664       3   20616   20595   20613   20622       4
   20616   20628  -20643   20622       4   20613   20595   20616   20628       4
   20613   20622  -20643   20628       4   20601   20619   20634   20652       5
   20595   20613   20622   20643       4   20595   20616  -20628   20643       4
   20592   20574   20595   20613       6   20592   20574   20595   20616       6
   20589   20601   20619   20634       7   20583   20601   20619   20634       7
   20580   20592   20574   20595       4   20574   20595   20613   20622       4
   20574   20595   20616   20628       4   20571   20556   20562   20580       9
   20571   20568   20589   20601       4   20568   20553   20565   20583       4
   20568   20589  -20601   20583       4   20568   20589   20601   20619       4
   20565   20553   20568   20571       4   20565   20553   20568   20589       4
   20565   20583  -20601   20589       4   20565   20583   20601   20619       4
   20562   20550   20559   20574       4   20562   20556   20571   20568      10
   20562   20580  -20592   20574       4   20559   20550   20562   20580       4
   20559   20574  -20592   20580       4   20559   20574   20595   20613       6
   20559   20574   20595   20616       6   20556   20547   20553   20565      11
   20556   20547  -20553   20568      11   20556   20562   20550   20559       4
   20556   20562   20580   20592       4   20556   20571   20568   20589      12
   20553   20547   20556   20562      13   20553   20547  -20556   20571      13
   20553   20565   20583   20601       4   20553   20568  -20571   20556      12
   20553   20568  -20589   20601       4   20550   20544   20547   20553      10
   20550   20544  -20547   20556      10   20550   20559   20574   20592       4
   20550   20559   20574   20595       4   20550   20562   20556   20571       9
   20550   20562  -20580   20592       4   20547   20544   20550   20559      14
   20547   20544  -20550   20562      14   20547   20553   20565   20583       4
   20547   20553  -20568   20571       4   20547   20553   20568   20589       4
   20547   20556  -20562   20550      15   20547   20556   20562   20580      15
   20547   20556  -20571   20568      10   20544   20547   20553   20565       9
   20544   20547   20553   20568       9   20544   20547  -20556   20562      13
   20544   20547   20556   20571      13   20544   20550   20559   20574       4
   20544   20550  -20562   20556       4   20544   20550   20562   20580       4
   20883   20898   20901   20913       3   20874   20883   20898   20901       3
   20865   20874   20883   20898       3   20856   20865   20874   20883       3
   20844   20856   20865   20874       3   20826   20844   20856   20865       3
   20811   20826   20844   20856       3   20808   20787   20805   20814       4
   20808   20820  -20835   20814       4   20805   20787   20808   20820       4
   20805   20814  -20835   20820       4   20793   20811   20826   20844       5
   20787   20805   20814   20835       4   20787   20808  -20820   20835       4
   20784   20766   20787   20805       6   20784   20766   20787   20808       6
   20781   20793   20811   20826       7   20775   20793   20811   20826       7
   20772   20784   20766   20787       4   20766   20787   20805   20814       4
   20766   20787   20808   20820       4   20763   20748   20754   20772       9
   20763   20760   20781   20793       4   20760   20745   20757   20775       4
   20760   20781  -20793   20775       4   20760   20781   20793   20811       4
   20757   20745   20760   20763       4   20757   20745   20760   20781       4
   20757   20775  -20793   20781       4   20757   20775   20793   20811       4
   20754   20742   20751   20766       4   20754   20748   20763   20760      10
   20754   20772  -20784   20766       4   20751   20742   20754   20772       4
   20751   20766  -20784   20772       4   20751   20766   20787   20805       6
   20751   20766   20787   20808       6   20748   20739   20745   20757      11
   20748   20739  -20745   20760      11   20748   20754   20742   20751       4
   20748   20754   20772   20784       4   20748   20763   20760   20781      12
   20745   20739   20748   20754      13   20745   20739  -20748   20763      13
   20745   20757   20775   20793       4   20745   20760  -20763   20748      12
   20745   20760  -20781   20793       4   20742   20736   20739   20745      10
   20742   20736  -20739   20748      10   20742   20751   20766   20784       4
   20742   20751   20766   20787       4   20742   20754   20748   20763       9
   20742   20754  -20772   20784       4   20739   20736   20742   20751      14
   20739   20736  -20742   20754      14   20739   20745   20757   20775       4
   20739   20745  -20760   20763       4   20739   20745   20760   20781       4
   20739   20748  -20754   20742      15   20739   20748   20754   20772      15
   20739   20748  -20763   20760      10   20736   20739   20745   20757       9
   20736   20739   20745   20760       9   20736   20739  -20748   20754      13
   20736   20739   20748   20763      13   20736   20742   20751   20766       4
   20736   20742  -20754   20748       4   20736   20742   20754   20772       4
   21075   21090   21093   21105       3   21066   21075   21090   21093       3
   21057   21066   21075   21090       3   21048   21057   21066   21075       3
   21036   21048   21057   21066       3   21018   21036   21048   21057       3
   21003   21018   21036   21048       3   21000   20979   20997   21006       4
   21000   21012  -21027   21006       4   20997   20979   21000   21012       4
   20997   21006  -21027   21012       4   20985   21003   21018   21036       5
   20979   20997   21006   21027       4   20979   21000  -21012   21027       4
   20976   20958   20979   20997       6   20976   20958   20979   21000       6
   20973   20985   21003   21018       7   20967   20985   21003   21018       7
   20964   20976   20958   20979       4   20958   20979   20997   21006       4
   20958   20979   21000   21012       4   20955   20940   20946   20964       9
   20955   20952   20973   20985       4   20952   20937   20949   20967       4
   20952   20973  -20985   20967       4   20952   20973   20985   21003       4
   20949   20937   20952   20955       4   20949   20937   20952   20973       4
   20949   20967  -20985   20973       4   20949   20967   20985   21003       4
   20946   20934   20943   20958       4   20946   20940   20955   20952      10
   20946   20964  -20976   20958       4   20943   20934   20946   20964       4
   20943   20958  -20976   20964       4   20943   20958   20979   20997       6
   20943   20958   20979   21000       6   20940   20931   20937   20949      11
   20940   20931  -20937   20952      11   20940   20946   20934   20943       4
   20940   20946   20964   20976       4   20940   20955   20952   20973      12
   20937   20931   20940   20946      13   20937   20931  -20940   20955      13
   20937   20949   20967   20985       4   20937   20952  -20955   20940      12
   20937   20952  -20973   20985       4   20934   20928   20931   20937      10
   20934   20928  -20931   20940      10   20934   20943   20958   20976       4
   20934   20943   20958   20979       4   20934   20946   20940   20955       9
   20934   20946  -20964   20976       4   20931   20928   20934   20943      14
   20931   20928  -20934   20946      14   20931   20937   20949   20967       4
   20931   20937  -20952   20955       4   20931   20937   20952   20973       4
   20931   20940  -20946   20934      15   20931   20940   20946   20964      15
   20931   20940  -20955   20952      10   20928   20931   20937   20949       9
   20928   20931   20937   20952       9   20928   20931  -20940   20946      13
   20928   20931   20940   20955      13   20928   20934   20943   20958       4
   20928   20934  -20946   20940       4   20928   20934   20946   20964       4
   21267   21282   21285   21297       3   21258   21267   21282   21285       3
   21249   21258   21267   21282       3   21240   21249   21258   21267       3
   21228   21240   21249   21258       3   21210   21228   21240   21249       3
   21195   21210   21228   21240       3   21192   21171   21189   21198       4
   21192   21204  -21219   21198       4   21189   21171   21192   21204       4
   21189   21198  -21219   21204       4   21177   21195   21210   21228       5
   21171   21189   21198   21219       4   21171   21192  -21204   21219       4
   21168   21150   21171   21189       6   21168   21150   21171   21192       6
   21165   21177   21195   21210       7   21159   21177   21195   21210       7
   21156   21168   21150   21171       4   21150   21171   21189   21198       4
   21150   21171   21192   21204       4   21147   21132   21138   21156       9
   21147   21144   21165   21177       4   21144   21129   21141   21159       4
   21144   21165  -21177   21159       4   21144   21165   21177   21195       4
   21141   21129   21144   21147       4   21141   21129   21144   21165       4
   21141   21159  -21177   21165       4   21141   21159   21177   21195       4
   21138   21126   21135   21150       4   21138   21132   21147   21144      10
   21138   21156  -21168   21150       4   21135   21126   21138   21156       4
   21135   21150  -21168   21156       4   21135   21150   21171   21189       6
   21135   21150   21171   21192       6   21132   21123   21129   21141      11
   21132   21123  -21129   21144      11   21132   21138   21126   21135       4
   21132   21138   21156   21168       4   21132   21147   21144   21165      12
   21129   21123   21132   21138      13   21129   21123  -21132   21147      13
   21129   21141   21159   21177       4   21129   21144  -21147   21132      12
   21129   21144  -21165   21177       4   21126   21120   21123   21129      10
   21126   21120  -21123   21132      10   21126   21135   21150   21168       4
   21126   21135   21150   21171       4   21126   21138   21132   21147       9
   21126   21138  -21156   21168       4   21123   21120   21126   21135      14
   21123   21120  -21126   21138      14   21123   21129   21141   21159       4
   21123   21129  -21144   21147       4   21123   21129   21144   21165       4
   21123   21132  -21138   21126      15   21123   21132   21138   21156      15
   21123   21132  -21147   21144      10   21120   21123   21129   21141       9
   21120   21123   21129   21144       9   21120   21123  -21132   21138      13
   21120   21123   21132   21147      13   21120   21126   21135   21150       4
   21120   21126  -21138   21132       4   21120   21126   21138   21156       4
   21459   21474   21477   21489       3   21450   21459   21474   21477       3
   21441   21450   21459   21474       3   21432   21441   21450   21459       3
   21420   21432   21441   21450       3   21402   21420   21432   21441       3
   21387   21402   21420   21432       3   21384   21363   21381   21390       4
   21384   21396  -21411   21390       4   21381   21363   21384   21396       4
   21381   21390  -21411   21396       4   21369   21387   21402   21420       5
   21363   21381   21390   21411       4   21363   21384  -21396   21411       4
   21360   21342   21363   21381       6   21360   21342   21363   21384       6
   21357   21369   21387   21402       7   21351   21369   21387   21402       7
   21348   21360   21342   21363       4   21342   21363   21381   21390       4
   21342   21363   21384   21396       4   21339   21324   21330   21348       9
   21339   21336   21357   21369       4   21336   21321   21333   21351       4
   21336   21357  -21369   21351       4   21336   21357   21369   21387       4
   21333   21321   21336   21339       4   21333   21321   21336   21357       4
   21333   21351  -21369   21357       4   21333   21351   21369   21387       4
   21330   21318   21327   21342       4   21330   21324   21339   21336      10
   21330   21348  -21360   21342       4   21327   21318   21330   21348       4
   21327   21342  -21360   21348       4   21327   21342   21363   21381       6
   21327   21342   21363   21384       6   21324   21315   21321   21333      11
   21324   21315  -21321   21336      11   21324   21330   21318   21327       4
   21324   21330   21348   21360       4   21324   21339   21336   21357      12
   21321   21315   21324   21330      13   21321   21315  -21324   21339      13
   21321   21333   21351   21369       4   21321   21336  -21339   21324      12
   21321   21336  -21357   21369       4   21318   21312   21315   21321      10
   21318   21312  -21315   21324      10   21318   21327   21342   21360       4
   21318   21327   21342   21363       4   21318   21330   21324   21339       9
   21318   21330  -21348   21360       4   21315   21312   21318   21327      14
   21315   21312  -21318   21330      14   21315   21321   21333   21351       4
   21315   21321  -21336   21339       4   21315   21321   21336   21357       4
   21315   21324  -21330   21318      15   21315   21324   21330   21348      15
   21315   21324  -21339   21336      10   21312   21315   21321   21333       9
   21312   21315   21321   21336       9   21312   21315  -21324   21330      13
   21312   21315   21324   21339      13   21312   21318   21327   21342       4
   21312   21318  -21330   21324       4   21312   21318   21330   21348       4
   21651   21666   21669   21681       3   21642   21651   21666   21669       3
   21633   21642   21651   21666       3   21624   21633   21642   21651       3
   21612   21624   21633   21642       3   21594   21612   21624   21633       3
   21579   21594   21612   21624       3   21576   21555   21573   21582       4
   21576   21588  -21603   21582       4   21573   21555   21576   21588       4
   21573   21582  -21603   21588       4   21561   21579   21594   21612       5
   21555   21573   21582   21603       4   21555   21576  -21588   21603       4
   21552   21534   21555   21573       6   21552   21534   21555   21576       6
   21549   21561   21579   21594       7   21543   21561   21579   21594       7
   21540   21552   21534   21555       4   21534   21555   21573   21582       4
   21534   21555   21576   21588       4   21531   21516   21522   21540       9
   21531   21528   21549   21561       4   21528   21513   21525   21543       4
   21528   21549  -21561   21543       4   21528   21549   21561   21579       4
   21525   21513   21528   21531       4   21525   21513   21528   21549       4
   21525   21543  -21561   21549       4   21525   21543   21561   21579       4
   21522   21510   21519   21534       4   21522   21516   21531   21528      10
   21522   21540  -21552   21534       4   21519   21510   21522   21540       4
   21519   21534  -21552   21540       4   21519   21534   21555   21573       6
   21519   21534   21555   21576       6   21516   21507   21513   21525      11
   21516   21507  -21513   21528      11   21516   21522   21510   21519       4
   21516   21522   21540   21552       4   21516   21531   21528   21549      12
   21513   21507   21516   21522      13   21513   21507  -21516   21531      13
   21513   21525   21543   21561       4   21513   21528  -21531   21516      12
   21513   21528  -21549   21561       4   21510   21504   21507   21513      10
   21510   21504  -21507   21516      10   21510   21519   21534   21552       4
   21510   21519   21534   21555       4   21510   21522   21516   21531       9
   21510   21522  -21540   21552       4   21507   21504   21510   21519      14
   21507   21504  -21510   21522      14   21507   21513   21525   21543       4
   21507   21513  -21528   21531       4   21507   21513   21528   21549       4
   21507   21516  -21522   21510      15   21507   21516   21522   21540      15
   21507   21516  -21531   21528      10   21504   21507   21513   21525       9
   21504   21507   21513   21528       9   21504   21507  -21516   21522      13
   21504   21507   21516   21531      13   21504   21510   21519   21534       4
   21504   21510  -21522   21516       4   21504   21510   21522   21540       4
   21843   21858   21861   21873       3   21834   21843   21858   21861       3
   21825   21834   21843   21858       3   21816   21825   21834   21843       3
   21804   21816   21825   21834       3   21786   21804   21816   21825       3
   21771   21786   21804   21816       3   21768   21747   21765   21774       4
   21768   21780  -21795   21774       4   21765   21747   21768   21780       4
   21765   21774  -21795   21780       4   21753   21771   21786   21804       5
   21747   21765   21774   21795       4   21747   21768  -21780   21795       4
   21744   21726   21747   21765       6   21744   21726   21747   21768       6
   21741   21753   21771   21786       7   21735   21753   21771   21786       7
   21732   21744   21726   21747       4   21726   21747   21765   21774       4
   21726   21747   21768   21780       4   21723   21708   21714   21732       9
   21723   21720   21741   21753       4   21720   21705   21717   21735       4
   21720   21741  -21753   21735       4   21720   21741   21753   21771       4
   21717   21705   21720   21723       4   21717   21705   21720   21741       4
   21717   21735  -21753   21741       4   21717   21735   21753   21771       4
   21714   21702   21711   21726       4   21714   21708   21723   21720      10
   21714   21732  -21744   21726       4   21711   21702   21714   21732       4
   21711   21726  -21744   21732       4   21711   21726   21747   21765       6
   21711   21726   21747   21768       6   21708   21699   21705   21717      11
   21708   21699  -21705   21720      11   21708   21714   21702   21711       4
   21708   21714   21732   21744       4   21708   21723   21720   21741      12
   21705   21699   21708   21714      13   21705   21699  -21708   21723      13
   21705   21717   21735   21753       4   21705   21720  -21723   21708      12
   21705   21720  -21741   21753       4   21702   21696   21699   21705      10
   21702   21696  -21699   21708      10   21702   21711   21726   21744       4
   21702   21711   21726   21747       4   21702   21714   21708   21723       9
   21702   21714  -21732   21744       4   21699   21696   21702   21711      14
   21699   21696  -21702   21714      14   21699   21705   21717   21735       4
   21699   21705  -21720   21723       4   21699   21705   21720   21741       4
   21699   21708  -21714   21702      15   21699   21708   21714   21732      15
   21699   21708  -21723   21720      10   21696   21699   21705   21717       9
   21696   21699   21705   21720       9   21696   21699  -21708   21714      13
   21696   21699   21708   21723      13   21696   21702   21711   21726       4
   21696   21702  -21714   21708       4   21696   21702   21714   21732       4
   22035   22050   22053   22065       3   22026   22035   22050   22053       3
   22017   22026   22035   22050       3   22008   22017   22026   22035       3
   21996   22008   22017   22026       3   21978   21996   22008   22017       3
   21963   21978   21996   22008       3   21960   21939   21957   21966       4
   21960   21972  -21987   21966       4   21957   21939   21960   21972       4
   21957   21966  -21987   21972       4   21945   21963   21978   21996       5
   21939   21957   21966   21987       4   21939   21960  -21972   21987       4
   21936   21918   21939   21957       6   21936   21918   21939   21960       6
   21933   21945   21963   21978       7   21927   21945   21963   21978       7
   21924   21936   21918   21939       4   21918   21939   21957   21966       4
   21918   21939   21960   21972       4   21915   21900   21906   21924       9
   21915   21912   21933   21945       4   21912   21897   21909   21927       4
   21912   21933  -21945   21927       4   21912   21933   21945   21963       4
   21909   21897   21912   21915       4   21909   21897   21912   21933       4
   21909   21927  -21945   21933       4   21909   21927   21945   21963       4
   21906   21894   21903   21918       4   21906   21900   21915   21912      10
   21906   21924  -21936   21918       4   21903   21894   21906   21924       4
   21903   21918  -21936   21924       4   21903   21918   21939   21957       6
   21903   21918   21939   21960       6   21900   21891   21897   21909      11
   21900   21891  -21897   21912      11   21900   21906   21894   21903       4
   21900   21906   21924   21936       4   21900   21915   21912   21933      12
   21897   21891   21900   21906      13   21897   21891  -21900   21915      13
   21897   21909   21927   21945       4   21897   21912  -21915   21900      12
   21897   21912  -21933   21945       4   21894   21888   21891   21897      10
   21894   21888  -21891   21900      10   21894   21903   21918   21936       4
   21894   21903   21918   21939       4   21894   21906   21900   21915       9
   21894   21906  -21924   21936       4   21891   21888   21894   21903      14
   21891   21888  -21894   21906      14   21891   21897   21909   21927       4
   21891   21897  -21912   21915       4   21891   21897   21912   21933       4
   21891   21900  -21906   21894      15   21891   21900   21906   21924      15
   21891   21900  -21915   21912      10   21888   21891   21897   21909       9
   21888   21891   21897   21912       9   21888   21891  -21900   21906      13
   21888   21891   21900   21915      13   21888   21894   21903   21918       4
   21888   21894  -21906   21900       4   21888   21894   21906   21924       4
   22227   22242   22245   22257       3   22218   22227   22242   22245       3
   22209   22218   22227   22242       3   22200   22209   22218   22227       3
   22188   22200   22209   22218       3   22170   22188   22200   22209       3
   22155   22170   22188   22200       3   22152   22131   22149   22158       4
   22152   22164  -22179   22158       4   22149   22131   22152   22164       4
   22149   22158  -22179   22164       4   22137   22155   22170   22188       5
   22131   22149   22158   22179       4   22131   22152  -22164   22179       4
   22128   22110   22131   22149       6   22128   22110   22131   22152       6
   22125   22137   22155   22170       7   22119   22137   22155   22170       7
   22116   22128   22110   22131       4   22110   22131   22149   22158       4
   22110   22131   22152   22164       4   22107   22092   22098   22116       9
   22107   22104   22125   22137       4   22104   22089   22101   22119       4
   22104   22125  -22137   22119       4   22104   22125   22137   22155       4
   22101   22089   22104   22107       4   22101   22089   22104   22125       4
   22101   22119  -22137   22125       4   22101   22119   22137   22155       4
   22098   22086   22095   22110       4   22098   22092   22107   22104      10
   22098   22116  -22128   22110       4   22095   22086   22098   22116       4
   22095   22110  -22128   22116       4   22095   22110   22131   22149       6
   22095   22110   22131   22152       6   22092   22083   22089   22101      11
   22092   22083  -22089   22104      11   22092   22098   22086   22095       4
   22092   22098   22116   22128       4   22092   22107   22104   22125      12
   22089   22083   22092   22098      13   22089   22083  -22092   22107      13
   22089   22101   22119   22137       4   22089   22104  -22107   22092      12
   22089   22104  -22125   22137       4   22086   22080   22083   22089      10
   22086   22080  -22083   22092      10   22086   22095   22110   22128       4
   22086   22095   22110   22131       4   22086   22098   22092   22107       9
   22086   22098  -22116   22128       4   22083   22080   22086   22095      14
   22083   22080  -22086   22098      14   22083   22089   22101   22119       4
   22083   22089  -22104   22107       4   22083   22089   22104   22125       4
   22083   22092  -22098   22086      15   22083   22092   22098   22116      15
   22083   22092  -22107   22104      10   22080   22083   22089   22101       9
   22080   22083   22089   22104       9   22080   22083  -22092   22098      13
   22080   22083   22092   22107      13   22080   22086   22095   22110       4
   22080   22086  -22098   22092       4   22080   22086   22098   22116       4
   22419   22434   22437   22449       3   22410   22419   22434   22437       3
   22401   22410   22419   22434       3   22392   22401   22410   22419       3
   22380   22392   22401   22410       3   22362   22380   22392   22401       3
   22347   22362   22380   22392       3   22344   22323   22341   22350       4
   22344   22356  -22371   22350       4   22341   22323   22344   22356       4
   22341   22350  -22371   22356       4   22329   22347   22362   22380       5
   22323   22341   22350   22371       4   22323   22344  -22356   22371       4
   22320   22302   22323   22341       6   22320   22302   22323   22344       6
   22317   22329   22347   22362       7   22311   22329   22347   22362       7
   22308   22320   22302   22323       4   22302   22323   22341   22350       4
   22302   22323   22344   22356       4   22299   22284   22290   22308       9
   22299   22296   22317   22329       4   22296   22281   22293   22311       4
   22296   22317  -22329   22311       4   22296   22317   22329   22347       4
   22293   22281   22296   22299       4   22293   22281   22296   22317       4
   22293   22311  -22329   22317       4   22293   22311   22329   22347       4
   22290   22278   22287   22302       4   22290   22284   22299   22296      10
   22290   22308  -22320   22302       4   22287   22278   22290   22308       4
   22287   22302  -22320   22308       4   22287   22302   22323   22341       6
   22287   22302   22323   22344       6   22284   22275   22281   22293      11
   22284   22275  -22281   22296      11   22284   22290   22278   22287       4
   22284   22290   22308   22320       4   22284   22299   22296   22317      12
   22281   22275   22284   22290      13   22281   22275  -22284   22299      13
   22281   22293   22311   22329       4   22281   22296  -22299   22284      12
   22281   22296  -22317   22329       4   22278   22272   22275   22281      10
   22278   22272  -22275   22284      10   22278   22287   22302   22320       4
   22278   22287   22302   22323       4   22278   22290   22284   22299       9
   22278   22290  -22308   22320       4   22275   22272   22278   22287      14
   22275   22272  -22278   22290      14   22275   22281   22293   22311       4
   22275   22281  -22296   22299       4   22275   22281   22296   22317       4
   22275   22284  -22290   22278      15   22275   22284   22290   22308      15
   22275   22284  -22299   22296      10   22272   22275   22281   22293       9
   22272   22275   22281   22296       9   22272   22275  -22284   22290      13
   22272   22275   22284   22299      13   22272   22278   22287   22302       4
   22272   22278  -22290   22284       4   22272   22278   22290   22308       4
   22611   22626   22629   22641       3   22602   22611   22626   22629       3
   22593   22602   22611   22626       3   22584   22593   22602   22611       3
   22572   22584   22593   22602       3   22554   22572   22584   22593       3
   22539   22554   22572   22584       3   22536   22515   22533   22542       4
   22536   22548  -22563   22542       4   22533   22515   22536   22548       4
   22533   22542  -22563   22548       4   22521   22539   22554   22572       5
   22515   22533   22542   22563       4   22515   22536  -22548   22563       4
   22512   22494   22515   22533       6   22512   22494   22515   22536       6
   22509   22521   22539   22554       7   22503   22521   22539   22554       7
   22500   22512   22494   22515       4   22494   22515   22533   22542       4
   22494   22515   22536   22548       4   22491   22476   22482   22500       9
   22491   22488   22509   22521       4   22488   22473   22485   22503       4
   22488   22509  -22521   22503       4   22488   22509   22521   22539       4
   22485   22473   22488   22491       4   22485   22473   22488   22509       4
   22485   22503  -22521   22509       4   22485   22503   22521   22539       4
   22482   22470   22479   22494       4   22482   22476   22491   22488      10
   22482   22500  -22512   22494       4   22479   22470   22482   22500       4
   22479   22494  -22512   22500       4   22479   22494   22515   22533       6
   22479   22494   22515   22536       6   22476   22467   22473   22485      11
   22476   22467  -22473   22488      11   22476   22482   22470   22479       4
   22476   22482   22500   22512       4   22476   22491   22488   22509      12
   22473   22467   22476   22482      13   22473   22467  -22476   22491      13
   22473   22485   22503   22521       4   22473   22488  -22491   22476      12
   22473   22488  -22509   22521       4   22470   22464   22467   22473      10
   22470   22464  -22467   22476      10   22470   22479   22494   22512       4
   22470   22479   22494   22515       4   22470   22482   22476   22491       9
   22470   22482  -22500   22512       4   22467   22464   22470   22479      14
   22467   22464  -22470   22482      14   22467   22473   22485   22503       4
   22467   22473  -22488   22491       4   22467   22473   22488   22509       4
   22467   22476  -22482   22470      15   22467   22476   22482   22500      15
   22467   22476  -22491   22488      10   22464   22467   22473   22485       9
   22464   22467   22473   22488       9   22464   22467  -22476   22482      13
   22464   22467   22476   22491      13   22464   22470   22479   22494       4
   22464   22470  -22482   22476       4   22464   22470   22482   22500       4
   22803   22818   22821   22833       3   22794   22803   22818   22821       3
   22785   22794   22803   22818       3   22776   22785   22794   22803       3
   22764   22776   22785   22794       3   22746   22764   22776   22785       3
   22731   22746   22764   22776       3   22728   22707   22725   22734       4
   22728   22740  -22755   22734       4   22725   22707   22728   22740       4
   22725   22734  -22755   22740       4   22713   22731   22746   22764       5
   22707   22725   22734   22755       4   22707   22728  -22740   22755       4
   22704   22686   22707   22725       6   22704   22686   22707   22728       6
   22701   22713   22731   22746       7   22695   22713   22731   22746       7
   22692   22704   22686   22707       4   22686   22707   22725   22734       4
   22686   22707   22728   22740       4   22683   22668   22674   22692       9
   22683   22680   22701   22713       4   22680   22665   22677   22695       4
   22680   22701  -22713   22695       4   22680   22701   22713   22731       4
   22677   22665   22680   22683       4   22677   22665   22680   22701       4
   22677   22695  -22713   22701       4   22677   22695   22713   22731       4
   22674   22662   22671   22686       4   22674   22668   22683   22680      10
   22674   22692  -22704   22686       4   22671   22662   22674   22692       4
   22671   22686  -22704   22692       4   22671   22686   22707   22725       6
   22671   22686   22707   22728       6   22668   22659   22665   22677      11
   22668   22659  -22665   22680      11   22668   22674   22662   22671       4
   22668   22674   22692   22704       4   22668   22683   22680   22701      12
   22665   22659   22668   22674      13   22665   22659  -22668   22683      13
   22665   22677   22695   22713       4   22665   22680  -22683   22668      12
   22665   22680  -22701   22713       4   22662   22656   22659   22665      10
   22662   22656  -22659   22668      10   22662   22671   22686   22704       4
   22662   22671   22686   22707       4   22662   22674   22668   22683       9
   22662   22674  -22692   22704       4   22659   22656   22662   22671      14
   22659   22656  -22662   22674      14   22659   22665   22677   22695       4
   22659   22665  -22680   22683       4   22659   22665   22680   22701       4
   22659   22668  -22674   22662      15   22659   22668   22674   22692      15
   22659   22668  -22683   22680      10   22656   22659   22665   22677       9
   22656   22659   22665   22680       9   22656   22659  -22668   22674      13
   22656   22659   22668   22683      13   22656   22662   22671   22686       4
   22656   22662  -22674   22668       4   22656   22662   22674   22692       4
   22995   23010   23013   23025       3   22986   22995   23010   23013       3
   22977   22986   22995   23010       3   22968   22977   22986   22995       3
   22956   22968   22977   22986       3   22938   22956   22968   22977       3
   22923   22938   22956   22968       3   22920   22899   22917   22926       4
   22920   22932  -22947   22926       4   22917   22899   22920   22932       4
   22917   22926  -22947   22932       4   22905   22923   22938   22956       5
   22899   22917   22926   22947       4   22899   22920  -22932   22947       4
   22896   22878   22899   22917       6   22896   22878   22899   22920       6
   22893   22905   22923   22938       7   22887   22905   22923   22938       7
   22884   22896   22878   22899       4   22878   22899   22917   22926       4
   22878   22899   22920   22932       4   22875   22860   22866   22884       9
   22875   22872   22893   22905       4   22872   22857   22869   22887       4
   22872   22893  -22905   22887       4   22872   22893   22905   22923       4
   22869   22857   22872   22875       4   22869   22857   22872   22893       4
   22869   22887  -22905   22893       4   22869   22887   22905   22923       4
   22866   22854   22863   22878       4   22866   22860   22875   22872      10
   22866   22884  -22896   22878       4   22863   22854   22866   22884       4
   22863   22878  -22896   22884       4   22863   22878   22899   22917       6
   22863   22878   22899   22920       6   22860   22851   22857   22869      11
   22860   22851  -22857   22872      11   22860   22866   22854   22863       4
   22860   22866   22884   22896       4   22860   22875   22872   22893      12
   22857   22851   22860   22866      13   22857   22851  -22860   22875      13
   22857   22869   22887   22905       4   22857   22872  -22875   22860      12
   22857   22872  -22893   22905       4   22854   22848   22851   22857      10
   22854   22848  -22851   22860      10   22854   22863   22878   22896       4
   22854   22863   22878   22899       4   22854   22866   22860   22875       9
   22854   22866  -22884   22896       4   22851   22848   22854   22863      14
   22851   22848  -22854   22866      14   22851   22857   22869   22887       4
   22851   22857  -22872   22875       4   22851   22857   22872   22893       4
   22851   22860  -22866   22854      15   22851   22860   22866   22884      15
   22851   22860  -22875   22872      10   22848   22851   22857   22869       9
   22848   22851   22857   22872       9   22848   22851  -22860   22866      13
   22848   22851   22860   22875      13   22848   22854   22863   22878       4
   22848   22854  -22866   22860       4   22848   22854   22866   22884       4
   23187   23202   23205   23217       3   23178   23187   23202   23205       3
   23169   23178   23187   23202       3   23160   23169   23178   23187       3
   23148   23160   23169   23178       3   23130   23148   23160   23169       3
   23115   23130   23148   23160       3   23112   23091   23109   23118       4
   23112   23124  -23139   23118       4   23109   23091   23112   23124       4
   23109   23118  -23139   23124       4   23097   23115   23130   23148       5
   23091   23109   23118   23139       4   23091   23112  -23124   23139       4
   23088   23070   23091   23109       6   23088   23070   23091   23112       6
   23085   23097   23115   23130       7   23079   23097   23115   23130       7
   23076   23088   23070   23091       4   23070   23091   23109   23118       4
   23070   23091   23112   23124       4   23067   23052   23058   23076       9
   23067   23064   23085   23097       4   23064   23049   23061   23079       4
   23064   23085  -23097   23079       4   23064   23085   23097   23115       4
   23061   23049   23064   23067       4   23061   23049   23064   23085       4
   23061   23079  -23097   23085       4   23061   23079   23097   23115       4
   23058   23046   23055   23070       4   23058   23052   23067   23064      10
   23058   23076  -23088   23070       4   23055   23046   23058   23076       4
   23055   23070  -23088   23076       4   23055   23070   23091   23109       6
   23055   23070   23091   23112       6   23052   23043   23049   23061      11
   23052   23043  -23049   23064      11   23052   23058   23046   23055       4
   23052   23058   23076   23088       4   23052   23067   23064   23085      12
   23049   23043   23052   23058      13   23049   23043  -23052   23067      13
   23049   23061   23079   23097       4   23049   23064  -23067   23052      12
   23049   23064  -23085   23097       4   23046   23040   23043   23049      10
   23046   23040  -23043   23052      10   23046   23055   23070   23088       4
   23046   23055   23070   23091       4   23046   23058   23052   23067       9
   23046   23058  -23076   23088       4   23043   23040   23046   23055      14
   23043   23040  -23046   23058      14   23043   23049   23061   23079       4
   23043   23049  -23064   23067       4   23043   23049   23064   23085       4
   23043   23052  -23058   23046      15   23043   23052   23058   23076      15
   23043   23052  -23067   23064      10   23040   23043   23049   23061       9
   23040   23043   23049   23064       9   23040   23043  -23052   23058      13
   23040   23043   23052   23067      13   23040   23046   23055   23070       4
   23040   23046  -23058   23052       4   23040   23046   23058   23076       4
   23379   23394   23397   23409       3   23370   23379   23394   23397       3
   23361   23370   23379   23394       3   23352   23361   23370   23379       3
   23340   23352   23361   23370       3   23322   23340   23352   23361       3
   23307   23322   23340   23352       3   23304   23283   23301   23310       4
   23304   23316  -23331   23310       4   23301   23283   23304   23316       4
   23301   23310  -23331   23316       4   23289   23307   23322   23340       5
   23283   23301   23310   23331       4   23283   23304  -23316   23331       4
   23280   23262   23283   23301       6   23280   23262   23283   23304       6
   23277   23289   23307   23322       7   23271   23289   23307   23322       7
   23268   23280   23262   23283       4   23262   23283   23301   23310       4
   23262   23283   23304   23316       4   23259   23244   23250   23268       9
   23259   23256   23277   23289       4   23256   23241   23253   23271       4
   23256   23277  -23289   23271       4   23256   23277   23289   23307       4
   23253   23241   23256   23259       4   23253   23241   23256   23277       4
   23253   23271  -23289   23277       4   23253   23271   23289   23307       4
   23250   23238   23247   23262       4   23250   23244   23259   23256      10
   23250   23268  -23280   23262       4   23247   23238   23250   23268       4
   23247   23262  -23280   23268       4   23247   23262   23283   23301       6
   23247   23262   23283   23304       6   23244   23235   23241   23253      11
   23244   23235  -23241   23256      11   23244   23250   23238   23247       4
   23244   23250   23268   23280       4   23244   23259   23256   23277      12
   23241   23235   23244   23250      13   23241   23235  -23244   23259      13
   23241   23253   23271   23289       4   23241   23256  -23259   23244      12
   23241   23256  -23277   23289       4   23238   23232   23235   23241      10
   23238   23232  -23235   23244      10   23238   23247   23262   23280       4
   23238   23247   23262   23283       4   23238   23250   23244   23259       9
   23238   23250  -23268   23280       4   23235   23232   23238   23247      14
   23235   23232  -23238   23250      14   23235   23241   23253   23271       4
   23235   23241  -23256   23259       4   23235   23241   23256   23277       4
   23235   23244  -23250   23238      15   23235   23244   23250   23268      15
   23235   23244  -23259   23256      10   23232   23235   23241   23253       9
   23232   23235   23241   23256       9   23232   23235  -23244   23250      13
   23232   23235   23244   23259      13   23232   23238   23247   23262       4
   23232   23238  -23250   23244       4   23232   23238   23250   23268       4
   23571   23586   23589   23601       3   23562   23571   23586   23589       3
   23553   23562   23571   23586       3   23544   23553   23562   23571       3
   23532   23544   23553   23562       3   23514   23532   23544   23553       3
   23499   23514   23532   23544       3   23496   23475   23493   23502       4
   23496   23508  -23523   23502       4   23493   23475   23496   23508       4
   23493   23502  -23523   23508       4   23481   23499   23514   23532       5
   23475   23493   23502   23523       4   23475   23496  -23508   23523       4
   23472   23454   23475   23493       6   23472   23454   23475   23496       6
   23469   23481   23499   23514       7   23463   23481   23499   23514       7
   23460   23472   23454   23475       4   23454   23475   23493   23502       4
   23454   23475   23496   23508       4   23451   23436   23442   23460       9
   23451   23448   23469   23481       4   23448   23433   23445   23463       4
   23448   23469  -23481   23463       4   23448   23469   23481   23499       4
   23445   23433   23448   23451       4   23445   23433   23448   23469       4
   23445   23463  -23481   23469       4   23445   23463   23481   23499       4
   23442   23430   23439   23454       4   23442   23436   23451   23448      10
   23442   23460  -23472   23454       4   23439   23430   23442   23460       4
   23439   23454  -23472   23460       4   23439   23454   23475   23493       6
   23439   23454   23475   23496       6   23436   23427   23433   23445      11
   23436   23427  -23433   23448      11   23436   23442   23430   23439       4
   23436   23442   23460   23472       4   23436   23451   23448   23469      12
   23433   23427   23436   23442      13   23433   23427  -23436   23451      13
   23433   23445   23463   23481       4   23433   23448  -23451   23436      12
   23433   23448  -23469   23481       4   23430   23424   23427   23433      10
   23430   23424  -23427   23436      10   23430   23439   23454   23472       4
   23430   23439   23454   23475       4   23430   23442   23436   23451       9
   23430   23442  -23460   23472       4   23427   23424   23430   23439      14
   23427   23424  -23430   23442      14   23427   23433   23445   23463       4
   23427   23433  -23448   23451       4   23427   23433   23448   23469       4
   23427   23436  -23442   23430      15   23427   23436   23442   23460      15
   23427   23436  -23451   23448      10   23424   23427   23433   23445       9
   23424   23427   23433   23448       9   23424   23427  -23436   23442      13
   23424   23427   23436   23451      13   23424   23430   23439   23454       4
   23424   23430  -23442   23436       4   23424   23430   23442   23460       4
   23763   23778   23781   23793       3   23754   23763   23778   23781       3
   23745   23754   23763   23778       3   23736   23745   23754   23763       3
   23724   23736   23745   23754       3   23706   23724   23736   23745       3
   23691   23706   23724   23736       3   23688   23667   23685   23694       4
   23688   23700  -23715   23694       4   23685   23667   23688   23700       4
   23685   23694  -23715   23700       4   23673   23691   23706   23724       5
   23667   23685   23694   23715       4   23667   23688  -23700   23715       4
   23664   23646   23667   23685       6   23664   23646   23667   23688       6
   23661   23673   23691   23706       7   23655   23673   23691   23706       7
   23652   23664   23646   23667       4   23646   23667   23685   23694       4
   23646   23667   23688   23700       4   23643   23628   23634   23652       9
   23643   23640   23661   23673       4   23640   23625   23637   23655       4
   23640   23661  -23673   23655       4   23640   23661   23673   23691       4
   23637   23625   23640   23643       4   23637   23625   23640   23661       4
   23637   23655  -23673   23661       4   23637   23655   23673   23691       4
   23634   23622   23631   23646       4   23634   23628   23643   23640      10
   23634   23652  -23664   23646       4   23631   23622   23634   23652       4
   23631   23646  -23664   23652       4   23631   23646   23667   23685       6
   23631   23646   23667   23688       6   23628   23619   23625   23637      11
   23628   23619  -23625   23640      11   23628   23634   23622   23631       4
   23628   23634   23652   23664       4   23628   23643   23640   23661      12
   23625   23619   23628   23634      13   23625   23619  -23628   23643      13
   23625   23637   23655   23673       4   23625   23640  -23643   23628      12
   23625   23640  -23661   23673       4   23622   23616   23619   23625      10
   23622   23616  -23619   23628      10   23622   23631   23646   23664       4
   23622   23631   23646   23667       4   23622   23634   23628   23643       9
   23622   23634  -23652   23664       4   23619   23616   23622   23631      14
   23619   23616  -23622   23634      14   23619   23625   23637   23655       4
   23619   23625  -23640   23643       4   23619   23625   23640   23661       4
   23619   23628  -23634   23622      15   23619   23628   23634   23652      15
   23619   23628  -23643   23640      10   23616   23619   23625   23637       9
   23616   23619   23625   23640       9   23616   23619  -23628   23634      13
   23616   23619   23628   23643      13   23616   23622   23631   23646       4
   23616   23622  -23634   23628       4   23616   23622   23634   23652       4
   23955   23970   23973   23985       3   23946   23955   23970   23973       3
   23937   23946   23955   23970       3   23928   23937   23946   23955       3
   23916   23928   23937   23946       3   23898   23916   23928   23937       3
   23883   23898   23916   23928       3   23880   23859   23877   23886       4
   23880   23892  -23907   23886       4   23877   23859   23880   23892       4
   23877   23886  -23907   23892       4   23865   23883   23898   23916       5
   23859   23877   23886   23907       4   23859   23880  -23892   23907       4
   23856   23838   23859   23877       6   23856   23838   23859   23880       6
   23853   23865   23883   23898       7   23847   23865   23883   23898       7
   23844   23856   23838   23859       4   23838   23859   23877   23886       4
   23838   23859   23880   23892       4   23835   23820   23826   23844       9
   23835   23832   23853   23865       4   23832   23817   23829   23847       4
   23832   23853  -23865   23847       4   23832   23853   23865   23883       4
   23829   23817   23832   23835       4   23829   23817   23832   23853       4
   23829   23847  -23865   23853       4   23829   23847   23865   23883       4
   23826   23814   23823   23838       4   23826   23820   23835   23832      10
   23826   23844  -23856   23838       4   23823   23814   23826   23844       4
   23823   23838  -23856   23844       4   23823   23838   23859   23877       6
   23823   23838   23859   23880       6   23820   23811   23817   23829      11
   23820   23811  -23817   23832      11   23820   23826   23814   23823       4
   23820   23826   23844   23856       4   23820   23835   23832   23853      12
   23817   23811   23820   23826      13   23817   23811  -23820   23835      13
   23817   23829   23847   23865       4   23817   23832  -23835   23820      12
   23817   23832  -23853   23865       4   23814   23808   23811   23817      10
   23814   23808  -23811   23820      10   23814   23823   23838   23856       4
   23814   23823   23838   23859       4   23814   23826   23820   23835       9
   23814   23826  -23844   23856       4   23811   23808   23814   23823      14
   23811   23808  -23814   23826      14   23811   23817   23829   23847       4
   23811   23817  -23832   23835       4   23811   23817   23832   23853       4
   23811   23820  -23826   23814      15   23811   23820   23826   23844      15
   23811   23820  -23835   23832      10   23808   23811   23817   23829       9
   23808   23811   23817   23832       9   23808   23811  -23820   23826      13
   23808   23811   23820   23835      13   23808   23814   23823   23838       4
   23808   23814  -23826   23820       4   23808   23814   23826   23844       4
   24147   24162   24165   24177       3   24138   24147   24162   24165       3
   24129   24138   24147   24162       3   24120   24129   24138   24147       3
   24108   24120   24129   24138       3   24090   24108   24120   24129       3
   24075   24090   24108   24120       3   24072   24051   24069   24078       4
   24072   24084  -24099   24078       4   24069   24051   24072   24084       4
   24069   24078  -24099   24084       4   24057   24075   24090   24108       5
   24051   24069   24078   24099       4   24051   24072  -24084   24099       4
   24048   24030   24051   24069       6   24048   24030   24051   24072       6
   24045   24057   24075   24090       7   24039   24057   24075   24090       7
   24036   24048   24030   24051       4   24030   24051   24069   24078       4
   24030   24051   24072   24084       4   24027   24012   24018   24036       9
   24027   24024   24045   24057       4   24024   24009   24021   24039       4
   24024   24045  -24057   24039       4   24024   24045   24057   24075       4
   24021   24009   24024   24027       4   24021   24009   24024   24045       4
   24021   24039  -24057   24045       4   24021   24039   24057   24075       4
   24018   24006   24015   24030       4   24018   24012   24027   24024      10
   24018   24036  -24048   24030       4   24015   24006   24018   24036       4
   24015   24030  -24048   24036       4   24015   24030   24051   24069       6
   24015   24030   24051   24072       6   24012   24003   24009   24021      11
   24012   24003  -24009   24024      11   24012   24018   24006   24015       4
   24012   24018   24036   24048       4   24012   24027   24024   24045      12
   24009   24003   24012   24018      13   24009   24003  -24012   24027      13
   24009   24021   24039   24057       4   24009   24024  -24027   24012      12
   24009   24024  -24045   24057       4   24006   24000   24003   24009      10
   24006   24000  -24003   24012      10   24006   24015   24030   24048       4
   24006   24015   24030   24051       4   24006   24018   24012   24027       9
   24006   24018  -24036   24048       4   24003   24000   24006   24015      14
   24003   24000  -24006   24018      14   24003   24009   24021   24039       4
   24003   24009  -24024   24027       4   24003   24009   24024   24045       4
   24003   24012  -24018   24006      15   24003   24012   24018   24036      15
   24003   24012  -24027   24024      10   24000   24003   24009   24021       9
   24000   24003   24009   24024       9   24000   24003  -24012   24018      13
   24000   24003   24012   24027      13   24000   24006   24015   24030       4
   24000   24006  -24018   24012       4   24000   24006   24018   24036       4
   24339   24354   24357   24369       3   24330   24339   24354   24357       3
   24321   24330   24339   24354       3   24312   24321   24330   24339       3
   24300   24312   24321   24330       3   24282   24300   24312   24321       3
   24267   24282   24300   24312       3   24264   24243   24261   24270       4
   24264   24276  -24291   24270       4   24261   24243   24264   24276       4
   24261   24270  -24291   24276       4   24249   24267   24282   24300       5
   24243   24261   24270   24291       4   24243   24264  -24276   24291       4
   24240   24222   24243   24261       6   24240   24222   24243   24264       6
   24237   24249   24267   24282       7   24231   24249   24267   24282       7
   24228   24240   24222   24243       4   24222   24243   24261   24270       4
   24222   24243   24264   24276       4   24219   24204   24210   24228       9
   24219   24216   24237   24249       4   24216   24201   24213   24231       4
   24216   24237  -24249   24231       4   24216   24237   24249   24267       4
   24213   24201   24216   24219       4   24213   24201   24216   24237       4
   24213   24231  -24249   24237       4   24213   24231   24249   24267       4
   24210   24198   24207   24222       4   24210   24204   24219   24216      10
   24210   24228  -24240   24222       4   24207   24198   24210   24228       4
   24207   24222  -24240   24228       4   24207   24222   24243   24261       6
   24207   24222   24243   24264       6   24204   24195   24201   24213      11
   24204   24195  -24201   24216      11   24204   24210   24198   24207       4
   24204   24210   24228   24240       4   24204   24219   24216   24237      12
   24201   24195   24204   24210      13   24201   24195  -24204   24219      13
   24201   24213   24231   24249       4   24201   24216  -24219   24204      12
   24201   24216  -24237   24249       4   24198   24192   24195   24201      10
   24198   24192  -24195   24204      10   24198   24207   24222   24240       4
   24198   24207   24222   24243       4   24198   24210   24204   24219       9
   24198   24210  -24228   24240       4   24195   24192   24198   24207      14
   24195   24192  -24198   24210      14   24195   24201   24213   24231       4
   24195   24201  -24216   24219       4   24195   24201   24216   24237       4
   24195   24204  -24210   24198      15   24195   24204   24210   24228      15
   24195   24204  -24219   24216      10   24192   24195   24201   24213       9
   24192   24195   24201   24216       9   24192   24195  -24204   24210      13
   24192   24195   24204   24219      13   24192   24198   24207   24222       4
   24192   24198  -24210   24204       4   24192   24198   24210   24228       4
   24531   24546   24549   24561       3   24522   24531   24546   24549       3
   24513   24522   24531   24546       3   24504   24513   24522   24531       3
   24492   24504   24513   24522       3   24474   24492   24504   24513       3
   24459   24474   24492   24504       3   24456   24435   24453   24462       4
   24456   24468  -24483   24462       4   24453   24435   24456   24468       4
   24453   24462  -24483   24468       4   24441   24459   24474   24492       5
   24435   24453   24462   24483       4   24435   24456  -24468   24483       4
   24432   24414   24435   24453       6   24432   24414   24435   24456       6
   24429   24441   24459   24474       7   24423   24441   24459   24474       7
   24420   24432   24414   24435       4   24414   24435   24453   24462       4
   24414   24435   24456   24468       4   24411   24396   24402   24420       9
   24411   24408   24429   24441       4   24408   24393   24405   24423       4
   24408   24429  -24441   24423       4   24408   24429   24441   24459       4
   24405   24393   24408   24411       4   24405   24393   24408   24429       4
   24405   24423  -24441   24429       4   24405   24423   24441   24459       4
   24402   24390   24399   24414       4   24402   24396   24411   24408      10
   24402   24420  -24432   24414       4   24399   24390   24402   24420       4
   24399   24414  -24432   24420       4   24399   24414   24435   24453       6
   24399   24414   24435   24456       6   24396   24387   24393   24405      11
   24396   24387  -24393   24408      11   24396   24402   24390   24399       4
   24396   24402   24420   24432       4   24396   24411   24408   24429      12
   24393   24387   24396   24402      13   24393   24387  -24396   24411      13
   24393   24405   24423   24441       4   24393   24408  -24411   24396      12
   24393   24408  -24429   24441       4   24390   24384   24387   24393      10
   24390   24384  -24387   24396      10   24390   24399   24414   24432       4
   24390   24399   24414   24435       4   24390   24402   24396   24411       9
   24390   24402  -24420   24432       4   24387   24384   24390   24399      14
   24387   24384  -24390   24402      14   24387   24393   24405   24423       4
   24387   24393  -24408   24411       4   24387   24393   24408   24429       4
   24387   24396  -24402   24390      15   24387   24396   24402   24420      15
   24387   24396  -24411   24408      10   24384   24387   24393   24405       9
   24384   24387   24393   24408       9   24384   24387  -24396   24402      13
   24384   24387   24396   24411      13   24384   24390   24399   24414       4
   24384   24390  -24402   24396       4   24384   24390   24402   24420       4
   24723   24738   24741   24753       3   24714   24723   24738   24741       3
   24705   24714   24723   24738       3   24696   24705   24714   24723       3
   24684   24696   24705   24714       3   24666   24684   24696   24705       3
   24651   24666   24684   24696       3   24648   24627   24645   24654       4
   24648   24660  -24675   24654       4   24645   24627   24648   24660       4
   24645   24654  -24675   24660       4   24633   24651   24666   24684       5
   24627   24645   24654   24675       4   24627   24648  -24660   24675       4
   24624   24606   24627   24645       6   24624   24606   24627   24648       6
   24621   24633   24651   24666       7   24615   24633   24651   24666       7
   24612   24624   24606   24627       4   24606   24627   24645   24654       4
   24606   24627   24648   24660       4   24603   24588   24594   24612       9
   24603   24600   24621   24633       4   24600   24585   24597   24615       4
   24600   24621  -24633   24615       4   24600   24621   24633   24651       4
   24597   24585   24600   24603       4   24597   24585   24600   24621       4
   24597   24615  -24633   24621       4   24597   24615   24633   24651       4
   24594   24582   24591   24606       4   24594   24588   24603   24600      10
   24594   24612  -24624   24606       4   24591   24582   24594   24612       4
   24591   24606  -24624   24612       4   24591   24606   24627   24645       6
   24591   24606   24627   24648       6   24588   24579   24585   24597      11
   24588   24579  -24585   24600      11   24588   24594   24582   24591       4
   24588   24594   24612   24624       4   24588   24603   24600   24621      12
   24585   24579   24588   24594      13   24585   24579  -24588   24603      13
   24585   24597   24615   24633       4   24585   24600  -24603   24588      12
   24585   24600  -24621   24633       4   24582   24576   24579   24585      10
   24582   24576  -24579   24588      10   24582   24591   24606   24624       4
   24582   24591   24606   24627       4   24582   24594   24588   24603       9
   24582   24594  -24612   24624       4   24579   24576   24582   24591      14
   24579   24576  -24582   24594      14   24579   24585   24597   24615       4
   24579   24585  -24600   24603       4   24579   24585   24600   24621       4
   24579   24588  -24594   24582      15   24579   24588   24594   24612      15
   24579   24588  -24603   24600      10   24576   24579   24585   24597       9
   24576   24579   24585   24600       9   24576   24579  -24588   24594      13
   24576   24579   24588   24603      13   24576   24582   24591   24606       4
   24576   24582  -24594   24588       4   24576   24582   24594   24612       4
   24915   24930   24933   24945       3   24906   24915   24930   24933       3
   24897   24906   24915   24930       3   24888   24897   24906   24915       3
   24876   24888   24897   24906       3   24858   24876   24888   24897       3
   24843   24858   24876   24888       3   24840   24819   24837   24846       4
   24840   24852  -24867   24846       4   24837   24819   24840   24852       4
   24837   24846  -24867   24852       4   24825   24843   24858   24876       5
   24819   24837   24846   24867       4   24819   24840  -24852   24867       4
   24816   24798   24819   24837       6   24816   24798   24819   24840       6
   24813   24825   24843   24858       7   24807   24825   24843   24858       7
   24804   24816   24798   24819       4   24798   24819   24837   24846       4
   24798   24819   24840   24852       4   24795   24780   24786   24804       9
   24795   24792   24813   24825       4   24792   24777   24789   24807       4
   24792   24813  -24825   24807       4   24792   24813   24825   24843       4
   24789   24777   24792   24795       4   24789   24777   24792   24813       4
   24789   24807  -24825   24813       4   24789   24807   24825   24843       4
   24786   24774   24783   24798       4   24786   24780   24795   24792      10
   24786   24804  -24816   24798       4   24783   24774   24786   24804       4
   24783   24798  -24816   24804       4   24783   24798   24819   24837       6
   24783   24798   24819   24840       6   24780   24771   24777   24789      11
   24780   24771  -24777   24792      11   24780   24786   24774   24783       4
   24780   24786   24804   24816       4   24780   24795   24792   24813      12
   24777   24771   24780   24786      13   24777   24771  -24780   24795      13
   24777   24789   24807   24825       4   24777   24792  -24795   24780      12
   24777   24792  -24813   24825       4   24774   24768   24771   24777      10
   24774   24768  -24771   24780      10   24774   24783   24798   24816       4
   24774   24783   24798   24819       4   24774   24786   24780   24795       9
   24774   24786  -24804   24816       4   24771   24768   24774   24783      14
   24771   24768  -24774   24786      14   24771   24777   24789   24807       4
   24771   24777  -24792   24795       4   24771   24777   24792   24813       4
   24771   24780  -24786   24774      15   24771   24780   24786   24804      15
   24771   24780  -24795   24792      10   24768   24771   24777   24789       9
   24768   24771   24777   24792       9   24768   24771  -24780   24786      13
   24768   24771   24780   24795      13   24768   24774   24783   24798       4
   24768   24774  -24786   24780       4   24768   24774   24786   24804       4
   25107   25122   25125   25137       3   25098   25107   25122   25125       3
   25089   25098   25107   25122       3   25080   25089   25098   25107       3
   25068   25080   25089   25098       3   25050   25068   25080   25089       3
   25035   25050   25068   25080       3   25032   25011   25029   25038       4
   25032   25044  -25059   25038       4   25029   25011   25032   25044       4
   25029   25038  -25059   25044       4   25017   25035   25050   25068       5
   25011   25029   25038   25059       4   25011   25032  -25044   25059       4
   25008   24990   25011   25029       6   25008   24990   25011   25032       6
   25005   25017   25035   25050       7   24999   25017   25035   25050       7
   24996   25008   24990   25011       4   24990   25011   25029   25038       4
   24990   25011   25032   25044       4   24987   24972   24978   24996       9
   24987   24984   25005   25017       4   24984   24969   24981   24999       4
   24984   25005  -25017   24999       4   24984   25005   25017   25035       4
   24981   24969   24984   24987       4   24981   24969   24984   25005       4
   24981   24999  -25017   25005       4   24981   24999   25017   25035       4
   24978   24966   24975   24990       4   24978   24972   24987   24984      10
   24978   24996  -25008   24990       4   24975   24966   24978   24996       4
   24975   24990  -25008   24996       4   24975   24990   25011   25029       6
   24975   24990   25011   25032       6   24972   24963   24969   24981      11
   24972   24963  -24969   24984      11   24972   24978   24966   24975       4
   24972   24978   24996   25008       4   24972   24987   24984   25005      12
   24969   24963   24972   24978      13   24969   24963  -24972   24987      13
   24969   24981   24999   25017       4   24969   24984  -24987   24972      12
   24969   24984  -25005   25017       4   24966   24960   24963   24969      10
   24966   24960  -24963   24972      10   24966   24975   24990   25008       4
   24966   24975   24990   25011       4   24966   24978   24972   24987       9
   24966   24978  -24996   25008       4   24963   24960   24966   24975      14
   24963   24960  -24966   24978      14   24963   24969   24981   24999       4
   24963   24969  -24984   24987       4   24963   24969   24984   25005       4
   24963   24972  -24978   24966      15   24963   24972   24978   24996      15
   24963   24972  -24987   24984      10   24960   24963   24969   24981       9
   24960   24963   24969   24984       9   24960   24963  -24972   24978      13
   24960   24963   24972   24987      13   24960   24966   24975   24990       4
   24960   24966  -24978   24972       4   24960   24966   24978   24996       4
   25299   25314   25317   25329       3   25290   25299   25314   25317       3
   25281   25290   25299   25314       3   25272   25281   25290   25299       3
   25260   25272   25281   25290       3   25242   25260   25272   25281       3
   25227   25242   25260   25272       3   25224   25203   25221   25230       4
   25224   25236  -25251   25230       4   25221   25203   25224   25236       4
   25221   25230  -25251   25236       4   25209   25227   25242   25260       5
   25203   25221   25230   25251       4   25203   25224  -25236   25251       4
   25200   25182   25203   25221       6   25200   25182   25203   25224       6
   25197   25209   25227   25242       7   25191   25209   25227   25242       7
   25188   25200   25182   25203       4   25182   25203   25221   25230       4
   25182   25203   25224   25236       4   25179   25164   25170   25188       9
   25179   25176   25197   25209       4   25176   25161   25173   25191       4
   25176   25197  -25209   25191       4   25176   25197   25209   25227       4
   25173   25161   25176   25179       4   25173   25161   25176   25197       4
   25173   25191  -25209   25197       4   25173   25191   25209   25227       4
   25170   25158   25167   25182       4   25170   25164   25179   25176      10
   25170   25188  -25200   25182       4   25167   25158   25170   25188       4
   25167   25182  -25200   25188       4   25167   25182   25203   25221       6
   25167   25182   25203   25224       6   25164   25155   25161   25173      11
   25164   25155  -25161   25176      11   25164   25170   25158   25167       4
   25164   25170   25188   25200       4   25164   25179   25176   25197      12
   25161   25155   25164   25170      13   25161   25155  -25164   25179      13
   25161   25173   25191   25209       4   25161   25176  -25179   25164      12
   25161   25176  -25197   25209       4   25158   25152   25155   25161      10
   25158   25152  -25155   25164      10   25158   25167   25182   25200       4
   25158   25167   25182   25203       4   25158   25170   25164   25179       9
   25158   25170  -25188   25200       4   25155   25152   25158   25167      14
   25155   25152  -25158   25170      14   25155   25161   25173   25191       4
   25155   25161  -25176   25179       4   25155   25161   25176   25197       4
   25155   25164  -25170   25158      15   25155   25164   25170   25188      15
   25155   25164  -25179   25176      10   25152   25155   25161   25173       9
   25152   25155   25161   25176       9   25152   25155  -25164   25170      13
   25152   25155   25164   25179      13   25152   25158   25167   25182       4
   25152   25158  -25170   25164       4   25152   25158   25170   25188       4
   25491   25506   25509   25521       3   25482   25491   25506   25509       3
   25473   25482   25491   25506       3   25464   25473   25482   25491       3
   25452   25464   25473   25482       3   25434   25452   25464   25473       3
   25419   25434   25452   25464       3   25416   25395   25413   25422       4
   25416   25428  -25443   25422       4   25413   25395   25416   25428       4
   25413   25422  -25443   25428       4   25401   25419   25434   25452       5
   25395   25413   25422   25443       4   25395   25416  -25428   25443       4
   25392   25374   25395   25413       6   25392   25374   25395   25416       6
   25389   25401   25419   25434       7   25383   25401   25419   25434       7
   25380   25392   25374   25395       4   25374   25395   25413   25422       4
   25374   25395   25416   25428       4   25371   25356   25362   25380       9
   25371   25368   25389   25401       4   25368   25353   25365   25383       4
   25368   25389  -25401   25383       4   25368   25389   25401   25419       4
   25365   25353   25368   25371       4   25365   25353   25368   25389       4
   25365   25383  -25401   25389       4   25365   25383   25401   25419       4
   25362   25350   25359   25374       4   25362   25356   25371   25368      10
   25362   25380  -25392   25374       4   25359   25350   25362   25380       4
   25359   25374  -25392   25380       4   25359   25374   25395   25413       6
   25359   25374   25395   25416       6   25356   25347   25353   25365      11
   25356   25347  -25353   25368      11   25356   25362   25350   25359       4
   25356   25362   25380   25392       4   25356   25371   25368   25389      12
   25353   25347   25356   25362      13   25353   25347  -25356   25371      13
   25353   25365   25383   25401       4   25353   25368  -25371   25356      12
   25353   25368  -25389   25401       4   25350   25344   25347   25353      10
   25350   25344  -25347   25356      10   25350   25359   25374   25392       4
   25350   25359   25374   25395       4   25350   25362   25356   25371       9
   25350   25362  -25380   25392       4   25347   25344   25350   25359      14
   25347   25344  -25350   25362      14   25347   25353   25365   25383       4
   25347   25353  -25368   25371       4   25347   25353   25368   25389       4
   25347   25356  -25362   25350      15   25347   25356   25362   25380      15
   25347   25356  -25371   25368      10   25344   25347   25353   25365       9
   25344   25347   25353   25368       9   25344   25347  -25356   25362      13
   25344   25347   25356   25371      13   25344   25350   25359   25374       4
   25344   25350  -25362   25356       4   25344   25350   25362   25380       4
   25683   25698   25701   25713       3   25674   25683   25698   25701       3
   25665   25674   25683   25698       3   25656   25665   25674   25683       3
   25644   25656   25665   25674       3   25626   25644   25656   25665       3
   25611   25626   25644   25656       3   25608   25587   25605   25614       4
   25608   25620  -25635   25614       4   25605   25587   25608   25620       4
   25605   25614  -25635   25620       4   25593   25611   25626   25644       5
   25587   25605   25614   25635       4   25587   25608  -25620   25635       4
   25584   25566   25587   25605       6   25584   25566   25587   25608       6
   25581   25593   25611   25626       7   25575   25593   25611   25626       7
   25572   25584   25566   25587       4   25566   25587   25605   25614       4
   25566   25587   25608   25620       4   25563   25548   25554   25572       9
   25563   25560   25581   25593       4   25560   25545   25557   25575       4
   25560   25581  -25593   25575       4   25560   25581   25593   25611       4
   25557   25545   25560   25563       4   25557   25545   25560   25581       4
   25557   25575  -25593   25581       4   25557   25575   25593   25611       4
   25554   25542   25551   25566       4   25554   25548   25563   25560      10
   25554   25572  -25584   25566       4   25551   25542   25554   25572       4
   25551   25566  -25584   25572       4   25551   25566   25587   25605       6
   25551   25566   25587   25608       6   25548   25539   25545   25557      11
   25548   25539  -25545   25560      11   25548   25554   25542   25551       4
   25548   25554   25572   25584       4   25548   25563   25560   25581      12
   25545   25539   25548   25554      13   25545   25539  -25548   25563      13
   25545   25557   25575   25593       4   25545   25560  -25563   25548      12
   25545   25560  -25581   25593       4   25542   25536   25539   25545      10
   25542   25536  -25539   25548      10   25542   25551   25566   25584       4
   25542   25551   25566   25587       4   25542   25554   25548   25563       9
   25542   25554  -25572   25584       4   25539   25536   25542   25551      14
   25539   25536  -25542   25554      14   25539   25545   25557   25575       4
   25539   25545  -25560   25563       4   25539   25545   25560   25581       4
   25539   25548  -25554   25542      15   25539   25548   25554   25572      15
   25539   25548  -25563   25560      10   25536   25539   25545   25557       9
   25536   25539   25545   25560       9   25536   25539  -25548   25554      13
   25536   25539   25548   25563      13   25536   25542   25551   25566       4
   25536   25542  -25554   25548       4   25536   25542   25554   25572       4
   25875   25890   25893   25905       3   25866   25875   25890   25893       3
   25857   25866   25875   25890       3   25848   25857   25866   25875       3
   25836   25848   25857   25866       3   25818   25836   25848   25857       3
   25803   25818   25836   25848       3   25800   25779   25797   25806       4
   25800   25812  -25827   25806       4   25797   25779   25800   25812       4
   25797   25806  -25827   25812       4   25785   25803   25818   25836       5
   25779   25797   25806   25827       4   25779   25800  -25812   25827       4
   25776   25758   25779   25797       6   25776   25758   25779   25800       6
   25773   25785   25803   25818       7   25767   25785   25803   25818       7
   25764   25776   25758   25779       4   25758   25779   25797   25806       4
   25758   25779   25800   25812       4   25755   25740   25746   25764       9
   25755   25752   25773   25785       4   25752   25737   25749   25767       4
   25752   25773  -25785   25767       4   25752   25773   25785   25803       4
   25749   25737   25752   25755       4   25749   25737   25752   25773       4
   25749   25767  -25785   25773       4   25749   25767   25785   25803       4
   25746   25734   25743   25758       4   25746   25740   25755   25752      10
   25746   25764  -25776   25758       4   25743   25734   25746   25764       4
   25743   25758  -25776   25764       4   25743   25758   25779   25797       6
   25743   25758   25779   25800       6   25740   25731   25737   25749      11
   25740   25731  -25737   25752      11   25740   25746   25734   25743       4
   25740   25746   25764   25776       4   25740   25755   25752   25773      12
   25737   25731   25740   25746      13   25737   25731  -25740   25755      13
   25737   25749   25767   25785       4   25737   25752  -25755   25740      12
   25737   25752  -25773   25785       4   25734   25728   25731   25737      10
   25734   25728  -25731   25740      10   25734   25743   25758   25776       4
   25734   25743   25758   25779       4   25734   25746   25740   25755       9
   25734   25746  -25764   25776       4   25731   25728   25734   25743      14
   25731   25728  -25734   25746      14   25731   25737   25749   25767       4
   25731   25737  -25752   25755       4   25731   25737   25752   25773       4
   25731   25740  -25746   25734      15   25731   25740   25746   25764      15
   25731   25740  -25755   25752      10   25728   25731   25737   25749       9
   25728   25731   25737   25752       9   25728   25731  -25740   25746      13
   25728   25731   25740   25755      13   25728   25734   25743   25758       4
   25728   25734  -25746   25740       4   25728   25734   25746   25764       4
   26067   26082   26085   26097       3   26058   26067   26082   26085       3
   26049   26058   26067   26082       3   26040   26049   26058   26067       3
   26028   26040   26049   26058       3   26010   26028   26040   26049       3
   25995   26010   26028   26040       3   25992   25971   25989   25998       4
   25992   26004  -26019   25998       4   25989   25971   25992   26004       4
   25989   25998  -26019   26004       4   25977   25995   26010   26028       5
   25971   25989   25998   26019       4   25971   25992  -26004   26019       4
   25968   25950   25971   25989       6   25968   25950   25971   25992       6
   25965   25977   25995   26010       7   25959   25977   25995   26010       7
   25956   25968   25950   25971       4   25950   25971   25989   25998       4
   25950   25971   25992   26004       4   25947   25932   25938   25956       9
   25947   25944   25965   25977       4   25944   25929   25941   25959       4
   25944   25965  -25977   25959       4   25944   25965   25977   25995       4
   25941   25929   25944   25947       4   25941   25929   25944   25965       4
   25941   25959  -25977   25965       4   25941   25959   25977   25995       4
   25938   25926   25935   25950       4   25938   25932   25947   25944      10
   25938   25956  -25968   25950       4   25935   25926   25938   25956       4
   25935   25950  -25968   25956       4   25935   25950   25971   25989       6
   25935   25950   25971   25992       6   25932   25923   25929   25941      11
   25932   25923  -25929   25944      11   25932   25938   25926   25935       4
   25932   25938   25956   25968       4   25932   25947   25944   25965      12
   25929   25923   25932   25938      13   25929   25923  -25932   25947      13
   25929   25941   25959   25977       4   25929   25944  -25947   25932      12
   25929   25944  -25965   25977       4   25926   25920   25923   25929      10
   25926   25920  -25923   25932      10   25926   25935   25950   25968       4
   25926   25935   25950   25971       4   25926   25938   25932   25947       9
   25926   25938  -25956   25968       4   25923   25920   25926   25935      14
   25923   25920  -25926   25938      14   25923   25929   25941   25959       4
   25923   25929  -25944   25947       4   25923   25929   25944   25965       4
   25923   25932  -25938   25926      15   25923   25932   25938   25956      15
   25923   25932  -25947   25944      10   25920   25923   25929   25941       9
   25920   25923   25929   25944       9   25920   25923  -25932   25938      13
   25920   25923   25932   25947      13   25920   25926   25935   25950       4
   25920   25926  -25938   25932       4   25920   25926   25938   25956       4
   26259   26274   26277   26289       3   26250   26259   26274   26277       3
   26241   26250   26259   26274       3   26232   26241   26250   26259       3
   26220   26232   26241   26250       3   26202   26220   26232   26241       3
   26187   26202   26220   26232       3   26184   26163   26181   26190       4
   26184   26196  -26211   26190       4   26181   26163   26184   26196       4
   26181   26190  -26211   26196       4   26169   26187   26202   26220       5
   26163   26181   26190   26211       4   26163   26184  -26196   26211       4
   26160   26142   26163   26181       6   26160   26142   26163   26184       6
   26157   26169   26187   26202       7   26151   26169   26187   26202       7
   26148   26160   26142   26163       4   26142   26163   26181   26190       4
   26142   26163   26184   26196       4   26139   26124   26130   26148       9
   26139   26136   26157   26169       4   26136   26121   26133   26151       4
   26136   26157  -26169   26151       4   26136   26157   26169   26187       4
   26133   26121   26136   26139       4   26133   26121   26136   26157       4
   26133   26151  -26169   26157       4   26133   26151   26169   26187       4
   26130   26118   26127   26142       4   26130   26124   26139   26136      10
   26130   26148  -26160   26142       4   26127   26118   26130   26148       4
   26127   26142  -26160   26148       4   26127   26142   26163   26181       6
   26127   26142   26163   26184       6   26124   26115   26121   26133      11
   26124   26115  -26121   26136      11   26124   26130   26118   26127       4
   26124   26130   26148   26160       4   26124   26139   26136   26157      12
   26121   26115   26124   26130      13   26121   26115  -26124   26139      13
   26121   26133   26151   26169       4   26121   26136  -26139   26124      12
   26121   26136  -26157   26169       4   26118   26112   26115   26121      10
   26118   26112  -26115   26124      10   26118   26127   26142   26160       4
   26118   26127   26142   26163       4   26118   26130   26124   26139       9
   26118   26130  -26148   26160       4   26115   26112   26118   26127      14
   26115   26112  -26118   26130      14   26115   26121   26133   26151       4
   26115   26121  -26136   26139       4   26115   26121   26136   26157       4
   26115   26124  -26130   26118      15   26115   26124   26130   26148      15
   26115   26124  -26139   26136      10   26112   26115   26121   26133       9
   26112   26115   26121   26136       9   26112   26115  -26124   26130      13
   26112   26115   26124   26139      13   26112   26118   26127   26142       4
   26112   26118  -26130   26124       4   26112   26118   26130   26148       4
   26451   26466   26469   26481       3   26442   26451   26466   26469       3
   26433   26442   26451   26466       3   26424   26433   26442   26451       3
   26412   26424   26433   26442       3   26394   26412   26424   26433       3
   26379   26394   26412   26424       3   26376   26355   26373   26382       4
   26376   26388  -26403   26382       4   26373   26355   26376   26388       4
   26373   26382  -26403   26388       4   26361   26379   26394   26412       5
   26355   26373   26382   26403       4   26355   26376  -26388   26403       4
   26352   26334   26355   26373       6   26352   26334   26355   26376       6
   26349   26361   26379   26394       7   26343   26361   26379   26394       7
   26340   26352   26334   26355       4   26334   26355   26373   26382       4
   26334   26355   26376   26388       4   26331   26316   26322   26340       9
   26331   26328   26349   26361       4   26328   26313   26325   26343       4
   26328   26349  -26361   26343       4   26328   26349   26361   26379       4
   26325   26313   26328   26331       4   26325   26313   26328   26349       4
   26325   26343  -26361   26349       4   26325   26343   26361   26379       4
   26322   26310   26319   26334       4   26322   26316   26331   26328      10
   26322   26340  -26352   26334       4   26319   26310   26322   26340       4
   26319   26334  -26352   26340       4   26319   26334   26355   26373       6
   26319   26334   26355   26376       6   26316   26307   26313   26325      11
   26316   26307  -26313   26328      11   26316   26322   26310   26319       4
   26316   26322   26340   26352       4   26316   26331   26328   26349      12
   26313   26307   26316   26322      13   26313   26307  -26316   26331      13
   26313   26325   26343   26361       4   26313   26328  -26331   26316      12
   26313   26328  -26349   26361       4   26310   26304   26307   26313      10
   26310   26304  -26307   26316      10   26310   26319   26334   26352       4
   26310   26319   26334   26355       4   26310   26322   26316   26331       9
   26310   26322  -26340   26352       4   26307   26304   26310   26319      14
   26307   26304  -26310   26322      14   26307   26313   26325   26343       4
   26307   26313  -26328   26331       4   26307   26313   26328   26349       4
   26307   26316  -26322   26310      15   26307   26316   26322   26340      15
   26307   26316  -26331   26328      10   26304   26307   26313   26325       9
   26304   26307   26313   26328       9   26304   26307  -26316   26322      13
   26304   26307   26316   26331      13   26304   26310   26319   26334       4
   26304   26310  -26322   26316       4   26304   26310   26322   26340       4
   26643   26658   26661   26673       3   26634   26643   26658   26661       3
   26625   26634   26643   26658       3   26616   26625   26634   26643       3
   26604   26616   26625   26634       3   26586   26604   26616   26625       3
   26571   26586   26604   26616       3   26568   26547   26565   26574       4
   26568   26580  -26595   26574       4   26565   26547   26568   26580       4
   26565   26574  -26595   26580       4   26553   26571   26586   26604       5
   26547   26565   26574   26595       4   26547   26568  -26580   26595       4
   26544   26526   26547   26565       6   26544   26526   26547   26568       6
   26541   26553   26571   26586       7   26535   26553   26571   26586       7
   26532   26544   26526   26547       4   26526   26547   26565   26574       4
   26526   26547   26568   26580       4   26523   26508   26514   26532       9
   26523   26520   26541   26553       4   26520   26505   26517   26535       4
   26520   26541  -26553   26535       4   26520   26541   26553   26571       4
   26517   26505   26520   26523       4   26517   26505   26520   26541       4
   26517   26535  -26553   26541       4   26517   26535   26553   26571       4
   26514   26502   26511   26526       4   26514   26508   26523   26520      10
   26514   26532  -26544   26526       4   26511   26502   26514   26532       4
   26511   26526  -26544   26532       4   26511   26526   26547   26565       6
   26511   26526   26547   26568       6   26508   26499   26505   26517      11
   26508   26499  -26505   26520      11   26508   26514   26502   26511       4
   26508   26514   26532   26544       4   26508   26523   26520   26541      12
   26505   26499   26508   26514      13   26505   26499  -26508   26523      13
   26505   26517   26535   26553       4   26505   26520  -26523   26508      12
   26505   26520  -26541   26553       4   26502   26496   26499   26505      10
   26502   26496  -26499   26508      10   26502   26511   26526   26544       4
   26502   26511   26526   26547       4   26502   26514   26508   26523       9
   26502   26514  -26532   26544       4   26499   26496   26502   26511      14
   26499   26496  -26502   26514      14   26499   26505   26517   26535       4
   26499   26505  -26520   26523       4   26499   26505   26520   26541       4
   26499   26508  -26514   26502      15   26499   26508   26514   26532      15
   26499   26508  -26523   26520      10   26496   26499   26505   26517       9
   26496   26499   26505   26520       9   26496   26499  -26508   26514      13
   26496   26499   26508   26523      13   26496   26502   26511   26526       4
   26496   26502  -26514   26508       4   26496   26502   26514   26532       4
   26835   26850   26853   26865       3   26826   26835   26850   26853       3
   26817   26826   26835   26850       3   26808   26817   26826   26835       3
   26796   26808   26817   26826       3   26778   26796   26808   26817       3
   26763   26778   26796   26808       3   26760   26739   26757   26766       4
   26760   26772  -26787   26766       4   26757   26739   26760   26772       4
   26757   26766  -26787   26772       4   26745   26763   26778   26796       5
   26739   26757   26766   26787       4   26739   26760  -26772   26787       4
   26736   26718   26739   26757       6   26736   26718   26739   26760       6
   26733   26745   26763   26778       7   26727   26745   26763   26778       7
   26724   26736   26718   26739       4   26718   26739   26757   26766       4
   26718   26739   26760   26772       4   26715   26700   26706   26724       9
   26715   26712   26733   26745       4   26712   26697   26709   26727       4
   26712   26733  -26745   26727       4   26712   26733   26745   26763       4
   26709   26697   26712   26715       4   26709   26697   26712   26733       4
   26709   26727  -26745   26733       4   26709   26727   26745   26763       4
   26706   26694   26703   26718       4   26706   26700   26715   26712      10
   26706   26724  -26736   26718       4   26703   26694   26706   26724       4
   26703   26718  -26736   26724       4   26703   26718   26739   26757       6
   26703   26718   26739   26760       6   26700   26691   26697   26709      11
   26700   26691  -26697   26712      11   26700   26706   26694   26703       4
   26700   26706   26724   26736       4   26700   26715   26712   26733      12
   26697   26691   26700   26706      13   26697   26691  -26700   26715      13
   26697   26709   26727   26745       4   26697   26712  -26715   26700      12
   26697   26712  -26733   26745       4   26694   26688   26691   26697      10
   26694   26688  -26691   26700      10   26694   26703   26718   26736       4
   26694   26703   26718   26739       4   26694   26706   26700   26715       9
   26694   26706  -26724   26736       4   26691   26688   26694   26703      14
   26691   26688  -26694   26706      14   26691   26697   26709   26727       4
   26691   26697  -26712   26715       4   26691   26697   26712   26733       4
   26691   26700  -26706   26694      15   26691   26700   26706   26724      15
   26691   26700  -26715   26712      10   26688   26691   26697   26709       9
   26688   26691   26697   26712       9   26688   26691  -26700   26706      13
   26688   26691   26700   26715      13   26688   26694   26703   26718       4
   26688   26694  -26706   26700       4   26688   26694   26706   26724       4
   27027   27042   27045   27057       3   27018   27027   27042   27045       3
   27009   27018   27027   27042       3   27000   27009   27018   27027       3
   26988   27000   27009   27018       3   26970   26988   27000   27009       3
   26955   26970   26988   27000       3   26952   26931   26949   26958       4
   26952   26964  -26979   26958       4   26949   26931   26952   26964       4
   26949   26958  -26979   26964       4   26937   26955   26970   26988       5
   26931   26949   26958   26979       4   26931   26952  -26964   26979       4
   26928   26910   26931   26949       6   26928   26910   26931   26952       6
   26925   26937   26955   26970       7   26919   26937   26955   26970       7
   26916   26928   26910   26931       4   26910   26931   26949   26958       4
   26910   26931   26952   26964       4   26907   26892   26898   26916       9
   26907   26904   26925   26937       4   26904   26889   26901   26919       4
   26904   26925  -26937   26919       4   26904   26925   26937   26955       4
   26901   26889   26904   26907       4   26901   26889   26904   26925       4
   26901   26919  -26937   26925       4   26901   26919   26937   26955       4
   26898   26886   26895   26910       4   26898   26892   26907   26904      10
   26898   26916  -26928   26910       4   26895   26886   26898   26916       4
   26895   26910  -26928   26916       4   26895   26910   26931   26949       6
   26895   26910   26931   26952       6   26892   26883   26889   26901      11
   26892   26883  -26889   26904      11   26892   26898   26886   26895       4
   26892   26898   26916   26928       4   26892   26907   26904   26925      12
   26889   26883   26892   26898      13   26889   26883  -26892   26907      13
   26889   26901   26919   26937       4   26889   26904  -26907   26892      12
   26889   26904  -26925   26937       4   26886   26880   26883   26889      10
   26886   26880  -26883   26892      10   26886   26895   26910   26928       4
   26886   26895   26910   26931       4   26886   26898   26892   26907       9
   26886   26898  -26916   26928       4   26883   26880   26886   26895      14
   26883   26880  -26886   26898      14   26883   26889   26901   26919       4
   26883   26889  -26904   26907       4   26883   26889   26904   26925       4
   26883   26892  -26898   26886      15   26883   26892   26898   26916      15
   26883   26892  -26907   26904      10   26880   26883   26889   26901       9
   26880   26883   26889   26904       9   26880   26883  -26892   26898      13
   26880   26883   26892   26907      13   26880   26886   26895   26910       4
   26880   26886  -26898   26892       4   26880   26886   26898   26916       4
   27219   27234   27237   27249       3   27210   27219   27234   27237       3
   27201   27210   27219   27234       3   27192   27201   27210   27219       3
   27180   27192   27201   27210       3   27162   27180   27192   27201       3
   27147   27162   27180   27192       3   27144   27123   27141   27150       4
   27144   27156  -27171   27150       4   27141   27123   27144   27156       4
   27141   27150  -27171   27156       4   27129   27147   27162   27180       5
   27123   27141   27150   27171       4   27123   27144  -27156   27171       4
   27120   27102   27123   27141       6   27120   27102   27123   27144       6
   27117   27129   27147   27162       7   27111   27129   27147   27162       7
   27108   27120   27102   27123       4   27102   27123   27141   27150       4
   27102   27123   27144   27156       4   27099   27084   27090   27108       9
   27099   27096   27117   27129       4   27096   27081   27093   27111       4
   27096   27117  -27129   27111       4   27096   27117   27129   27147       4
   27093   27081   27096   27099       4   27093   27081   27096   27117       4
   27093   27111  -27129   27117       4   27093   27111   27129   27147       4
   27090   27078   27087   27102       4   27090   27084   27099   27096      10
   27090   27108  -27120   27102       4   27087   27078   27090   27108       4
   27087   27102  -27120   27108       4   27087   27102   27123   27141       6
   27087   27102   27123   27144       6   27084   27075   27081   27093      11
   27084   27075  -27081   27096      11   27084   27090   27078   27087       4
   27084   27090   27108   27120       4   27084   27099   27096   27117      12
   27081   27075   27084   27090      13   27081   27075  -27084   27099      13
   27081   27093   27111   27129       4   27081   27096  -27099   27084      12
   27081   27096  -27117   27129       4   27078   27072   27075   27081      10
   27078   27072  -27075   27084      10   27078   27087   27102   27120       4
   27078   27087   27102   27123       4   27078   27090   27084   27099       9
   27078   27090  -27108   27120       4   27075   27072   27078   27087      14
   27075   27072  -27078   27090      14   27075   27081   27093   27111       4
   27075   27081  -27096   27099       4   27075   27081   27096   27117       4
   27075   27084  -27090   27078      15   27075   27084   27090   27108      15
   27075   27084  -27099   27096      10   27072   27075   27081   27093       9
   27072   27075   27081   27096       9   27072   27075  -27084   27090      13
   27072   27075   27084   27099      13   27072   27078   27087   27102       4
   27072   27078  -27090   27084       4   27072   27078   27090   27108       4
   27411   27426   27429   27441       3   27402   27411   27426   27429       3
   27393   27402   27411   27426       3   27384   27393   27402   27411       3
   27372   27384   27393   27402       3   27354   27372   27384   27393       3
   27339   27354   27372   27384       3   27336   27315   27333   27342       4
   27336   27348  -27363   27342       4   27333   27315   27336   27348       4
   27333   27342  -27363   27348       4   27321   27339   27354   27372       5
   27315   27333   27342   27363       4   27315   27336  -27348   27363       4
   27312   27294   27315   27333       6   27312   27294   27315   27336       6
   27309   27321   27339   27354       7   27303   27321   27339   27354       7
   27300   27312   27294   27315       4   27294   27315   27333   27342       4
   27294   27315   27336   27348       4   27291   27276   27282   27300       9
   27291   27288   27309   27321       4   27288   27273   27285   27303       4
   27288   27309  -27321   27303       4   27288   27309   27321   27339       4
   27285   27273   27288   27291       4   27285   27273   27288   27309       4
   27285   27303  -27321   27309       4   27285   27303   27321   27339       4
   27282   27270   27279   27294       4   27282   27276   27291   27288      10
   27282   27300  -27312   27294       4   27279   27270   27282   27300       4
   27279   27294  -27312   27300       4   27279   27294   27315   27333       6
   27279   27294   27315   27336       6   27276   27267   27273   27285      11
   27276   27267  -27273   27288      11   27276   27282   27270   27279       4
   27276   27282   27300   27312       4   27276   27291   27288   27309      12
   27273   27267   27276   27282      13   27273   27267  -27276   27291      13
   27273   27285   27303   27321       4   27273   27288  -27291   27276      12
   27273   27288  -27309   27321       4   27270   27264   27267   27273      10
   27270   27264  -27267   27276      10   27270   27279   27294   27312       4
   27270   27279   27294   27315       4   27270   27282   27276   27291       9
   27270   27282  -27300   27312       4   27267   27264   27270   27279      14
   27267   27264  -27270   27282      14   27267   27273   27285   27303       4
   27267   27273  -27288   27291       4   27267   27273   27288   27309       4
   27267   27276  -27282   27270      15   27267   27276   27282   27300      15
   27267   27276  -27291   27288      10   27264   27267   27273   27285       9
   27264   27267   27273   27288       9   27264   27267  -27276   27282      13
   27264   27267   27276   27291      13   27264   27270   27279   27294       4
   27264   27270  -27282   27276       4   27264   27270   27282   27300       4
   27603   27618   27621   27633       3   27594   27603   27618   27621       3
   27585   27594   27603   27618       3   27576   27585   27594   27603       3
   27564   27576   27585   27594       3   27546   27564   27576   27585       3
   27531   27546   27564   27576       3   27528   27507   27525   27534       4
   27528   27540  -27555   27534       4   27525   27507   27528   27540       4
   27525   27534  -27555   27540       4   27513   27531   27546   27564       5
   27507   27525   27534   27555       4   27507   27528  -27540   27555       4
   27504   27486   27507   27525       6   27504   27486   27507   27528       6
   27501   27513   27531   27546       7   27495   27513   27531   27546       7
   27492   27504   27486   27507       4   27486   27507   27525   27534       4
   27486   27507   27528   27540       4   27483   27468   27474   27492       9
   27483   27480   27501   27513       4   27480   27465   27477   27495       4
   27480   27501  -27513   27495       4   27480   27501   27513   27531       4
   27477   27465   27480   27483       4   27477   27465   27480   27501       4
   27477   27495  -27513   27501       4   27477   27495   27513   27531       4
   27474   27462   27471   27486       4   27474   27468   27483   27480      10
   27474   27492  -27504   27486       4   27471   27462   27474   27492       4
   27471   27486  -27504   27492       4   27471   27486   27507   27525       6
   27471   27486   27507   27528       6   27468   27459   27465   27477      11
   27468   27459  -27465   27480      11   27468   27474   27462   27471       4
   27468   27474   27492   27504       4   27468   27483   27480   27501      12
   27465   27459   27468   27474      13   27465   27459  -27468   27483      13
   27465   27477   27495   27513       4   27465   27480  -27483   27468      12
   27465   27480  -27501   27513       4   27462   27456   27459   27465      10
   27462   27456  -27459   27468      10   27462   27471   27486   27504       4
   27462   27471   27486   27507       4   27462   27474   27468   27483       9
   27462   27474  -27492   27504       4   27459   27456   27462   27471      14
   27459   27456  -27462   27474      14   27459   27465   27477   27495       4
   27459   27465  -27480   27483       4   27459   27465   27480   27501       4
   27459   27468  -27474   27462      15   27459   27468   27474   27492      15
   27459   27468  -27483   27480      10   27456   27459   27465   27477       9
   27456   27459   27465   27480       9   27456   27459  -27468   27474      13
   27456   27459   27468   27483      13   27456   27462   27471   27486       4
   27456   27462  -27474   27468       4   27456   27462   27474   27492       4
   27795   27810   27813   27825       3   27786   27795   27810   27813       3
   27777   27786   27795   27810       3   27768   27777   27786   27795       3
   27756   27768   27777   27786       3   27738   27756   27768   27777       3
   27723   27738   27756   27768       3   27720   27699   27717   27726       4
   27720   27732  -27747   27726       4   27717   27699   27720   27732       4
   27717   27726  -27747   27732       4   27705   27723   27738   27756       5
   27699   27717   27726   27747       4   27699   27720  -27732   27747       4
   27696   27678   27699   27717       6   27696   27678   27699   27720       6
   27693   27705   27723   27738       7   27687   27705   27723   27738       7
   27684   27696   27678   27699       4   27678   27699   27717   27726       4
   27678   27699   27720   27732       4   27675   27660   27666   27684       9
   27675   27672   27693   27705       4   27672   27657   27669   27687       4
   27672   27693  -27705   27687       4   27672   27693   27705   27723       4
   27669   27657   27672   27675       4   27669   27657   27672   27693       4
   27669   27687  -27705   27693       4   27669   27687   27705   27723       4
   27666   27654   27663   27678       4   27666   27660   27675   27672      10
   27666   27684  -27696   27678       4   27663   27654   27666   27684       4
   27663   27678  -27696   27684       4   27663   27678   27699   27717       6
   27663   27678   27699   27720       6   27660   27651   27657   27669      11
   27660   27651  -27657   27672      11   27660   27666   27654   27663       4
   27660   27666   27684   27696       4   27660   27675   27672   27693      12
   27657   27651   27660   27666      13   27657   27651  -27660   27675      13
   27657   27669   27687   27705       4   27657   27672  -27675   27660      12
   27657   27672  -27693   27705       4   27654   27648   27651   27657      10
   27654   27648  -27651   27660      10   27654   27663   27678   27696       4
   27654   27663   27678   27699       4   27654   27666   27660   27675       9
   27654   27666  -27684   27696       4   27651   27648   27654   27663      14
   27651   27648  -27654   27666      14   27651   27657   27669   27687       4
   27651   27657  -27672   27675       4   27651   27657   27672   27693       4
   27651   27660  -27666   27654      15   27651   27660   27666   27684      15
   27651   27660  -27675   27672      10   27648   27651   27657   27669       9
   27648   27651   27657   27672       9   27648   27651  -27660   27666      13
   27648   27651   27660   27675      13   27648   27654   27663   27678       4
   27648   27654  -27666   27660       4   27648   27654   27666   27684       4
   27987   28002   28005   28017       3   27978   27987   28002   28005       3
   27969   27978   27987   28002       3   27960   27969   27978   27987       3
   27948   27960   27969   27978       3   27930   27948   27960   27969       3
   27915   27930   27948   27960       3   27912   27891   27909   27918       4
   27912   27924  -27939   27918       4   27909   27891   27912   27924       4
   27909   27918  -27939   27924       4   27897   27915   27930   27948       5
   27891   27909   27918   27939       4   27891   27912  -27924   27939       4
   27888   27870   27891   27909       6   27888   27870   27891   27912       6
   27885   27897   27915   27930       7   27879   27897   27915   27930       7
   27876   27888   27870   27891       4   27870   27891   27909   27918       4
   27870   27891   27912   27924       4   27867   27852   27858   27876       9
   27867   27864   27885   27897       4   27864   27849   27861   27879       4
   27864   27885  -27897   27879       4   27864   27885   27897   27915       4
   27861   27849   27864   27867       4   27861   27849   27864   27885       4
   27861   27879  -27897   27885       4   27861   27879   27897   27915       4
   27858   27846   27855   27870       4   27858   27852   27867   27864      10
   27858   27876  -27888   27870       4   27855   27846   27858   27876       4
   27855   27870  -27888   27876       4   27855   27870   27891   27909       6
   27855   27870   27891   27912       6   27852   27843   27849   27861      11
   27852   27843  -27849   27864      11   27852   27858   27846   27855       4
   27852   27858   27876   27888       4   27852   27867   27864   27885      12
   27849   27843   27852   27858      13   27849   27843  -27852   27867      13
   27849   27861   27879   27897       4   27849   27864  -27867   27852      12
   27849   27864  -27885   27897       4   27846   27840   27843   27849      10
   27846   27840  -27843   27852      10   27846   27855   27870   27888       4
   27846   27855   27870   27891       4   27846   27858   27852   27867       9
   27846   27858  -27876   27888       4   27843   27840   27846   27855      14
   27843   27840  -27846   27858      14   27843   27849   27861   27879       4
   27843   27849  -27864   27867       4   27843   27849   27864   27885       4
   27843   27852  -27858   27846      15   27843   27852   27858   27876      15
   27843   27852  -27867   27864      10   27840   27843   27849   27861       9
   27840   27843   27849   27864       9   27840   27843  -27852   27858      13
   27840   27843   27852   27867      13   27840   27846   27855   27870       4
   27840   27846  -27858   27852       4   27840   27846   27858   27876       4
   28179   28194   28197   28209       3   28170   28179   28194   28197       3
   28161   28170   28179   28194       3   28152   28161   28170   28179       3
   28140   28152   28161   28170       3   28122   28140   28152   28161       3
   28107   28122   28140   28152       3   28104   28083   28101   28110       4
   28104   28116  -28131   28110       4   28101   28083   28104   28116       4
   28101   28110  -28131   28116       4   28089   28107   28122   28140       5
   28083   28101   28110   28131       4   28083   28104  -28116   28131       4
   28080   28062   28083   28101       6   28080   28062   28083   28104       6
   28077   28089   28107   28122       7   28071   28089   28107   28122       7
   28068   28080   28062   28083       4   28062   28083   28101   28110       4
   28062   28083   28104   28116       4   28059   28044   28050   28068       9
   28059   28056   28077   28089       4   28056   28041   28053   28071       4
   28056   28077  -28089   28071       4   28056   28077   28089   28107       4
   28053   28041   28056   28059       4   28053   28041   28056   28077       4
   28053   28071  -28089   28077       4   28053   28071   28089   28107       4
   28050   28038   28047   28062       4   28050   28044   28059   28056      10
   28050   28068  -28080   28062       4   28047   28038   28050   28068       4
   28047   28062  -28080   28068       4   28047   28062   28083   28101       6
   28047   28062   28083   28104       6   28044   28035   28041   28053      11
   28044   28035  -28041   28056      11   28044   28050   28038   28047       4
   28044   28050   28068   28080       4   28044   28059   28056   28077      12
   28041   28035   28044   28050      13   28041   28035  -28044   28059      13
   28041   28053   28071   28089       4   28041   28056  -28059   28044      12
   28041   28056  -28077   28089       4   28038   28032   28035   28041      10
   28038   28032  -28035   28044      10   28038   28047   28062   28080       4
   28038   28047   28062   28083       4   28038   28050   28044   28059       9
   28038   28050  -28068   28080       4   28035   28032   28038   28047      14
   28035   28032  -28038   28050      14   28035   28041   28053   28071       4
   28035   28041  -28056   28059       4   28035   28041   28056   28077       4
   28035   28044  -28050   28038      15   28035   28044   28050   28068      15
   28035   28044  -28059   28056      10   28032   28035   28041   28053       9
   28032   28035   28041   28056       9   28032   28035  -28044   28050      13
   28032   28035   28044   28059      13   28032   28038   28047   28062       4
   28032   28038  -28050   28044       4   28032   28038   28050   28068       4
   28371   28386   28389   28401       3   28362   28371   28386   28389       3
   28353   28362   28371   28386       3   28344   28353   28362   28371       3
   28332   28344   28353   28362       3   28314   28332   28344   28353       3
   28299   28314   28332   28344       3   28296   28275   28293   28302       4
   28296   28308  -28323   28302       4   28293   28275   28296   28308       4
   28293   28302  -28323   28308       4   28281   28299   28314   28332       5
   28275   28293   28302   28323       4   28275   28296  -28308   28323       4
   28272   28254   28275   28293       6   28272   28254   28275   28296       6
   28269   28281   28299   28314       7   28263   28281   28299   28314       7
   28260   28272   28254   28275       4   28254   28275   28293   28302       4
   28254   28275   28296   28308       4   28251   28236   28242   28260       9
   28251   28248   28269   28281       4   28248   28233   28245   28263       4
   28248   28269  -28281   28263       4   28248   28269   28281   28299       4
   28245   28233   28248   28251       4   28245   28233   28248   28269       4
   28245   28263  -28281   28269       4   28245   28263   28281   28299       4
   28242   28230   28239   28254       4   28242   28236   28251   28248      10
   28242   28260  -28272   28254       4   28239   28230   28242   28260       4
   28239   28254  -28272   28260       4   28239   28254   28275   28293       6
   28239   28254   28275   28296       6   28236   28227   28233   28245      11
   28236   28227  -28233   28248      11   28236   28242   28230   28239       4
   28236   28242   28260   28272       4   28236   28251   28248   28269      12
   28233   28227   28236   28242      13   28233   28227  -28236   28251      13
   28233   28245   28263   28281       4   28233   28248  -28251   28236      12
   28233   28248  -28269   28281       4   28230   28224   28227   28233      10
   28230   28224  -28227   28236      10   28230   28239   28254   28272       4
   28230   28239   28254   28275       4   28230   28242   28236   28251       9
   28230   28242  -28260   28272       4   28227   28224   28230   28239      14
   28227   28224  -28230   28242      14   28227   28233   28245   28263       4
   28227   28233  -28248   28251       4   28227   28233   28248   28269       4
   28227   28236  -28242   28230      15   28227   28236   28242   28260      15
   28227   28236  -28251   28248      10   28224   28227   28233   28245       9
   28224   28227   28233   28248       9   28224   28227  -28236   28242      13
   28224   28227   28236   28251      13   28224   28230   28239   28254       4
   28224   28230  -28242   28236       4   28224   28230   28242   28260       4
   28563   28578   28581   28593       3   28554   28563   28578   28581       3
   28545   28554   28563   28578       3   28536   28545   28554   28563       3
   28524   28536   28545   28554       3   28506   28524   28536   28545       3
   28491   28506   28524   28536       3   28488   28467   28485   28494       4
   28488   28500  -28515   28494       4   28485   28467   28488   28500       4
   28485   28494  -28515   28500       4   28473   28491   28506   28524       5
   28467   28485   28494   28515       4   28467   28488  -28500   28515       4
   28464   28446   28467   28485       6   28464   28446   28467   28488       6
   28461   28473   28491   28506       7   28455   28473   28491   28506       7
   28452   28464   28446   28467       4   28446   28467   28485   28494       4
   28446   28467   28488   28500       4   28443   28428   28434   28452       9
   28443   28440   28461   28473       4   28440   28425   28437   28455       4
   28440   28461  -28473   28455       4   28440   28461   28473   28491       4
   28437   28425   28440   28443       4   28437   28425   28440   28461       4
   28437   28455  -28473   28461       4   28437   28455   28473   28491       4
   28434   28422   28431   28446       4   28434   28428   28443   28440      10
   28434   28452  -28464   28446       4   28431   28422   28434   28452       4
   28431   28446  -28464   28452       4   28431   28446   28467   28485       6
   28431   28446   28467   28488       6   28428   28419   28425   28437      11
   28428   28419  -28425   28440      11   28428   28434   28422   28431       4
   28428   28434   28452   28464       4   28428   28443   28440   28461      12
   28425   28419   28428   28434      13   28425   28419  -28428   28443      13
   28425   28437   28455   28473       4   28425   28440  -28443   28428      12
   28425   28440  -28461   28473       4   28422   28416   28419   28425      10
   28422   28416  -28419   28428      10   28422   28431   28446   28464       4
   28422   28431   28446   28467       4   28422   28434   28428   28443       9
   28422   28434  -28452   28464       4   28419   28416   28422   28431      14
   28419   28416  -28422   28434      14   28419   28425   28437   28455       4
   28419   28425  -28440   28443       4   28419   28425   28440   28461       4
   28419   28428  -28434   28422      15   28419   28428   28434   28452      15
   28419   28428  -28443   28440      10   28416   28419   28425   28437       9
   28416   28419   28425   28440       9   28416   28419  -28428   28434      13
   28416   28419   28428   28443      13   28416   28422   28431   28446       4
   28416   28422  -28434   28428       4   28416   28422   28434   28452       4
   28755   28770   28773   28785       3   28746   28755   28770   28773       3
   28737   28746   28755   28770       3   28728   28737   28746   28755       3
   28716   28728   28737   28746       3   28698   28716   28728   28737       3
   28683   28698   28716   28728       3   28680   28659   28677   28686       4
   28680   28692  -28707   28686       4   28677   28659   28680   28692       4
   28677   28686  -28707   28692       4   28665   28683   28698   28716       5
   28659   28677   28686   28707       4   28659   28680  -28692   28707       4
   28656   28638   28659   28677       6   28656   28638   28659   28680       6
   28653   28665   28683   28698       7   28647   28665   28683   28698       7
   28644   28656   28638   28659       4   28638   28659   28677   28686       4
   28638   28659   28680   28692       4   28635   28620   28626   28644       9
   28635   28632   28653   28665       4   28632   28617   28629   28647       4
   28632   28653  -28665   28647       4   28632   28653   28665   28683       4
   28629   28617   28632   28635       4   28629   28617   28632   28653       4
   28629   28647  -28665   28653       4   28629   28647   28665   28683       4
   28626   28614   28623   28638       4   28626   28620   28635   28632      10
   28626   28644  -28656   28638       4   28623   28614   28626   28644       4
   28623   28638  -28656   28644       4   28623   28638   28659   28677       6
   28623   28638   28659   28680       6   28620   28611   28617   28629      11
   28620   28611  -28617   28632      11   28620   28626   28614   28623       4
   28620   28626   28644   28656       4   28620   28635   28632   28653      12
   28617   28611   28620   28626      13   28617   28611  -28620   28635      13
   28617   28629   28647   28665       4   28617   28632  -28635   28620      12
   28617   28632  -28653   28665       4   28614   28608   28611   28617      10
   28614   28608  -28611   28620      10   28614   28623   28638   28656       4
   28614   28623   28638   28659       4   28614   28626   28620   28635       9
   28614   28626  -28644   28656       4   28611   28608   28614   28623      14
   28611   28608  -28614   28626      14   28611   28617   28629   28647       4
   28611   28617  -28632   28635       4   28611   28617   28632   28653       4
   28611   28620  -28626   28614      15   28611   28620   28626   28644      15
   28611   28620  -28635   28632      10   28608   28611   28617   28629       9
   28608   28611   28617   28632       9   28608   28611  -28620   28626      13
   28608   28611   28620   28635      13   28608   28614   28623   28638       4
   28608   28614  -28626   28620       4   28608   28614   28626   28644       4
   28947   28962   28965   28977       3   28938   28947   28962   28965       3
   28929   28938   28947   28962       3   28920   28929   28938   28947       3
   28908   28920   28929   28938       3   28890   28908   28920   28929       3
   28875   28890   28908   28920       3   28872   28851   28869   28878       4
   28872   28884  -28899   28878       4   28869   28851   28872   28884       4
   28869   28878  -28899   28884       4   28857   28875   28890   28908       5
   28851   28869   28878   28899       4   28851   28872  -28884   28899       4
   28848   28830   28851   28869       6   28848   28830   28851   28872       6
   28845   28857   28875   28890       7   28839   28857   28875   28890       7
   28836   28848   28830   28851       4   28830   28851   28869   28878       4
   28830   28851   28872   28884       4   28827   28812   28818   28836       9
   28827   28824   28845   28857       4   28824   28809   28821   28839       4
   28824   28845  -28857   28839       4   28824   28845   28857   28875       4
   28821   28809   28824   28827       4   28821   28809   28824   28845       4
   28821   28839  -28857   28845       4   28821   28839   28857   28875       4
   28818   28806   28815   28830       4   28818   28812   28827   28824      10
   28818   28836  -28848   28830       4   28815   28806   28818   28836       4
   28815   28830  -28848   28836       4   28815   28830   28851   28869       6
   28815   28830   28851   28872       6   28812   28803   28809   28821      11
   28812   28803  -28809   28824      11   28812   28818   28806   28815       4
   28812   28818   28836   28848       4   28812   28827   28824   28845      12
   28809   28803   28812   28818      13   28809   28803  -28812   28827      13
   28809   28821   28839   28857       4   28809   28824  -28827   28812      12
   28809   28824  -28845   28857       4   28806   28800   28803   28809      10
   28806   28800  -28803   28812      10   28806   28815   28830   28848       4
   28806   28815   28830   28851       4   28806   28818   28812   28827       9
   28806   28818  -28836   28848       4   28803   28800   28806   28815      14
   28803   28800  -28806   28818      14   28803   28809   28821   28839       4
   28803   28809  -28824   28827       4   28803   28809   28824   28845       4
   28803   28812  -28818   28806      15   28803   28812   28818   28836      15
   28803   28812  -28827   28824      10   28800   28803   28809   28821       9
   28800   28803   28809   28824       9   28800   28803  -28812   28818      13
   28800   28803   28812   28827      13   28800   28806   28815   28830       4
   28800   28806  -28818   28812       4   28800   28806   28818   28836       4
   29139   29154   29157   29169       3   29130   29139   29154   29157       3
   29121   29130   29139   29154       3   29112   29121   29130   29139       3
   29100   29112   29121   29130       3   29082   29100   29112   29121       3
   29067   29082   29100   29112       3   29064   29043   29061   29070       4
   29064   29076  -29091   29070       4   29061   29043   29064   29076       4
   29061   29070  -29091   29076       4   29049   29067   29082   29100       5
   29043   29061   29070   29091       4   29043   29064  -29076   29091       4
   29040   29022   29043   29061       6   29040   29022   29043   29064       6
   29037   29049   29067   29082       7   29031   29049   29067   29082       7
   29028   29040   29022   29043       4   29022   29043   29061   29070       4
   29022   29043   29064   29076       4   29019   29004   29010   29028       9
   29019   29016   29037   29049       4   29016   29001   29013   29031       4
   29016   29037  -29049   29031       4   29016   29037   29049   29067       4
   29013   29001   29016   29019       4   29013   29001   29016   29037       4
   29013   29031  -29049   29037       4   29013   29031   29049   29067       4
   29010   28998   29007   29022       4   29010   29004   29019   29016      10
   29010   29028  -29040   29022       4   29007   28998   29010   29028       4
   29007   29022  -29040   29028       4   29007   29022   29043   29061       6
   29007   29022   29043   29064       6   29004   28995   29001   29013      11
   29004   28995  -29001   29016      11   29004   29010   28998   29007       4
   29004   29010   29028   29040       4   29004   29019   29016   29037      12
   29001   28995   29004   29010      13   29001   28995  -29004   29019      13
   29001   29013   29031   29049       4   29001   29016  -29019   29004      12
   29001   29016  -29037   29049       4   28998   28992   28995   29001      10
   28998   28992  -28995   29004      10   28998   29007   29022   29040       4
   28998   29007   29022   29043       4   28998   29010   29004   29019       9
   28998   29010  -29028   29040       4   28995   28992   28998   29007      14
   28995   28992  -28998   29010      14   28995   29001   29013   29031       4
   28995   29001  -29016   29019       4   28995   29001   29016   29037       4
   28995   29004  -29010   28998      15   28995   29004   29010   29028      15
   28995   29004  -29019   29016      10   28992   28995   29001   29013       9
   28992   28995   29001   29016       9   28992   28995  -29004   29010      13
   28992   28995   29004   29019      13   28992   28998   29007   29022       4
   28992   28998  -29010   29004       4   28992   28998   29010   29028       4
   29331   29346   29349   29361       3   29322   29331   29346   29349       3
   29313   29322   29331   29346       3   29304   29313   29322   29331       3
   29292   29304   29313   29322       3   29274   29292   29304   29313       3
   29259   29274   29292   29304       3   29256   29235   29253   29262       4
   29256   29268  -29283   29262       4   29253   29235   29256   29268       4
   29253   29262  -29283   29268       4   29241   29259   29274   29292       5
   29235   29253   29262   29283       4   29235   29256  -29268   29283       4
   29232   29214   29235   29253       6   29232   29214   29235   29256       6
   29229   29241   29259   29274       7   29223   29241   29259   29274       7
   29220   29232   29214   29235       4   29214   29235   29253   29262       4
   29214   29235   29256   29268       4   29211   29196   29202   29220       9
   29211   29208   29229   29241       4   29208   29193   29205   29223       4
   29208   29229  -29241   29223       4   29208   29229   29241   29259       4
   29205   29193   29208   29211       4   29205   29193   29208   29229       4
   29205   29223  -29241   29229       4   29205   29223   29241   29259       4
   29202   29190   29199   29214       4   29202   29196   29211   29208      10
   29202   29220  -29232   29214       4   29199   29190   29202   29220       4
   29199   29214  -29232   29220       4   29199   29214   29235   29253       6
   29199   29214   29235   29256       6   29196   29187   29193   29205      11
   29196   29187  -29193   29208      11   29196   29202   29190   29199       4
   29196   29202   29220   29232       4   29196   29211   29208   29229      12
   29193   29187   29196   29202      13   29193   29187  -29196   29211      13
   29193   29205   29223   29241       4   29193   29208  -29211   29196      12
   29193   29208  -29229   29241       4   29190   29184   29187   29193      10
   29190   29184  -29187   29196      10   29190   29199   29214   29232       4
   29190   29199   29214   29235       4   29190   29202   29196   29211       9
   29190   29202  -29220   29232       4   29187   29184   29190   29199      14
   29187   29184  -29190   29202      14   29187   29193   29205   29223       4
   29187   29193  -29208   29211       4   29187   29193   29208   29229       4
   29187   29196  -29202   29190      15   29187   29196   29202   29220      15
   29187   29196  -29211   29208      10   29184   29187   29193   29205       9
   29184   29187   29193   29208       9   29184   29187  -29196   29202      13
   29184   29187   29196   29211      13   29184   29190   29199   29214       4
   29184   29190  -29202   29196       4   29184   29190   29202   29220       4
   29523   29538   29541   29553       3   29514   29523   29538   29541       3
   29505   29514   29523   29538       3   29496   29505   29514   29523       3
   29484   29496   29505   29514       3   29466   29484   29496   29505       3
   29451   29466   29484   29496       3   29448   29427   29445   29454       4
   29448   29460  -29475   29454       4   29445   29427   29448   29460       4
   29445   29454  -29475   29460       4   29433   29451   29466   29484       5
   29427   29445   29454   29475       4   29427   29448  -29460   29475       4
   29424   29406   29427   29445       6   29424   29406   29427   29448       6
   29421   29433   29451   29466       7   29415   29433   29451   29466       7
   29412   29424   29406   29427       4   29406   29427   29445   29454       4
   29406   29427   29448   29460       4   29403   29388   29394   29412       9
   29403   29400   29421   29433       4   29400   29385   29397   29415       4
   29400   29421  -29433   29415       4   29400   29421   29433   29451       4
   29397   29385   29400   29403       4   29397   29385   29400   29421       4
   29397   29415  -29433   29421       4   29397   29415   29433   29451       4
   29394   29382   29391   29406       4   29394   29388   29403   29400      10
   29394   29412  -29424   29406       4   29391   29382   29394   29412       4
   29391   29406  -29424   29412       4   29391   29406   29427   29445       6
   29391   29406   29427   29448       6   29388   29379   29385   29397      11
   29388   29379  -29385   29400      11   29388   29394   29382   29391       4
   29388   29394   29412   29424       4   29388   29403   29400   29421      12
   29385   29379   29388   29394      13   29385   29379  -29388   29403      13
   29385   29397   29415   29433       4   29385   29400  -29403   29388      12
   29385   29400  -29421   29433       4   29382   29376   29379   29385      10
   29382   29376  -29379   29388      10   29382   29391   29406   29424       4
   29382   29391   29406   29427       4   29382   29394   29388   29403       9
   29382   29394  -29412   29424       4   29379   29376   29382   29391      14
   29379   29376  -29382   29394      14   29379   29385   29397   29415       4
   29379   29385  -29400   29403       4   29379   29385   29400   29421       4
   29379   29388  -29394   29382      15   29379   29388   29394   29412      15
   29379   29388  -29403   29400      10   29376   29379   29385   29397       9
   29376   29379   29385   29400       9   29376   29379  -29388   29394      13
   29376   29379   29388   29403      13   29376   29382   29391   29406       4
   29376   29382  -29394   29388       4   29376   29382   29394   29412       4
   29715   29730   29733   29745       3   29706   29715   29730   29733       3
   29697   29706   29715   29730       3   29688   29697   29706   29715       3
   29676   29688   29697   29706       3   29658   29676   29688   29697       3
   29643   29658   29676   29688       3   29640   29619   29637   29646       4
   29640   29652  -29667   29646       4   29637   29619   29640   29652       4
   29637   29646  -29667   29652       4   29625   29643   29658   29676       5
   29619   29637   29646   29667       4   29619   29640  -29652   29667       4
   29616   29598   29619   29637       6   29616   29598   29619   29640       6
   29613   29625   29643   29658       7   29607   29625   29643   29658       7
   29604   29616   29598   29619       4   29598   29619   29637   29646       4
   29598   29619   29640   29652       4   29595   29580   29586   29604       9
   29595   29592   29613   29625       4   29592   29577   29589   29607       4
   29592   29613  -29625   29607       4   29592   29613   29625   29643       4
   29589   29577   29592   29595       4   29589   29577   29592   29613       4
   29589   29607  -29625   29613       4   29589   29607   29625   29643       4
   29586   29574   29583   29598       4   29586   29580   29595   29592      10
   29586   29604  -29616   29598       4   29583   29574   29586   29604       4
   29583   29598  -29616   29604       4   29583   29598   29619   29637       6
   29583   29598   29619   29640       6   29580   29571   29577   29589      11
   29580   29571  -29577   29592      11   29580   29586   29574   29583       4
   29580   29586   29604   29616       4   29580   29595   29592   29613      12
   29577   29571   29580   29586      13   29577   29571  -29580   29595      13
   29577   29589   29607   29625       4   29577   29592  -29595   29580      12
   29577   29592  -29613   29625       4   29574   29568   29571   29577      10
   29574   29568  -29571   29580      10   29574   29583   29598   29616       4
   29574   29583   29598   29619       4   29574   29586   29580   29595       9
   29574   29586  -29604   29616       4   29571   29568   29574   29583      14
   29571   29568  -29574   29586      14   29571   29577   29589   29607       4
   29571   29577  -29592   29595       4   29571   29577   29592   29613       4
   29571   29580  -29586   29574      15   29571   29580   29586   29604      15
   29571   29580  -29595   29592      10   29568   29571   29577   29589       9
   29568   29571   29577   29592       9   29568   29571  -29580   29586      13
   29568   29571   29580   29595      13   29568   29574   29583   29598       4
   29568   29574  -29586   29580       4   29568   29574   29586   29604       4
   29907   29922   29925   29937       3   29898   29907   29922   29925       3
   29889   29898   29907   29922       3   29880   29889   29898   29907       3
   29868   29880   29889   29898       3   29850   29868   29880   29889       3
   29835   29850   29868   29880       3   29832   29811   29829   29838       4
   29832   29844  -29859   29838       4   29829   29811   29832   29844       4
   29829   29838  -29859   29844       4   29817   29835   29850   29868       5
   29811   29829   29838   29859       4   29811   29832  -29844   29859       4
   29808   29790   29811   29829       6   29808   29790   29811   29832       6
   29805   29817   29835   29850       7   29799   29817   29835   29850       7
   29796   29808   29790   29811       4   29790   29811   29829   29838       4
   29790   29811   29832   29844       4   29787   29772   29778   29796       9
   29787   29784   29805   29817       4   29784   29769   29781   29799       4
   29784   29805  -29817   29799       4   29784   29805   29817   29835       4
   29781   29769   29784   29787       4   29781   29769   29784   29805       4
   29781   29799  -29817   29805       4   29781   29799   29817   29835       4
   29778   29766   29775   29790       4   29778   29772   29787   29784      10
   29778   29796  -29808   29790       4   29775   29766   29778   29796       4
   29775   29790  -29808   29796       4   29775   29790   29811   29829       6
   29775   29790   29811   29832       6   29772   29763   29769   29781      11
   29772   29763  -29769   29784      11   29772   29778   29766   29775       4
   29772   29778   29796   29808       4   29772   29787   29784   29805      12
   29769   29763   29772   29778      13   29769   29763  -29772   29787      13
   29769   29781   29799   29817       4   29769   29784  -29787   29772      12
   29769   29784  -29805   29817       4   29766   29760   29763   29769      10
   29766   29760  -29763   29772      10   29766   29775   29790   29808       4
   29766   29775   29790   29811       4   29766   29778   29772   29787       9
   29766   29778  -29796   29808       4   29763   29760   29766   29775      14
   29763   29760  -29766   29778      14   29763   29769   29781   29799       4
   29763   29769  -29784   29787       4   29763   29769   29784   29805       4
   29763   29772  -29778   29766      15   29763   29772   29778   29796      15
   29763   29772  -29787   29784      10   29760   29763   29769   29781       9
   29760   29763   29769   29784       9   29760   29763  -29772   29778      13
   29760   29763   29772   29787      13   29760   29766   29775   29790       4
   29760   29766  -29778   29772       4   29760   29766   29778   29796       4
   30099   30114   30117   30129       3   30090   30099   30114   30117       3
   30081   30090   30099   30114       3   30072   30081   30090   30099       3
   30060   30072   30081   30090       3   30042   30060   30072   30081       3
   30027   30042   30060   30072       3   30024   30003   30021   30030       4
   30024   30036  -30051   30030       4   30021   30003   30024   30036       4
   30021   30030  -30051   30036       4   30009   30027   30042   30060       5
   30003   30021   30030   30051       4   30003   30024  -30036   30051       4
   30000   29982   30003   30021       6   30000   29982   30003   30024       6
   29997   30009   30027   30042       7   29991   30009   30027   30042       7
   29988   30000   29982   30003       4   29982   30003   30021   30030       4
   29982   30003   30024   30036       4   29979   29964   29970   29988       9
   29979   29976   29997   30009       4   29976   29961   29973   29991       4
   29976   29997  -30009   29991       4   29976   29997   30009   30027       4
   29973   29961   29976   29979       4   29973   29961   29976   29997       4
   29973   29991  -30009   29997       4   29973   29991   30009   30027       4
   29970   29958   29967   29982       4   29970   29964   29979   29976      10
   29970   29988  -30000   29982       4   29967   29958   29970   29988       4
   29967   29982  -30000   29988       4   29967   29982   30003   30021       6
   29967   29982   30003   30024       6   29964   29955   29961   29973      11
   29964   29955  -29961   29976      11   29964   29970   29958   29967       4
   29964   29970   29988   30000       4   29964   29979   29976   29997      12
   29961   29955   29964   29970      13   29961   29955  -29964   29979      13
   29961   29973   29991   30009       4   29961   29976  -29979   29964      12
   29961   29976  -29997   30009       4   29958   29952   29955   29961      10
   29958   29952  -29955   29964      10   29958   29967   29982   30000       4
   29958   29967   29982   30003       4   29958   29970   29964   29979       9
   29958   29970  -29988   30000       4   29955   29952   29958   29967      14
   29955   29952  -29958   29970      14   29955   29961   29973   29991       4
   29955   29961  -29976   29979       4   29955   29961   29976   29997       4
   29955   29964  -29970   29958      15   29955   29964   29970   29988      15
   29955   29964  -29979   29976      10   29952   29955   29961   29973       9
   29952   29955   29961   29976       9   29952   29955  -29964   29970      13
   29952   29955   29964   29979      13   29952   29958   29967   29982       4
   29952   29958  -29970   29964       4   29952   29958   29970   29988       4
   30291   30306   30309   30321       3   30282   30291   30306   30309       3
   30273   30282   30291   30306       3   30264   30273   30282   30291       3
   30252   30264   30273   30282       3   30234   30252   30264   30273       3
   30219   30234   30252   30264       3   30216   30195   30213   30222       4
   30216   30228  -30243   30222       4   30213   30195   30216   30228       4
   30213   30222  -30243   30228       4   30201   30219   30234   30252       5
   30195   30213   30222   30243       4   30195   30216  -30228   30243       4
   30192   30174   30195   30213       6   30192   30174   30195   30216       6
   30189   30201   30219   30234       7   30183   30201   30219   30234       7
   30180   30192   30174   30195       4   30174   30195   30213   30222       4
   30174   30195   30216   30228       4   30171   30156   30162   30180       9
   30171   30168   30189   30201       4   30168   30153   30165   30183       4
   30168   30189  -30201   30183       4   30168   30189   30201   30219       4
   30165   30153   30168   30171       4   30165   30153   30168   30189       4
   30165   30183  -30201   30189       4   30165   30183   30201   30219       4
   30162   30150   30159   30174       4   30162   30156   30171   30168      10
   30162   30180  -30192   30174       4   30159   30150   30162   30180       4
   30159   30174  -30192   30180       4   30159   30174   30195   30213       6
   30159   30174   30195   30216       6   30156   30147   30153   30165      11
   30156   30147  -30153   30168      11   30156   30162   30150   30159       4
   30156   30162   30180   30192       4   30156   30171   30168   30189      12
   30153   30147   30156   30162      13   30153   30147  -30156   30171      13
   30153   30165   30183   30201       4   30153   30168  -30171   30156      12
   30153   30168  -30189   30201       4   30150   30144   30147   30153      10
   30150   30144  -30147   30156      10   30150   30159   30174   30192       4
   30150   30159   30174   30195       4   30150   30162   30156   30171       9
   30150   30162  -30180   30192       4   30147   30144   30150   30159      14
   30147   30144  -30150   30162      14   30147   30153   30165   30183       4
   30147   30153  -30168   30171       4   30147   30153   30168   30189       4
   30147   30156  -30162   30150      15   30147   30156   30162   30180      15
   30147   30156  -30171   30168      10   30144   30147   30153   30165       9
   30144   30147   30153   30168       9   30144   30147  -30156   30162      13
   30144   30147   30156   30171      13   30144   30150   30159   30174       4
   30144   30150  -30162   30156       4   30144   30150   30162   30180       4
   30483   30498   30501   30513       3   30474   30483   30498   30501       3
   30465   30474   30483   30498       3   30456   30465   30474   30483       3
   30444   30456   30465   30474       3   30426   30444   30456   30465       3
   30411   30426   30444   30456       3   30408   30387   30405   30414       4
   30408   30420  -30435   30414       4   30405   30387   30408   30420       4
   30405   30414  -30435   30420       4   30393   30411   30426   30444       5
   30387   30405   30414   30435       4   30387   30408  -30420   30435       4
   30384   30366   30387   30405       6   30384   30366   30387   30408       6
   30381   30393   30411   30426       7   30375   30393   30411   30426       7
   30372   30384   30366   30387       4   30366   30387   30405   30414       4
   30366   30387   30408   30420       4   30363   30348   30354   30372       9
   30363   30360   30381   30393       4   30360   30345   30357   30375       4
   30360   30381  -30393   30375       4   30360   30381   30393   30411       4
   30357   30345   30360   30363       4   30357   30345   30360   30381       4
   30357   30375  -30393   30381       4   30357   30375   30393   30411       4
   30354   30342   30351   30366       4   30354   30348   30363   30360      10
   30354   30372  -30384   30366       4   30351   30342   30354   30372       4
   30351   30366  -30384   30372       4   30351   30366   30387   30405       6
   30351   30366   30387   30408       6   30348   30339   30345   30357      11
   30348   30339  -30345   30360      11   30348   30354   30342   30351       4
   30348   30354   30372   30384       4   30348   30363   30360   30381      12
   30345   30339   30348   30354      13   30345   30339  -30348   30363      13
   30345   30357   30375   30393       4   30345   30360  -30363   30348      12
   30345   30360  -30381   30393       4   30342   30336   30339   30345      10
   30342   30336  -30339   30348      10   30342   30351   30366   30384       4
   30342   30351   30366   30387       4   30342   30354   30348   30363       9
   30342   30354  -30372   30384       4   30339   30336   30342   30351      14
   30339   30336  -30342   30354      14   30339   30345   30357   30375       4
   30339   30345  -30360   30363       4   30339   30345   30360   30381       4
   30339   30348  -30354   30342      15   30339   30348   30354   30372      15
   30339   30348  -30363   30360      10   30336   30339   30345   30357       9
   30336   30339   30345   30360       9   30336   30339  -30348   30354      13
   30336   30339   30348   30363      13   30336   30342   30351   30366       4
   30336   30342  -30354   30348       4   30336   30342   30354   30372       4
   30675   30690   30693   30705       3   30666   30675   30690   30693       3
   30657   30666   30675   30690       3   30648   30657   30666   30675       3
   30636   30648   30657   30666       3   30618   30636   30648   30657       3
   30603   30618   30636   30648       3   30600   30579   30597   30606       4
   30600   30612  -30627   30606       4   30597   30579   30600   30612       4
   30597   30606  -30627   30612       4   30585   30603   30618   30636       5
   30579   30597   30606   30627       4   30579   30600  -30612   30627       4
   30576   30558   30579   30597       6   30576   30558   30579   30600       6
   30573   30585   30603   30618       7   30567   30585   30603   30618       7
   30564   30576   30558   30579       4   30558   30579   30597   30606       4
   30558   30579   30600   30612       4   30555   30540   30546   30564       9
   30555   30552   30573   30585       4   30552   30537   30549   30567       4
   30552   30573  -30585   30567       4   30552   30573   30585   30603       4
   30549   30537   30552   30555       4   30549   30537   30552   30573       4
   30549   30567  -30585   30573       4   30549   30567   30585   30603       4
   30546   30534   30543   30558       4   30546   30540   30555   30552      10
   30546   30564  -30576   30558       4   30543   30534   30546   30564       4
   30543   30558  -30576   30564       4   30543   30558   30579   30597       6
   30543   30558   30579   30600       6   30540   30531   30537   30549      11
   30540   30531  -30537   30552      11   30540   30546   30534   30543       4
   30540   30546   30564   30576       4   30540   30555   30552   30573      12
   30537   30531   30540   30546      13   30537   30531  -30540   30555      13
   30537   30549   30567   30585       4   30537   30552  -30555   30540      12
   30537   30552  -30573   30585       4   30534   30528   30531   30537      10
   30534   30528  -30531   30540      10   30534   30543   30558   30576       4
   30534   30543   30558   30579       4   30534   30546   30540   30555       9
   30534   30546  -30564   30576       4   30531   30528   30534   30543      14
   30531   30528  -30534   30546      14   30531   30537   30549   30567       4
   30531   30537  -30552   30555       4   30531   30537   30552   30573       4
   30531   30540  -30546   30534      15   30531   30540   30546   30564      15
   30531   30540  -30555   30552      10   30528   30531   30537   30549       9
   30528   30531   30537   30552       9   30528   30531  -30540   30546      13
   30528   30531   30540   30555      13   30528   30534   30543   30558       4
   30528   30534  -30546   30540       4   30528   30534   30546   30564       4
   30867   30882   30885   30897       3   30858   30867   30882   30885       3
   30849   30858   30867   30882       3   30840   30849   30858   30867       3
   30828   30840   30849   30858       3   30810   30828   30840   30849       3
   30795   30810   30828   30840       3   30792   30771   30789   30798       4
   30792   30804  -30819   30798       4   30789   30771   30792   30804       4
   30789   30798  -30819   30804       4   30777   30795   30810   30828       5
   30771   30789   30798   30819       4   30771   30792  -30804   30819       4
   30768   30750   30771   30789       6   30768   30750   30771   30792       6
   30765   30777   30795   30810       7   30759   30777   30795   30810       7
   30756   30768   30750   30771       4   30750   30771   30789   30798       4
   30750   30771   30792   30804       4   30747   30732   30738   30756       9
   30747   30744   30765   30777       4   30744   30729   30741   30759       4
   30744   30765  -30777   30759       4   30744   30765   30777   30795       4
   30741   30729   30744   30747       4   30741   30729   30744   30765       4
   30741   30759  -30777   30765       4   30741   30759   30777   30795       4
   30738   30726   30735   30750       4   30738   30732   30747   30744      10
   30738   30756  -30768   30750       4   30735   30726   30738   30756       4
   30735   30750  -30768   30756       4   30735   30750   30771   30789       6
   30735   30750   30771   30792       6   30732   30723   30729   30741      11
   30732   30723  -30729   30744      11   30732   30738   30726   30735       4
   30732   30738   30756   30768       4   30732   30747   30744   30765      12
   30729   30723   30732   30738      13   30729   30723  -30732   30747      13
   30729   30741   30759   30777       4   30729   30744  -30747   30732      12
   30729   30744  -30765   30777       4   30726   30720   30723   30729      10
   30726   30720  -30723   30732      10   30726   30735   30750   30768       4
   30726   30735   30750   30771       4   30726   30738   30732   30747       9
   30726   30738  -30756   30768       4   30723   30720   30726   30735      14
   30723   30720  -30726   30738      14   30723   30729   30741   30759       4
   30723   30729  -30744   30747       4   30723   30729   30744   30765       4
   30723   30732  -30738   30726      15   30723   30732   30738   30756      15
   30723   30732  -30747   30744      10   30720   30723   30729   30741       9
   30720   30723   30729   30744       9   30720   30723  -30732   30738      13
   30720   30723   30732   30747      13   30720   30726   30735   30750       4
   30720   30726  -30738   30732       4   30720   30726   30738   30756       4
   31059   31074   31077   31089       3   31050   31059   31074   31077       3
   31041   31050   31059   31074       3   31032   31041   31050   31059       3
   31020   31032   31041   31050       3   31002   31020   31032   31041       3
   30987   31002   31020   31032       3   30984   30963   30981   30990       4
   30984   30996  -31011   30990       4   30981   30963   30984   30996       4
   30981   30990  -31011   30996       4   30969   30987   31002   31020       5
   30963   30981   30990   31011       4   30963   30984  -30996   31011       4
   30960   30942   30963   30981       6   30960   30942   30963   30984       6
   30957   30969   30987   31002       7   30951   30969   30987   31002       7
   30948   30960   30942   30963       4   30942   30963   30981   30990       4
   30942   30963   30984   30996       4   30939   30924   30930   30948       9
   30939   30936   30957   30969       4   30936   30921   30933   30951       4
   30936   30957  -30969   30951       4   30936   30957   30969   30987       4
   30933   30921   30936   30939       4   30933   30921   30936   30957       4
   30933   30951  -30969   30957       4   30933   30951   30969   30987       4
   30930   30918   30927   30942       4   30930   30924   30939   30936      10
   30930   30948  -30960   30942       4   30927   30918   30930   30948       4
   30927   30942  -30960   30948       4   30927   30942   30963   30981       6
   30927   30942   30963   30984       6   30924   30915   30921   30933      11
   30924   30915  -30921   30936      11   30924   30930   30918   30927       4
   30924   30930   30948   30960       4   30924   30939   30936   30957      12
   30921   30915   30924   30930      13   30921   30915  -30924   30939      13
   30921   30933   30951   30969       4   30921   30936  -30939   30924      12
   30921   30936  -30957   30969       4   30918   30912   30915   30921      10
   30918   30912  -30915   30924      10   30918   30927   30942   30960       4
   30918   30927   30942   30963       4   30918   30930   30924   30939       9
   30918   30930  -30948   30960       4   30915   30912   30918   30927      14
   30915   30912  -30918   30930      14   30915   30921   30933   30951       4
   30915   30921  -30936   30939       4   30915   30921   30936   30957       4
   30915   30924  -30930   30918      15   30915   30924   30930   30948      15
   30915   30924  -30939   30936      10   30912   30915   30921   30933       9
   30912   30915   30921   30936       9   30912   30915  -30924   30930      13
   30912   30915   30924   30939      13   30912   30918   30927   30942       4
   30912   30918  -30930   30924       4   30912   30918   30930   30948       4
   31251   31266   31269   31281       3   31242   31251   31266   31269       3
   31233   31242   31251   31266       3   31224   31233   31242   31251       3
   31212   31224   31233   31242       3   31194   31212   31224   31233       3
   31179   31194   31212   31224       3   31176   31155   31173   31182       4
   31176   31188  -31203   31182       4   31173   31155   31176   31188       4
   31173   31182  -31203   31188       4   31161   31179   31194   31212       5
   31155   31173   31182   31203       4   31155   31176  -31188   31203       4
   31152   31134   31155   31173       6   31152   31134   31155   31176       6
   31149   31161   31179   31194       7   31143   31161   31179   31194       7
   31140   31152   31134   31155       4   31134   31155   31173   31182       4
   31134   31155   31176   31188       4   31131   31116   31122   31140       9
   31131   31128   31149   31161       4   31128   31113   31125   31143       4
   31128   31149  -31161   31143       4   31128   31149   31161   31179       4
   31125   31113   31128   31131       4   31125   31113   31128   31149       4
   31125   31143  -31161   31149       4   31125   31143   31161   31179       4
   31122   31110   31119   31134       4   31122   31116   31131   31128      10
   31122   31140  -31152   31134       4   31119   31110   31122   31140       4
   31119   31134  -31152   31140       4   31119   31134   31155   31173       6
   31119   31134   31155   31176       6   31116   31107   31113   31125      11
   31116   31107  -31113   31128      11   31116   31122   31110   31119       4
   31116   31122   31140   31152       4   31116   31131   31128   31149      12
   31113   31107   31116   31122      13   31113   31107  -31116   31131      13
   31113   31125   31143   31161       4   31113   31128  -31131   31116      12
   31113   31128  -31149   31161       4   31110   31104   31107   31113      10
   31110   31104  -31107   31116      10   31110   31119   31134   31152       4
   31110   31119   31134   31155       4   31110   31122   31116   31131       9
   31110   31122  -31140   31152       4   31107   31104   31110   31119      14
   31107   31104  -31110   31122      14   31107   31113   31125   31143       4
   31107   31113  -31128   31131       4   31107   31113   31128   31149       4
   31107   31116  -31122   31110      15   31107   31116   31122   31140      15
   31107   31116  -31131   31128      10   31104   31107   31113   31125       9
   31104   31107   31113   31128       9   31104   31107  -31116   31122      13
   31104   31107   31116   31131      13   31104   31110   31119   31134       4
   31104   31110  -31122   31116       4   31104   31110   31122   31140       4
   31443   31458   31461   31473       3   31434   31443   31458   31461       3
   31425   31434   31443   31458       3   31416   31425   31434   31443       3
   31404   31416   31425   31434       3   31386   31404   31416   31425       3
   31371   31386   31404   31416       3   31368   31347   31365   31374       4
   31368   31380  -31395   31374       4   31365   31347   31368   31380       4
   31365   31374  -31395   31380       4   31353   31371   31386   31404       5
   31347   31365   31374   31395       4   31347   31368  -31380   31395       4
   31344   31326   31347   31365       6   31344   31326   31347   31368       6
   31341   31353   31371   31386       7   31335   31353   31371   31386       7
   31332   31344   31326   31347       4   31326   31347   31365   31374       4
   31326   31347   31368   31380       4   31323   31308   31314   31332       9
   31323   31320   31341   31353       4   31320   31305   31317   31335       4
   31320   31341  -31353   31335       4   31320   31341   31353   31371       4
   31317   31305   31320   31323       4   31317   31305   31320   31341       4
   31317   31335  -31353   31341       4   31317   31335   31353   31371       4
   31314   31302   31311   31326       4   31314   31308   31323   31320      10
   31314   31332  -31344   31326       4   31311   31302   31314   31332       4
   31311   31326  -31344   31332       4   31311   31326   31347   31365       6
   31311   31326   31347   31368       6   31308   31299   31305   31317      11
   31308   31299  -31305   31320      11   31308   31314   31302   31311       4
   31308   31314   31332   31344       4   31308   31323   31320   31341      12
   31305   31299   31308   31314      13   31305   31299  -31308   31323      13
   31305   31317   31335   31353       4   31305   31320  -31323   31308      12
   31305   31320  -31341   31353       4   31302   31296   31299   31305      10
   31302   31296  -31299   31308      10   31302   31311   31326   31344       4
   31302   31311   31326   31347       4   31302   31314   31308   31323       9
   31302   31314  -31332   31344       4   31299   31296   31302   31311      14
   31299   31296  -31302   31314      14   31299   31305   31317   31335       4
   31299   31305  -31320   31323       4   31299   31305   31320   31341       4
   31299   31308  -31314   31302      15   31299   31308   31314   31332      15
   31299   31308  -31323   31320      10   31296   31299   31305   31317       9
   31296   31299   31305   31320       9   31296   31299  -31308   31314      13
   31296   31299   31308   31323      13   31296   31302   31311   31326       4
   31296   31302  -31314   31308       4   31296   31302   31314   31332       4
   31635   31650   31653   31665       3   31626   31635   31650   31653       3
   31617   31626   31635   31650       3   31608   31617   31626   31635       3
   31596   31608   31617   31626       3   31578   31596   31608   31617       3
   31563   31578   31596   31608       3   31560   31539   31557   31566       4
   31560   31572  -31587   31566       4   31557   31539   31560   31572       4
   31557   31566  -31587   31572       4   31545   31563   31578   31596       5
   31539   31557   31566   31587       4   31539   31560  -31572   31587       4
   31536   31518   31539   31557       6   31536   31518   31539   31560       6
   31533   31545   31563   31578       7   31527   31545   31563   31578       7
   31524   31536   31518   31539       4   31518   31539   31557   31566       4
   31518   31539   31560   31572       4   31515   31500   31506   31524       9
   31515   31512   31533   31545       4   31512   31497   31509   31527       4
   31512   31533  -31545   31527       4   31512   31533   31545   31563       4
   31509   31497   31512   31515       4   31509   31497   31512   31533       4
   31509   31527  -31545   31533       4   31509   31527   31545   31563       4
   31506   31494   31503   31518       4   31506   31500   31515   31512      10
   31506   31524  -31536   31518       4   31503   31494   31506   31524       4
   31503   31518  -31536   31524       4   31503   31518   31539   31557       6
   31503   31518   31539   31560       6   31500   31491   31497   31509      11
   31500   31491  -31497   31512      11   31500   31506   31494   31503       4
   31500   31506   31524   31536       4   31500   31515   31512   31533      12
   31497   31491   31500   31506      13   31497   31491  -31500   31515      13
   31497   31509   31527   31545       4   31497   31512  -31515   31500      12
   31497   31512  -31533   31545       4   31494   31488   31491   31497      10
   31494   31488  -31491   31500      10   31494   31503   31518   31536       4
   31494   31503   31518   31539       4   31494   31506   31500   31515       9
   31494   31506  -31524   31536       4   31491   31488   31494   31503      14
   31491   31488  -31494   31506      14   31491   31497   31509   31527       4
   31491   31497  -31512   31515       4   31491   31497   31512   31533       4
   31491   31500  -31506   31494      15   31491   31500   31506   31524      15
   31491   31500  -31515   31512      10   31488   31491   31497   31509       9
   31488   31491   31497   31512       9   31488   31491  -31500   31506      13
   31488   31491   31500   31515      13   31488   31494   31503   31518       4
   31488   31494  -31506   31500       4   31488   31494   31506   31524       4
   31827   31842   31845   31857       3   31818   31827   31842   31845       3
   31809   31818   31827   31842       3   31800   31809   31818   31827       3
   31788   31800   31809   31818       3   31770   31788   31800   31809       3
   31755   31770   31788   31800       3   31752   31731   31749   31758       4
   31752   31764  -31779   31758       4   31749   31731   31752   31764       4
   31749   31758  -31779   31764       4   31737   31755   31770   31788       5
   31731   31749   31758   31779       4   31731   31752  -31764   31779       4
   31728   31710   31731   31749       6   31728   31710   31731   31752       6
   31725   31737   31755   31770       7   31719   31737   31755   31770       7
   31716   31728   31710   31731       4   31710   31731   31749   31758       4
   31710   31731   31752   31764       4   31707   31692   31698   31716       9
   31707   31704   31725   31737       4   31704   31689   31701   31719       4
   31704   31725  -31737   31719       4   31704   31725   31737   31755       4
   31701   31689   31704   31707       4   31701   31689   31704   31725       4
   31701   31719  -31737   31725       4   31701   31719   31737   31755       4
   31698   31686   31695   31710       4   31698   31692   31707   31704      10
   31698   31716  -31728   31710       4   31695   31686   31698   31716       4
   31695   31710  -31728   31716       4   31695   31710   31731   31749       6
   31695   31710   31731   31752       6   31692   31683   31689   31701      11
   31692   31683  -31689   31704      11   31692   31698   31686   31695       4
   31692   31698   31716   31728       4   31692   31707   31704   31725      12
   31689   31683   31692   31698      13   31689   31683  -31692   31707      13
   31689   31701   31719   31737       4   31689   31704  -31707   31692      12
   31689   31704  -31725   31737       4   31686   31680   31683   31689      10
   31686   31680  -31683   31692      10   31686   31695   31710   31728       4
   31686   31695   31710   31731       4   31686   31698   31692   31707       9
   31686   31698  -31716   31728       4   31683   31680   31686   31695      14
   31683   31680  -31686   31698      14   31683   31689   31701   31719       4
   31683   31689  -31704   31707       4   31683   31689   31704   31725       4
   31683   31692  -31698   31686      15   31683   31692   31698   31716      15
   31683   31692  -31707   31704      10   31680   31683   31689   31701       9
   31680   31683   31689   31704       9   31680   31683  -31692   31698      13
   31680   31683   31692   31707      13   31680   31686   31695   31710       4
   31680   31686  -31698   31692       4   31680   31686   31698   31716       4
   32019   32034   32037   32049       3   32010   32019   32034   32037       3
   32001   32010   32019   32034       3   31992   32001   32010   32019       3
   31980   31992   32001   32010       3   31962   31980   31992   32001       3
   31947   31962   31980   31992       3   31944   31923   31941   31950       4
   31944   31956  -31971   31950       4   31941   31923   31944   31956       4
   31941   31950  -31971   31956       4   31929   31947   31962   31980       5
   31923   31941   31950   31971       4   31923   31944  -31956   31971       4
   31920   31902   31923   31941       6   31920   31902   31923   31944       6
   31917   31929   31947   31962       7   31911   31929   31947   31962       7
   31908   31920   31902   31923       4   31902   31923   31941   31950       4
   31902   31923   31944   31956       4   31899   31884   31890   31908       9
   31899   31896   31917   31929       4   31896   31881   31893   31911       4
   31896   31917  -31929   31911       4   31896   31917   31929   31947       4
   31893   31881   31896   31899       4   31893   31881   31896   31917       4
   31893   31911  -31929   31917       4   31893   31911   31929   31947       4
   31890   31878   31887   31902       4   31890   31884   31899   31896      10
   31890   31908  -31920   31902       4   31887   31878   31890   31908       4
   31887   31902  -31920   31908       4   31887   31902   31923   31941       6
   31887   31902   31923   31944       6   31884   31875   31881   31893      11
   31884   31875  -31881   31896      11   31884   31890   31878   31887       4
   31884   31890   31908   31920       4   31884   31899   31896   31917      12
   31881   31875   31884   31890      13   31881   31875  -31884   31899      13
   31881   31893   31911   31929       4   31881   31896  -31899   31884      12
   31881   31896  -31917   31929       4   31878   31872   31875   31881      10
   31878   31872  -31875   31884      10   31878   31887   31902   31920       4
   31878   31887   31902   31923       4   31878   31890   31884   31899       9
   31878   31890  -31908   31920       4   31875   31872   31878   31887      14
   31875   31872  -31878   31890      14   31875   31881   31893   31911       4
   31875   31881  -31896   31899       4   31875   31881   31896   31917       4
   31875   31884  -31890   31878      15   31875   31884   31890   31908      15
   31875   31884  -31899   31896      10   31872   31875   31881   31893       9
   31872   31875   31881   31896       9   31872   31875  -31884   31890      13
   31872   31875   31884   31899      13   31872   31878   31887   31902       4
   31872   31878  -31890   31884       4   31872   31878   31890   31908       4
   32211   32226   32229   32241       3   32202   32211   32226   32229       3
   32193   32202   32211   32226       3   32184   32193   32202   32211       3
   32172   32184   32193   32202       3   32154   32172   32184   32193       3
   32139   32154   32172   32184       3   32136   32115   32133   32142       4
   32136   32148  -32163   32142       4   32133   32115   32136   32148       4
   32133   32142  -32163   32148       4   32121   32139   32154   32172       5
   32115   32133   32142   32163       4   32115   32136  -32148   32163       4
   32112   32094   32115   32133       6   32112   32094   32115   32136       6
   32109   32121   32139   32154       7   32103   32121   32139   32154       7
   32100   32112   32094   32115       4   32094   32115   32133   32142       4
   32094   32115   32136   32148       4   32091   32076   32082   32100       9
   32091   32088   32109   32121       4   32088   32073   32085   32103       4
   32088   32109  -32121   32103       4   32088   32109   32121   32139       4
   32085   32073   32088   32091       4   32085   32073   32088   32109       4
   32085   32103  -32121   32109       4   32085   32103   32121   32139       4
   32082   32070   32079   32094       4   32082   32076   32091   32088      10
   32082   32100  -32112   32094       4   32079   32070   32082   32100       4
   32079   32094  -32112   32100       4   32079   32094   32115   32133       6
   32079   32094   32115   32136       6   32076   32067   32073   32085      11
   32076   32067  -32073   32088      11   32076   32082   32070   32079       4
   32076   32082   32100   32112       4   32076   32091   32088   32109      12
   32073   32067   32076   32082      13   32073   32067  -32076   32091      13
   32073   32085   32103   32121       4   32073   32088  -32091   32076      12
   32073   32088  -32109   32121       4   32070   32064   32067   32073      10
   32070   32064  -32067   32076      10   32070   32079   32094   32112       4
   32070   32079   32094   32115       4   32070   32082   32076   32091       9
   32070   32082  -32100   32112       4   32067   32064   32070   32079      14
   32067   32064  -32070   32082      14   32067   32073   32085   32103       4
   32067   32073  -32088   32091       4   32067   32073   32088   32109       4
   32067   32076  -32082   32070      15   32067   32076   32082   32100      15
   32067   32076  -32091   32088      10   32064   32067   32073   32085       9
   32064   32067   32073   32088       9   32064   32067  -32076   32082      13
   32064   32067   32076   32091      13   32064   32070   32079   32094       4
   32064   32070  -32082   32076       4   32064   32070   32082   32100       4
   32403   32418   32421   32433       3   32394   32403   32418   32421       3
   32385   32394   32403   32418       3   32376   32385   32394   32403       3
   32364   32376   32385   32394       3   32346   32364   32376   32385       3
   32331   32346   32364   32376       3   32328   32307   32325   32334       4
   32328   32340  -32355   32334       4   32325   32307   32328   32340       4
   32325   32334  -32355   32340       4   32313   32331   32346   32364       5
   32307   32325   32334   32355       4   32307   32328  -32340   32355       4
   32304   32286   32307   32325       6   32304   32286   32307   32328       6
   32301   32313   32331   32346       7   32295   32313   32331   32346       7
   32292   32304   32286   32307       4   32286   32307   32325   32334       4
   32286   32307   32328   32340       4   32283   32268   32274   32292       9
   32283   32280   32301   32313       4   32280   32265   32277   32295       4
   32280   32301  -32313   32295       4   32280   32301   32313   32331       4
   32277   32265   32280   32283       4   32277   32265   32280   32301       4
   32277   32295  -32313   32301       4   32277   32295   32313   32331       4
   32274   32262   32271   32286       4   32274   32268   32283   32280      10
   32274   32292  -32304   32286       4   32271   32262   32274   32292       4
   32271   32286  -32304   32292       4   32271   32286   32307   32325       6
   32271   32286   32307   32328       6   32268   32259   32265   32277      11
   32268   32259  -32265   32280      11   32268   32274   32262   32271       4
   32268   32274   32292   32304       4   32268   32283   32280   32301      12
   32265   32259   32268   32274      13   32265   32259  -32268   32283      13
   32265   32277   32295   32313       4   32265   32280  -32283   32268      12
   32265   32280  -32301   32313       4   32262   32256   32259   32265      10
   32262   32256  -32259   32268      10   32262   32271   32286   32304       4
   32262   32271   32286   32307       4   32262   32274   32268   32283       9
   32262   32274  -32292   32304       4   32259   32256   32262   32271      14
   32259   32256  -32262   32274      14   32259   32265   32277   32295       4
   32259   32265  -32280   32283       4   32259   32265   32280   32301       4
   32259   32268  -32274   32262      15   32259   32268   32274   32292      15
   32259   32268  -32283   32280      10   32256   32259   32265   32277       9
   32256   32259   32265   32280       9   32256   32259  -32268   32274      13
   32256   32259   32268   32283      13   32256   32262   32271   32286       4
   32256   32262  -32274   32268       4   32256   32262   32274   32292       4
   32595   32610   32613   32625       3   32586   32595   32610   32613       3
   32577   32586   32595   32610       3   32568   32577   32586   32595       3
   32556   32568   32577   32586       3   32538   32556   32568   32577       3
   32523   32538   32556   32568       3   32520   32499   32517   32526       4
   32520   32532  -32547   32526       4   32517   32499   32520   32532       4
   32517   32526  -32547   32532       4   32505   32523   32538   32556       5
   32499   32517   32526   32547       4   32499   32520  -32532   32547       4
   32496   32478   32499   32517       6   32496   32478   32499   32520       6
   32493   32505   32523   32538       7   32487   32505   32523   32538       7
   32484   32496   32478   32499       4   32478   32499   32517   32526       4
   32478   32499   32520   32532       4   32475   32460   32466   32484       9
   32475   32472   32493   32505       4   32472   32457   32469   32487       4
   32472   32493  -32505   32487       4   32472   32493   32505   32523       4
   32469   32457   32472   32475       4   32469   32457   32472   32493       4
   32469   32487  -32505   32493       4   32469   32487   32505   32523       4
   32466   32454   32463   32478       4   32466   32460   32475   32472      10
   32466   32484  -32496   32478       4   32463   32454   32466   32484       4
   32463   32478  -32496   32484       4   32463   32478   32499   32517       6
   32463   32478   32499   32520       6   32460   32451   32457   32469      11
   32460   32451  -32457   32472      11   32460   32466   32454   32463       4
   32460   32466   32484   32496       4   32460   32475   32472   32493      12
   32457   32451   32460   32466      13   32457   32451  -32460   32475      13
   32457   32469   32487   32505       4   32457   32472  -32475   32460      12
   32457   32472  -32493   32505       4   32454   32448   32451   32457      10
   32454   32448  -32451   32460      10   32454   32463   32478   32496       4
   32454   32463   32478   32499       4   32454   32466   32460   32475       9
   32454   32466  -32484   32496       4   32451   32448   32454   32463      14
   32451   32448  -32454   32466      14   32451   32457   32469   32487       4
   32451   32457  -32472   32475       4   32451   32457   32472   32493       4
   32451   32460  -32466   32454      15   32451   32460   32466   32484      15
   32451   32460  -32475   32472      10   32448   32451   32457   32469       9
   32448   32451   32457   32472       9   32448   32451  -32460   32466      13
   32448   32451   32460   32475      13   32448   32454   32463   32478       4
   32448   32454  -32466   32460       4   32448   32454   32466   32484       4
   32787   32802   32805   32817       3   32778   32787   32802   32805       3
   32769   32778   32787   32802       3   32760   32769   32778   32787       3
   32748   32760   32769   32778       3   32730   32748   32760   32769       3
   32715   32730   32748   32760       3   32712   32691   32709   32718       4
   32712   32724  -32739   32718       4   32709   32691   32712   32724       4
   32709   32718  -32739   32724       4   32697   32715   32730   32748       5
   32691   32709   32718   32739       4   32691   32712  -32724   32739       4
   32688   32670   32691   32709       6   32688   32670   32691   32712       6
   32685   32697   32715   32730       7   32679   32697   32715   32730       7
   32676   32688   32670   32691       4   32670   32691   32709   32718       4
   32670   32691   32712   32724       4   32667   32652   32658   32676       9
   32667   32664   32685   32697       4   32664   32649   32661   32679       4
   32664   32685  -32697   32679       4   32664   32685   32697   32715       4
   32661   32649   32664   32667       4   32661   32649   32664   32685       4
   32661   32679  -32697   32685       4   32661   32679   32697   32715       4
   32658   32646   32655   32670       4   32658   32652   32667   32664      10
   32658   32676  -32688   32670       4   32655   32646   32658   32676       4
   32655   32670  -32688   32676       4   32655   32670   32691   32709       6
   32655   32670   32691   32712       6   32652   32643   32649   32661      11
   32652   32643  -32649   32664      11   32652   32658   32646   32655       4
   32652   32658   32676   32688       4   32652   32667   32664   32685      12
   32649   32643   32652   32658      13   32649   32643  -32652   32667      13
   32649   32661   32679   32697       4   32649   32664  -32667   32652      12
   32649   32664  -32685   32697       4   32646   32640   32643   32649      10
   32646   32640  -32643   32652      10   32646   32655   32670   32688       4
   32646   32655   32670   32691       4   32646   32658   32652   32667       9
   32646   32658  -32676   32688       4   32643   32640   32646   32655      14
   32643   32640  -32646   32658      14   32643   32649   32661   32679       4
   32643   32649  -32664   32667       4   32643   32649   32664   32685       4
   32643   32652  -32658   32646      15   32643   32652   32658   32676      15
   32643   32652  -32667   32664      10   32640   32643   32649   32661       9
   32640   32643   32649   32664       9   32640   32643  -32652   32658      13
   32640   32643   32652   32667      13   32640   32646   32655   32670       4
   32640   32646  -32658   32652       4   32640   32646   32658   32676       4
   32979   32994   32997   33009       3   32970   32979   32994   32997       3
   32961   32970   32979   32994       3   32952   32961   32970   32979       3
   32940   32952   32961   32970       3   32922   32940   32952   32961       3
   32907   32922   32940   32952       3   32904   32883   32901   32910       4
   32904   32916  -32931   32910       4   32901   32883   32904   32916       4
   32901   32910  -32931   32916       4   32889   32907   32922   32940       5
   32883   32901   32910   32931       4   32883   32904  -32916   32931       4
   32880   32862   32883   32901       6   32880   32862   32883   32904       6
   32877   32889   32907   32922       7   32871   32889   32907   32922       7
   32868   32880   32862   32883       4   32862   32883   32901   32910       4
   32862   32883   32904   32916       4   32859   32844   32850   32868       9
   32859   32856   32877   32889       4   32856   32841   32853   32871       4
   32856   32877  -32889   32871       4   32856   32877   32889   32907       4
   32853   32841   32856   32859       4   32853   32841   32856   32877       4
   32853   32871  -32889   32877       4   32853   32871   32889   32907       4
   32850   32838   32847   32862       4   32850   32844   32859   32856      10
   32850   32868  -32880   32862       4   32847   32838   32850   32868       4
   32847   32862  -32880   32868       4   32847   32862   32883   32901       6
   32847   32862   32883   32904       6   32844   32835   32841   32853      11
   32844   32835  -32841   32856      11   32844   32850   32838   32847       4
   32844   32850   32868   32880       4   32844   32859   32856   32877      12
   32841   32835   32844   32850      13   32841   32835  -32844   32859      13
   32841   32853   32871   32889       4   32841   32856  -32859   32844      12
   32841   32856  -32877   32889       4   32838   32832   32835   32841      10
   32838   32832  -32835   32844      10   32838   32847   32862   32880       4
   32838   32847   32862   32883       4   32838   32850   32844   32859       9
   32838   32850  -32868   32880       4   32835   32832   32838   32847      14
   32835   32832  -32838   32850      14   32835   32841   32853   32871       4
   32835   32841  -32856   32859       4   32835   32841   32856   32877       4
   32835   32844  -32850   32838      15   32835   32844   32850   32868      15
   32835   32844  -32859   32856      10   32832   32835   32841   32853       9
   32832   32835   32841   32856       9   32832   32835  -32844   32850      13
   32832   32835   32844   32859      13   32832   32838   32847   32862       4
   32832   32838  -32850   32844       4   32832   32838   32850   32868       4
   33171   33186   33189   33201       3   33162   33171   33186   33189       3
   33153   33162   33171   33186       3   33144   33153   33162   33171       3
   33132   33144   33153   33162       3   33114   33132   33144   33153       3
   33099   33114   33132   33144       3   33096   33075   33093   33102       4
   33096   33108  -33123   33102       4   33093   33075   33096   33108       4
   33093   33102  -33123   33108       4   33081   33099   33114   33132       5
   33075   33093   33102   33123       4   33075   33096  -33108   33123       4
   33072   33054   33075   33093       6   33072   33054   33075   33096       6
   33069   33081   33099   33114       7   33063   33081   33099   33114       7
   33060   33072   33054   33075       4   33054   33075   33093   33102       4
   33054   33075   33096   33108       4   33051   33036   33042   33060       9
   33051   33048   33069   33081       4   33048   33033   33045   33063       4
   33048   33069  -33081   33063       4   33048   33069   33081   33099       4
   33045   33033   33048   33051       4   33045   33033   33048   33069       4
   33045   33063  -33081   33069       4   33045   33063   33081   33099       4
   33042   33030   33039   33054       4   33042   33036   33051   33048      10
   33042   33060  -33072   33054       4   33039   33030   33042   33060       4
   33039   33054  -33072   33060       4   33039   33054   33075   33093       6
   33039   33054   33075   33096       6   33036   33027   33033   33045      11
   33036   33027  -33033   33048      11   33036   33042   33030   33039       4
   33036   33042   33060   33072       4   33036   33051   33048   33069      12
   33033   33027   33036   33042      13   33033   33027  -33036   33051      13
   33033   33045   33063   33081       4   33033   33048  -33051   33036      12
   33033   33048  -33069   33081       4   33030   33024   33027   33033      10
   33030   33024  -33027   33036      10   33030   33039   33054   33072       4
   33030   33039   33054   33075       4   33030   33042   33036   33051       9
   33030   33042  -33060   33072       4   33027   33024   33030   33039      14
   33027   33024  -33030   33042      14   33027   33033   33045   33063       4
   33027   33033  -33048   33051       4   33027   33033   33048   33069       4
   33027   33036  -33042   33030      15   33027   33036   33042   33060      15
   33027   33036  -33051   33048      10   33024   33027   33033   33045       9
   33024   33027   33033   33048       9   33024   33027  -33036   33042      13
   33024   33027   33036   33051      13   33024   33030   33039   33054       4
   33024   33030  -33042   33036       4   33024   33030   33042   33060       4
   33363   33378   33381   33393       3   33354   33363   33378   33381       3
   33345   33354   33363   33378       3   33336   33345   33354   33363       3
   33324   33336   33345   33354       3   33306   33324   33336   33345       3
   33291   33306   33324   33336       3   33288   33267   33285   33294       4
   33288   33300  -33315   33294       4   33285   33267   33288   33300       4
   33285   33294  -33315   33300       4   33273   33291   33306   33324       5
   33267   33285   33294   33315       4   33267   33288  -33300   33315       4
   33264   33246   33267   33285       6   33264   33246   33267   33288       6
   33261   33273   33291   33306       7   33255   33273   33291   33306       7
   33252   33264   33246   33267       4   33246   33267   33285   33294       4
   33246   33267   33288   33300       4   33243   33228   33234   33252       9
   33243   33240   33261   33273       4   33240   33225   33237   33255       4
   33240   33261  -33273   33255       4   33240   33261   33273   33291       4
   33237   33225   33240   33243       4   33237   33225   33240   33261       4
   33237   33255  -33273   33261       4   33237   33255   33273   33291       4
   33234   33222   33231   33246       4   33234   33228   33243   33240      10
   33234   33252  -33264   33246       4   33231   33222   33234   33252       4
   33231   33246  -33264   33252       4   33231   33246   33267   33285       6
   33231   33246   33267   33288       6   33228   33219   33225   33237      11
   33228   33219  -33225   33240      11   33228   33234   33222   33231       4
   33228   33234   33252   33264       4   33228   33243   33240   33261      12
   33225   33219   33228   33234      13   33225   33219  -33228   33243      13
   33225   33237   33255   33273       4   33225   33240  -33243   33228      12
   33225   33240  -33261   33273       4   33222   33216   33219   33225      10
   33222   33216  -33219   33228      10   33222   33231   33246   33264       4
   33222   33231   33246   33267       4   33222   33234   33228   33243       9
   33222   33234  -33252   33264       4   33219   33216   33222   33231      14
   33219   33216  -33222   33234      14   33219   33225   33237   33255       4
   33219   33225  -33240   33243       4   33219   33225   33240   33261       4
   33219   33228  -33234   33222      15   33219   33228   33234   33252      15
   33219   33228  -33243   33240      10   33216   33219   33225   33237       9
   33216   33219   33225   33240       9   33216   33219  -33228   33234      13
   33216   33219   33228   33243      13   33216   33222   33231   33246       4
   33216   33222  -33234   33228       4   33216   33222   33234   33252       4
   33555   33570   33573   33585       3   33546   33555   33570   33573       3
   33537   33546   33555   33570       3   33528   33537   33546   33555       3
   33516   33528   33537   33546       3   33498   33516   33528   33537       3
   33483   33498   33516   33528       3   33480   33459   33477   33486       4
   33480   33492  -33507   33486       4   33477   33459   33480   33492       4
   33477   33486  -33507   33492       4   33465   33483   33498   33516       5
   33459   33477   33486   33507       4   33459   33480  -33492   33507       4
   33456   33438   33459   33477       6   33456   33438   33459   33480       6
   33453   33465   33483   33498       7   33447   33465   33483   33498       7
   33444   33456   33438   33459       4   33438   33459   33477   33486       4
   33438   33459   33480   33492       4   33435   33420   33426   33444       9
   33435   33432   33453   33465       4   33432   33417   33429   33447       4
   33432   33453  -33465   33447       4   33432   33453   33465   33483       4
   33429   33417   33432   33435       4   33429   33417   33432   33453       4
   33429   33447  -33465   33453       4   33429   33447   33465   33483       4
   33426   33414   33423   33438       4   33426   33420   33435   33432      10
   33426   33444  -33456   33438       4   33423   33414   33426   33444       4
   33423   33438  -33456   33444       4   33423   33438   33459   33477       6
   33423   33438   33459   33480       6   33420   33411   33417   33429      11
   33420   33411  -33417   33432      11   33420   33426   33414   33423       4
   33420   33426   33444   33456       4   33420   33435   33432   33453      12
   33417   33411   33420   33426      13   33417   33411  -33420   33435      13
   33417   33429   33447   33465       4   33417   33432  -33435   33420      12
   33417   33432  -33453   33465       4   33414   33408   33411   33417      10
   33414   33408  -33411   33420      10   33414   33423   33438   33456       4
   33414   33423   33438   33459       4   33414   33426   33420   33435       9
   33414   33426  -33444   33456       4   33411   33408   33414   33423      14
   33411   33408  -33414   33426      14   33411   33417   33429   33447       4
   33411   33417  -33432   33435       4   33411   33417   33432   33453       4
   33411   33420  -33426   33414      15   33411   33420   33426   33444      15
   33411   33420  -33435   33432      10   33408   33411   33417   33429       9
   33408   33411   33417   33432       9   33408   33411  -33420   33426      13
   33408   33411   33420   33435      13   33408   33414   33423   33438       4
   33408   33414  -33426   33420       4   33408   33414   33426   33444       4
   33747   33762   33765   33777       3   33738   33747   33762   33765       3
   33729   33738   33747   33762       3   33720   33729   33738   33747       3
   33708   33720   33729   33738       3   33690   33708   33720   33729       3
   33675   33690   33708   33720       3   33672   33651   33669   33678       4
   33672   33684  -33699   33678       4   33669   33651   33672   33684       4
   33669   33678  -33699   33684       4   33657   33675   33690   33708       5
   33651   33669   33678   33699       4   33651   33672  -33684   33699       4
   33648   33630   33651   33669       6   33648   33630   33651   33672       6
   33645   33657   33675   33690       7   33639   33657   33675   33690       7
   33636   33648   33630   33651       4   33630   33651   33669   33678       4
   33630   33651   33672   33684       4   33627   33612   33618   33636       9
   33627   33624   33645   33657       4   33624   33609   33621   33639       4
   33624   33645  -33657   33639       4   33624   33645   33657   33675       4
   33621   33609   33624   33627       4   33621   33609   33624   33645       4
   33621   33639  -33657   33645       4   33621   33639   33657   33675       4
   33618   33606   33615   33630       4   33618   33612   33627   33624      10
   33618   33636  -33648   33630       4   33615   33606   33618   33636       4
   33615   33630  -33648   33636       4   33615   33630   33651   33669       6
   33615   33630   33651   33672       6   33612   33603   33609   33621      11
   33612   33603  -33609   33624      11   33612   33618   33606   33615       4
   33612   33618   33636   33648       4   33612   33627   33624   33645      12
   33609   33603   33612   33618      13   33609   33603  -33612   33627      13
   33609   33621   33639   33657       4   33609   33624  -33627   33612      12
   33609   33624  -33645   33657       4   33606   33600   33603   33609      10
   33606   33600  -33603   33612      10   33606   33615   33630   33648       4
   33606   33615   33630   33651       4   33606   33618   33612   33627       9
   33606   33618  -33636   33648       4   33603   33600   33606   33615      14
   33603   33600  -33606   33618      14   33603   33609   33621   33639       4
   33603   33609  -33624   33627       4   33603   33609   33624   33645       4
   33603   33612  -33618   33606      15   33603   33612   33618   33636      15
   33603   33612  -33627   33624      10   33600   33603   33609   33621       9
   33600   33603   33609   33624       9   33600   33603  -33612   33618      13
   33600   33603   33612   33627      13   33600   33606   33615   33630       4
   33600   33606  -33618   33612       4   33600   33606   33618   33636       4
   33939   33954   33957   33969       3   33930   33939   33954   33957       3
   33921   33930   33939   33954       3   33912   33921   33930   33939       3
   33900   33912   33921   33930       3   33882   33900   33912   33921       3
   33867   33882   33900   33912       3   33864   33843   33861   33870       4
   33864   33876  -33891   33870       4   33861   33843   33864   33876       4
   33861   33870  -33891   33876       4   33849   33867   33882   33900       5
   33843   33861   33870   33891       4   33843   33864  -33876   33891       4
   33840   33822   33843   33861       6   33840   33822   33843   33864       6
   33837   33849   33867   33882       7   33831   33849   33867   33882       7
   33828   33840   33822   33843       4   33822   33843   33861   33870       4
   33822   33843   33864   33876       4   33819   33804   33810   33828       9
   33819   33816   33837   33849       4   33816   33801   33813   33831       4
   33816   33837  -33849   33831       4   33816   33837   33849   33867       4
   33813   33801   33816   33819       4   33813   33801   33816   33837       4
   33813   33831  -33849   33837       4   33813   33831   33849   33867       4
   33810   33798   33807   33822       4   33810   33804   33819   33816      10
   33810   33828  -33840   33822       4   33807   33798   33810   33828       4
   33807   33822  -33840   33828       4   33807   33822   33843   33861       6
   33807   33822   33843   33864       6   33804   33795   33801   33813      11
   33804   33795  -33801   33816      11   33804   33810   33798   33807       4
   33804   33810   33828   33840       4   33804   33819   33816   33837      12
   33801   33795   33804   33810      13   33801   33795  -33804   33819      13
   33801   33813   33831   33849       4   33801   33816  -33819   33804      12
   33801   33816  -33837   33849       4   33798   33792   33795   33801      10
   33798   33792  -33795   33804      10   33798   33807   33822   33840       4
   33798   33807   33822   33843       4   33798   33810   33804   33819       9
   33798   33810  -33828   33840       4   33795   33792   33798   33807      14
   33795   33792  -33798   33810      14   33795   33801   33813   33831       4
   33795   33801  -33816   33819       4   33795   33801   33816   33837       4
   33795   33804  -33810   33798      15   33795   33804   33810   33828      15
   33795   33804  -33819   33816      10   33792   33795   33801   33813       9
   33792   33795   33801   33816       9   33792   33795  -33804   33810      13
   33792   33795   33804   33819      13   33792   33798   33807   33822       4
   33792   33798  -33810   33804       4   33792   33798   33810   33828       4
   34131   34146   34149   34161       3   34122   34131   34146   34149       3
   34113   34122   34131   34146       3   34104   34113   34122   34131       3
   34092   34104   34113   34122       3   34074   34092   34104   34113       3
   34059   34074   34092   34104       3   34056   34035   34053   34062       4
   34056   34068  -34083   34062       4   34053   34035   34056   34068       4
   34053   34062  -34083   34068       4   34041   34059   34074   34092       5
   34035   34053   34062   34083       4   34035   34056  -34068   34083       4
   34032   34014   34035   34053       6   34032   34014   34035   34056       6
   34029   34041   34059   34074       7   34023   34041   34059   34074       7
   34020   34032   34014   34035       4   34014   34035   34053   34062       4
   34014   34035   34056   34068       4   34011   33996   34002   34020       9
   34011   34008   34029   34041       4   34008   33993   34005   34023       4
   34008   34029  -34041   34023       4   34008   34029   34041   34059       4
   34005   33993   34008   34011       4   34005   33993   34008   34029       4
   34005   34023  -34041   34029       4   34005   34023   34041   34059       4
   34002   33990   33999   34014       4   34002   33996   34011   34008      10
   34002   34020  -34032   34014       4   33999   33990   34002   34020       4
   33999   34014  -34032   34020       4   33999   34014   34035   34053       6
   33999   34014   34035   34056       6   33996   33987   33993   34005      11
   33996   33987  -33993   34008      11   33996   34002   33990   33999       4
   33996   34002   34020   34032       4   33996   34011   34008   34029      12
   33993   33987   33996   34002      13   33993   33987  -33996   34011      13
   33993   34005   34023   34041       4   33993   34008  -34011   33996      12
   33993   34008  -34029   34041       4   33990   33984   33987   33993      10
   33990   33984  -33987   33996      10   33990   33999   34014   34032       4
   33990   33999   34014   34035       4   33990   34002   33996   34011       9
   33990   34002  -34020   34032       4   33987   33984   33990   33999      14
   33987   33984  -33990   34002      14   33987   33993   34005   34023       4
   33987   33993  -34008   34011       4   33987   33993   34008   34029       4
   33987   33996  -34002   33990      15   33987   33996   34002   34020      15
   33987   33996  -34011   34008      10   33984   33987   33993   34005       9
   33984   33987   33993   34008       9   33984   33987  -33996   34002      13
   33984   33987   33996   34011      13   33984   33990   33999   34014       4
   33984   33990  -34002   33996       4   33984   33990   34002   34020       4
   34323   34338   34341   34353       3   34314   34323   34338   34341       3
   34305   34314   34323   34338       3   34296   34305   34314   34323       3
   34284   34296   34305   34314       3   34266   34284   34296   34305       3
   34251   34266   34284   34296       3   34248   34227   34245   34254       4
   34248   34260  -34275   34254       4   34245   34227   34248   34260       4
   34245   34254  -34275   34260       4   34233   34251   34266   34284       5
   34227   34245   34254   34275       4   34227   34248  -34260   34275       4
   34224   34206   34227   34245       6   34224   34206   34227   34248       6
   34221   34233   34251   34266       7   34215   34233   34251   34266       7
   34212   34224   34206   34227       4   34206   34227   34245   34254       4
   34206   34227   34248   34260       4   34203   34188   34194   34212       9
   34203   34200   34221   34233       4   34200   34185   34197   34215       4
   34200   34221  -34233   34215       4   34200   34221   34233   34251       4
   34197   34185   34200   34203       4   34197   34185   34200   34221       4
   34197   34215  -34233   34221       4   34197   34215   34233   34251       4
   34194   34182   34191   34206       4   34194   34188   34203   34200      10
   34194   34212  -34224   34206       4   34191   34182   34194   34212       4
   34191   34206  -34224   34212       4   34191   34206   34227   34245       6
   34191   34206   34227   34248       6   34188   34179   34185   34197      11
   34188   34179  -34185   34200      11   34188   34194   34182   34191       4
   34188   34194   34212   34224       4   34188   34203   34200   34221      12
   34185   34179   34188   34194      13   34185   34179  -34188   34203      13
   34185   34197   34215   34233       4   34185   34200  -34203   34188      12
   34185   34200  -34221   34233       4   34182   34176   34179   34185      10
   34182   34176  -34179   34188      10   34182   34191   34206   34224       4
   34182   34191   34206   34227       4   34182   34194   34188   34203       9
   34182   34194  -34212   34224       4   34179   34176   34182   34191      14
   34179   34176  -34182   34194      14   34179   34185   34197   34215       4
   34179   34185  -34200   34203       4   34179   34185   34200   34221       4
   34179   34188  -34194   34182      15   34179   34188   34194   34212      15
   34179   34188  -34203   34200      10   34176   34179   34185   34197       9
   34176   34179   34185   34200       9   34176   34179  -34188   34194      13
   34176   34179   34188   34203      13   34176   34182   34191   34206       4
   34176   34182  -34194   34188       4   34176   34182   34194   34212       4
   34515   34530   34533   34545       3   34506   34515   34530   34533       3
   34497   34506   34515   34530       3   34488   34497   34506   34515       3
   34476   34488   34497   34506       3   34458   34476   34488   34497       3
   34443   34458   34476   34488       3   34440   34419   34437   34446       4
   34440   34452  -34467   34446       4   34437   34419   34440   34452       4
   34437   34446  -34467   34452       4   34425   34443   34458   34476       5
   34419   34437   34446   34467       4   34419   34440  -34452   34467       4
   34416   34398   34419   34437       6   34416   34398   34419   34440       6
   34413   34425   34443   34458       7   34407   34425   34443   34458       7
   34404   34416   34398   34419       4   34398   34419   34437   34446       4
   34398   34419   34440   34452       4   34395   34380   34386   34404       9
   34395   34392   34413   34425       4   34392   34377   34389   34407       4
   34392   34413  -34425   34407       4   34392   34413   34425   34443       4
   34389   34377   34392   34395       4   34389   34377   34392   34413       4
   34389   34407  -34425   34413       4   34389   34407   34425   34443       4
   34386   34374   34383   34398       4   34386   34380   34395   34392      10
   34386   34404  -34416   34398       4   34383   34374   34386   34404       4
   34383   34398  -34416   34404       4   34383   34398   34419   34437       6
   34383   34398   34419   34440       6   34380   34371   34377   34389      11
   34380   34371  -34377   34392      11   34380   34386   34374   34383       4
   34380   34386   34404   34416       4   34380   34395   34392   34413      12
   34377   34371   34380   34386      13   34377   34371  -34380   34395      13
   34377   34389   34407   34425       4   34377   34392  -34395   34380      12
   34377   34392  -34413   34425       4   34374   34368   34371   34377      10
   34374   34368  -34371   34380      10   34374   34383   34398   34416       4
   34374   34383   34398   34419       4   34374   34386   34380   34395       9
   34374   34386  -34404   34416       4   34371   34368   34374   34383      14
   34371   34368  -34374   34386      14   34371   34377   34389   34407       4
   34371   34377  -34392   34395       4   34371   34377   34392   34413       4
   34371   34380  -34386   34374      15   34371   34380   34386   34404      15
   34371   34380  -34395   34392      10   34368   34371   34377   34389       9
   34368   34371   34377   34392       9   34368   34371  -34380   34386      13
   34368   34371   34380   34395      13   34368   34374   34383   34398       4
   34368   34374  -34386   34380       4   34368   34374   34386   34404       4
   34707   34722   34725   34737       3   34698   34707   34722   34725       3
   34689   34698   34707   34722       3   34680   34689   34698   34707       3
   34668   34680   34689   34698       3   34650   34668   34680   34689       3
   34635   34650   34668   34680       3   34632   34611   34629   34638       4
   34632   34644  -34659   34638       4   34629   34611   34632   34644       4
   34629   34638  -34659   34644       4   34617   34635   34650   34668       5
   34611   34629   34638   34659       4   34611   34632  -34644   34659       4
   34608   34590   34611   34629       6   34608   34590   34611   34632       6
   34605   34617   34635   34650       7   34599   34617   34635   34650       7
   34596   34608   34590   34611       4   34590   34611   34629   34638       4
   34590   34611   34632   34644       4   34587   34572   34578   34596       9
   34587   34584   34605   34617       4   34584   34569   34581   34599       4
   34584   34605  -34617   34599       4   34584   34605   34617   34635       4
   34581   34569   34584   34587       4   34581   34569   34584   34605       4
   34581   34599  -34617   34605       4   34581   34599   34617   34635       4
   34578   34566   34575   34590       4   34578   34572   34587   34584      10
   34578   34596  -34608   34590       4   34575   34566   34578   34596       4
   34575   34590  -34608   34596       4   34575   34590   34611   34629       6
   34575   34590   34611   34632       6   34572   34563   34569   34581      11
   34572   34563  -34569   34584      11   34572   34578   34566   34575       4
   34572   34578   34596   34608       4   34572   34587   34584   34605      12
   34569   34563   34572   34578      13   34569   34563  -34572   34587      13
   34569   34581   34599   34617       4   34569   34584  -34587   34572      12
   34569   34584  -34605   34617       4   34566   34560   34563   34569      10
   34566   34560  -34563   34572      10   34566   34575   34590   34608       4
   34566   34575   34590   34611       4   34566   34578   34572   34587       9
   34566   34578  -34596   34608       4   34563   34560   34566   34575      14
   34563   34560  -34566   34578      14   34563   34569   34581   34599       4
   34563   34569  -34584   34587       4   34563   34569   34584   34605       4
   34563   34572  -34578   34566      15   34563   34572   34578   34596      15
   34563   34572  -34587   34584      10   34560   34563   34569   34581       9
   34560   34563   34569   34584       9   34560   34563  -34572   34578      13
   34560   34563   34572   34587      13   34560   34566   34575   34590       4
   34560   34566  -34578   34572       4   34560   34566   34578   34596       4
   34899   34914   34917   34929       3   34890   34899   34914   34917       3
   34881   34890   34899   34914       3   34872   34881   34890   34899       3
   34860   34872   34881   34890       3   34842   34860   34872   34881       3
   34827   34842   34860   34872       3   34824   34803   34821   34830       4
   34824   34836  -34851   34830       4   34821   34803   34824   34836       4
   34821   34830  -34851   34836       4   34809   34827   34842   34860       5
   34803   34821   34830   34851       4   34803   34824  -34836   34851       4
   34800   34782   34803   34821       6   34800   34782   34803   34824       6
   34797   34809   34827   34842       7   34791   34809   34827   34842       7
   34788   34800   34782   34803       4   34782   34803   34821   34830       4
   34782   34803   34824   34836       4   34779   34764   34770   34788       9
   34779   34776   34797   34809       4   34776   34761   34773   34791       4
   34776   34797  -34809   34791       4   34776   34797   34809   34827       4
   34773   34761   34776   34779       4   34773   34761   34776   34797       4
   34773   34791  -34809   34797       4   34773   34791   34809   34827       4
   34770   34758   34767   34782       4   34770   34764   34779   34776      10
   34770   34788  -34800   34782       4   34767   34758   34770   34788       4
   34767   34782  -34800   34788       4   34767   34782   34803   34821       6
   34767   34782   34803   34824       6   34764   34755   34761   34773      11
   34764   34755  -34761   34776      11   34764   34770   34758   34767       4
   34764   34770   34788   34800       4   34764   34779   34776   34797      12
   34761   34755   34764   34770      13   34761   34755  -34764   34779      13
   34761   34773   34791   34809       4   34761   34776  -34779   34764      12
   34761   34776  -34797   34809       4   34758   34752   34755   34761      10
   34758   34752  -34755   34764      10   34758   34767   34782   34800       4
   34758   34767   34782   34803       4   34758   34770   34764   34779       9
   34758   34770  -34788   34800       4   34755   34752   34758   34767      14
   34755   34752  -34758   34770      14   34755   34761   34773   34791       4
   34755   34761  -34776   34779       4   34755   34761   34776   34797       4
   34755   34764  -34770   34758      15   34755   34764   34770   34788      15
   34755   34764  -34779   34776      10   34752   34755   34761   34773       9
   34752   34755   34761   34776       9   34752   34755  -34764   34770      13
   34752   34755   34764   34779      13   34752   34758   34767   34782       4
   34752   34758  -34770   34764       4   34752   34758   34770   34788       4
   35091   35106   35109   35121       3   35082   35091   35106   35109       3
   35073   35082   35091   35106       3   35064   35073   35082   35091       3
   35052   35064   35073   35082       3   35034   35052   35064   35073       3
   35019   35034   35052   35064       3   35016   34995   35013   35022       4
   35016   35028  -35043   35022       4   35013   34995   35016   35028       4
   35013   35022  -35043   35028       4   35001   35019   35034   35052       5
   34995   35013   35022   35043       4   34995   35016  -35028   35043       4
   34992   34974   34995   35013       6   34992   34974   34995   35016       6
   34989   35001   35019   35034       7   34983   35001   35019   35034       7
   34980   34992   34974   34995       4   34974   34995   35013   35022       4
   34974   34995   35016   35028       4   34971   34956   34962   34980       9
   34971   34968   34989   35001       4   34968   34953   34965   34983       4
   34968   34989  -35001   34983       4   34968   34989   35001   35019       4
   34965   34953   34968   34971       4   34965   34953   34968   34989       4
   34965   34983  -35001   34989       4   34965   34983   35001   35019       4
   34962   34950   34959   34974       4   34962   34956   34971   34968      10
   34962   34980  -34992   34974       4   34959   34950   34962   34980       4
   34959   34974  -34992   34980       4   34959   34974   34995   35013       6
   34959   34974   34995   35016       6   34956   34947   34953   34965      11
   34956   34947  -34953   34968      11   34956   34962   34950   34959       4
   34956   34962   34980   34992       4   34956   34971   34968   34989      12
   34953   34947   34956   34962      13   34953   34947  -34956   34971      13
   34953   34965   34983   35001       4   34953   34968  -34971   34956      12
   34953   34968  -34989   35001       4   34950   34944   34947   34953      10
   34950   34944  -34947   34956      10   34950   34959   34974   34992       4
   34950   34959   34974   34995       4   34950   34962   34956   34971       9
   34950   34962  -34980   34992       4   34947   34944   34950   34959      14
   34947   34944  -34950   34962      14   34947   34953   34965   34983       4
   34947   34953  -34968   34971       4   34947   34953   34968   34989       4
   34947   34956  -34962   34950      15   34947   34956   34962   34980      15
   34947   34956  -34971   34968      10   34944   34947   34953   34965       9
   34944   34947   34953   34968       9   34944   34947  -34956   34962      13
   34944   34947   34956   34971      13   34944   34950   34959   34974       4
   34944   34950  -34962   34956       4   34944   34950   34962   34980       4
   35283   35298   35301   35313       3   35274   35283   35298   35301       3
   35265   35274   35283   35298       3   35256   35265   35274   35283       3
   35244   35256   35265   35274       3   35226   35244   35256   35265       3
   35211   35226   35244   35256       3   35208   35187   35205   35214       4
   35208   35220  -35235   35214       4   35205   35187   35208   35220       4
   35205   35214  -35235   35220       4   35193   35211   35226   35244       5
   35187   35205   35214   35235       4   35187   35208  -35220   35235       4
   35184   35166   35187   35205       6   35184   35166   35187   35208       6
   35181   35193   35211   35226       7   35175   35193   35211   35226       7
   35172   35184   35166   35187       4   35166   35187   35205   35214       4
   35166   35187   35208   35220       4   35163   35148   35154   35172       9
   35163   35160   35181   35193       4   35160   35145   35157   35175       4
   35160   35181  -35193   35175       4   35160   35181   35193   35211       4
   35157   35145   35160   35163       4   35157   35145   35160   35181       4
   35157   35175  -35193   35181       4   35157   35175   35193   35211       4
   35154   35142   35151   35166       4   35154   35148   35163   35160      10
   35154   35172  -35184   35166       4   35151   35142   35154   35172       4
   35151   35166  -35184   35172       4   35151   35166   35187   35205       6
   35151   35166   35187   35208       6   35148   35139   35145   35157      11
   35148   35139  -35145   35160      11   35148   35154   35142   35151       4
   35148   35154   35172   35184       4   35148   35163   35160   35181      12
   35145   35139   35148   35154      13   35145   35139  -35148   35163      13
   35145   35157   35175   35193       4   35145   35160  -35163   35148      12
   35145   35160  -35181   35193       4   35142   35136   35139   35145      10
   35142   35136  -35139   35148      10   35142   35151   35166   35184       4
   35142   35151   35166   35187       4   35142   35154   35148   35163       9
   35142   35154  -35172   35184       4   35139   35136   35142   35151      14
   35139   35136  -35142   35154      14   35139   35145   35157   35175       4
   35139   35145  -35160   35163       4   35139   35145   35160   35181       4
   35139   35148  -35154   35142      15   35139   35148   35154   35172      15
   35139   35148  -35163   35160      10   35136   35139   35145   35157       9
   35136   35139   35145   35160       9   35136   35139  -35148   35154      13
   35136   35139   35148   35163      13   35136   35142   35151   35166       4
   35136   35142  -35154   35148       4   35136   35142   35154   35172       4
   35475   35490   35493   35505       3   35466   35475   35490   35493       3
   35457   35466   35475   35490       3   35448   35457   35466   35475       3
   35436   35448   35457   35466       3   35418   35436   35448   35457       3
   35403   35418   35436   35448       3   35400   35379   35397   35406       4
   35400   35412  -35427   35406       4   35397   35379   35400   35412       4
   35397   35406  -35427   35412       4   35385   35403   35418   35436       5
   35379   35397   35406   35427       4   35379   35400  -35412   35427       4
   35376   35358   35379   35397       6   35376   35358   35379   35400       6
   35373   35385   35403   35418       7   35367   35385   35403   35418       7
   35364   35376   35358   35379       4   35358   35379   35397   35406       4
   35358   35379   35400   35412       4   35355   35340   35346   35364       9
   35355   35352   35373   35385       4   35352   35337   35349   35367       4
   35352   35373  -35385   35367       4   35352   35373   35385   35403       4
   35349   35337   35352   35355       4   35349   35337   35352   35373       4
   35349   35367  -35385   35373       4   35349   35367   35385   35403       4
   35346   35334   35343   35358       4   35346   35340   35355   35352      10
   35346   35364  -35376   35358       4   35343   35334   35346   35364       4
   35343   35358  -35376   35364       4   35343   35358   35379   35397       6
   35343   35358   35379   35400       6   35340   35331   35337   35349      11
   35340   35331  -35337   35352      11   35340   35346   35334   35343       4
   35340   35346   35364   35376       4   35340   35355   35352   35373      12
   35337   35331   35340   35346      13   35337   35331  -35340   35355      13
   35337   35349   35367   35385       4   35337   35352  -35355   35340      12
   35337   35352  -35373   35385       4   35334   35328   35331   35337      10
   35334   35328  -35331   35340      10   35334   35343   35358   35376       4
   35334   35343   35358   35379       4   35334   35346   35340   35355       9
   35334   35346  -35364   35376       4   35331   35328   35334   35343      14
   35331   35328  -35334   35346      14   35331   35337   35349   35367       4
   35331   35337  -35352   35355       4   35331   35337   35352   35373       4
   35331   35340  -35346   35334      15   35331   35340   35346   35364      15
   35331   35340  -35355   35352      10   35328   35331   35337   35349       9
   35328   35331   35337   35352       9   35328   35331  -35340   35346      13
   35328   35331   35340   35355      13   35328   35334   35343   35358       4
   35328   35334  -35346   35340       4   35328   35334   35346   35364       4
   35667   35682   35685   35697       3   35658   35667   35682   35685       3
   35649   35658   35667   35682       3   35640   35649   35658   35667       3
   35628   35640   35649   35658       3   35610   35628   35640   35649       3
   35595   35610   35628   35640       3   35592   35571   35589   35598       4
   35592   35604  -35619   35598       4   35589   35571   35592   35604       4
   35589   35598  -35619   35604       4   35577   35595   35610   35628       5
   35571   35589   35598   35619       4   35571   35592  -35604   35619       4
   35568   35550   35571   35589       6   35568   35550   35571   35592       6
   35565   35577   35595   35610       7   35559   35577   35595   35610       7
   35556   35568   35550   35571       4   35550   35571   35589   35598       4
   35550   35571   35592   35604       4   35547   35532   35538   35556       9
   35547   35544   35565   35577       4   35544   35529   35541   35559       4
   35544   35565  -35577   35559       4   35544   35565   35577   35595       4
   35541   35529   35544   35547       4   35541   35529   35544   35565       4
   35541   35559  -35577   35565       4   35541   35559   35577   35595       4
   35538   35526   35535   35550       4   35538   35532   35547   35544      10
   35538   35556  -35568   35550       4   35535   35526   35538   35556       4
   35535   35550  -35568   35556       4   35535   35550   35571   35589       6
   35535   35550   35571   35592       6   35532   35523   35529   35541      11
   35532   35523  -35529   35544      11   35532   35538   35526   35535       4
   35532   35538   35556   35568       4   35532   35547   35544   35565      12
   35529   35523   35532   35538      13   35529   35523  -35532   35547      13
   35529   35541   35559   35577       4   35529   35544  -35547   35532      12
   35529   35544  -35565   35577       4   35526   35520   35523   35529      10
   35526   35520  -35523   35532      10   35526   35535   35550   35568       4
   35526   35535   35550   35571       4   35526   35538   35532   35547       9
   35526   35538  -35556   35568       4   35523   35520   35526   35535      14
   35523   35520  -35526   35538      14   35523   35529   35541   35559       4
   35523   35529  -35544   35547       4   35523   35529   35544   35565       4
   35523   35532  -35538   35526      15   35523   35532   35538   35556      15
   35523   35532  -35547   35544      10   35520   35523   35529   35541       9
   35520   35523   35529   35544       9   35520   35523  -35532   35538      13
   35520   35523   35532   35547      13   35520   35526   35535   35550       4
   35520   35526  -35538   35532       4   35520   35526   35538   35556       4
   35859   35874   35877   35889       3   35850   35859   35874   35877       3
   35841   35850   35859   35874       3   35832   35841   35850   35859       3
   35820   35832   35841   35850       3   35802   35820   35832   35841       3
   35787   35802   35820   35832       3   35784   35763   35781   35790       4
   35784   35796  -35811   35790       4   35781   35763   35784   35796       4
   35781   35790  -35811   35796       4   35769   35787   35802   35820       5
   35763   35781   35790   35811       4   35763   35784  -35796   35811       4
   35760   35742   35763   35781       6   35760   35742   35763   35784       6
   35757   35769   35787   35802       7   35751   35769   35787   35802       7
   35748   35760   35742   35763       4   35742   35763   35781   35790       4
   35742   35763   35784   35796       4   35739   35724   35730   35748       9
   35739   35736   35757   35769       4   35736   35721   35733   35751       4
   35736   35757  -35769   35751       4   35736   35757   35769   35787       4
   35733   35721   35736   35739       4   35733   35721   35736   35757       4
   35733   35751  -35769   35757       4   35733   35751   35769   35787       4
   35730   35718   35727   35742       4   35730   35724   35739   35736      10
   35730   35748  -35760   35742       4   35727   35718   35730   35748       4
   35727   35742  -35760   35748       4   35727   35742   35763   35781       6
   35727   35742   35763   35784       6   35724   35715   35721   35733      11
   35724   35715  -35721   35736      11   35724   35730   35718   35727       4
   35724   35730   35748   35760       4   35724   35739   35736   35757      12
   35721   35715   35724   35730      13   35721   35715  -35724   35739      13
   35721   35733   35751   35769       4   35721   35736  -35739   35724      12
   35721   35736  -35757   35769       4   35718   35712   35715   35721      10
   35718   35712  -35715   35724      10   35718   35727   35742   35760       4
   35718   35727   35742   35763       4   35718   35730   35724   35739       9
   35718   35730  -35748   35760       4   35715   35712   35718   35727      14
   35715   35712  -35718   35730      14   35715   35721   35733   35751       4
   35715   35721  -35736   35739       4   35715   35721   35736   35757       4
   35715   35724  -35730   35718      15   35715   35724   35730   35748      15
   35715   35724  -35739   35736      10   35712   35715   35721   35733       9
   35712   35715   35721   35736       9   35712   35715  -35724   35730      13
   35712   35715   35724   35739      13   35712   35718   35727   35742       4
   35712   35718  -35730   35724       4   35712   35718   35730   35748       4
   36051   36066   36069   36081       3   36042   36051   36066   36069       3
   36033   36042   36051   36066       3   36024   36033   36042   36051       3
   36012   36024   36033   36042       3   35994   36012   36024   36033       3
   35979   35994   36012   36024       3   35976   35955   35973   35982       4
   35976   35988  -36003   35982       4   35973   35955   35976   35988       4
   35973   35982  -36003   35988       4   35961   35979   35994   36012       5
   35955   35973   35982   36003       4   35955   35976  -35988   36003       4
   35952   35934   35955   35973       6   35952   35934   35955   35976       6
   35949   35961   35979   35994       7   35943   35961   35979   35994       7
   35940   35952   35934   35955       4   35934   35955   35973   35982       4
   35934   35955   35976   35988       4   35931   35916   35922   35940       9
   35931   35928   35949   35961       4   35928   35913   35925   35943       4
   35928   35949  -35961   35943       4   35928   35949   35961   35979       4
   35925   35913   35928   35931       4   35925   35913   35928   35949       4
   35925   35943  -35961   35949       4   35925   35943   35961   35979       4
   35922   35910   35919   35934       4   35922   35916   35931   35928      10
   35922   35940  -35952   35934       4   35919   35910   35922   35940       4
   35919   35934  -35952   35940       4   35919   35934   35955   35973       6
   35919   35934   35955   35976       6   35916   35907   35913   35925      11
   35916   35907  -35913   35928      11   35916   35922   35910   35919       4
   35916   35922   35940   35952       4   35916   35931   35928   35949      12
   35913   35907   35916   35922      13   35913   35907  -35916   35931      13
   35913   35925   35943   35961       4   35913   35928  -35931   35916      12
   35913   35928  -35949   35961       4   35910   35904   35907   35913      10
   35910   35904  -35907   35916      10   35910   35919   35934   35952       4
   35910   35919   35934   35955       4   35910   35922   35916   35931       9
   35910   35922  -35940   35952       4   35907   35904   35910   35919      14
   35907   35904  -35910   35922      14   35907   35913   35925   35943       4
   35907   35913  -35928   35931       4   35907   35913   35928   35949       4
   35907   35916  -35922   35910      15   35907   35916   35922   35940      15
   35907   35916  -35931   35928      10   35904   35907   35913   35925       9
   35904   35907   35913   35928       9   35904   35907  -35916   35922      13
   35904   35907   35916   35931      13   35904   35910   35919   35934       4
   35904   35910  -35922   35916       4   35904   35910   35922   35940       4
   36243   36258   36261   36273       3   36234   36243   36258   36261       3
   36225   36234   36243   36258       3   36216   36225   36234   36243       3
   36204   36216   36225   36234       3   36186   36204   36216   36225       3
   36171   36186   36204   36216       3   36168   36147   36165   36174       4
   36168   36180  -36195   36174       4   36165   36147   36168   36180       4
   36165   36174  -36195   36180       4   36153   36171   36186   36204       5
   36147   36165   36174   36195       4   36147   36168  -36180   36195       4
   36144   36126   36147   36165       6   36144   36126   36147   36168       6
   36141   36153   36171   36186       7   36135   36153   36171   36186       7
   36132   36144   36126   36147       4   36126   36147   36165   36174       4
   36126   36147   36168   36180       4   36123   36108   36114   36132       9
   36123   36120   36141   36153       4   36120   36105   36117   36135       4
   36120   36141  -36153   36135       4   36120   36141   36153   36171       4
   36117   36105   36120   36123       4   36117   36105   36120   36141       4
   36117   36135  -36153   36141       4   36117   36135   36153   36171       4
   36114   36102   36111   36126       4   36114   36108   36123   36120      10
   36114   36132  -36144   36126       4   36111   36102   36114   36132       4
   36111   36126  -36144   36132       4   36111   36126   36147   36165       6
   36111   36126   36147   36168       6   36108   36099   36105   36117      11
   36108   36099  -36105   36120      11   36108   36114   36102   36111       4
   36108   36114   36132   36144       4   36108   36123   36120   36141      12
   36105   36099   36108   36114      13   36105   36099  -36108   36123      13
   36105   36117   36135   36153       4   36105   36120  -36123   36108      12
   36105   36120  -36141   36153       4   36102   36096   36099   36105      10
   36102   36096  -36099   36108      10   36102   36111   36126   36144       4
   36102   36111   36126   36147       4   36102   36114   36108   36123       9
   36102   36114  -36132   36144       4   36099   36096   36102   36111      14
   36099   36096  -36102   36114      14   36099   36105   36117   36135       4
   36099   36105  -36120   36123       4   36099   36105   36120   36141       4
   36099   36108  -36114   36102      15   36099   36108   36114   36132      15
   36099   36108  -36123   36120      10   36096   36099   36105   36117       9
   36096   36099   36105   36120       9   36096   36099  -36108   36114      13
   36096   36099   36108   36123      13   36096   36102   36111   36126       4
   36096   36102  -36114   36108       4   36096   36102   36114   36132       4
   36435   36450   36453   36465       3   36426   36435   36450   36453       3
   36417   36426   36435   36450       3   36408   36417   36426   36435       3
   36396   36408   36417   36426       3   36378   36396   36408   36417       3
   36363   36378   36396   36408       3   36360   36339   36357   36366       4
   36360   36372  -36387   36366       4   36357   36339   36360   36372       4
   36357   36366  -36387   36372       4   36345   36363   36378   36396       5
   36339   36357   36366   36387       4   36339   36360  -36372   36387       4
   36336   36318   36339   36357       6   36336   36318   36339   36360       6
   36333   36345   36363   36378       7   36327   36345   36363   36378       7
   36324   36336   36318   36339       4   36318   36339   36357   36366       4
   36318   36339   36360   36372       4   36315   36300   36306   36324       9
   36315   36312   36333   36345       4   36312   36297   36309   36327       4
   36312   36333  -36345   36327       4   36312   36333   36345   36363       4
   36309   36297   36312   36315       4   36309   36297   36312   36333       4
   36309   36327  -36345   36333       4   36309   36327   36345   36363       4
   36306   36294   36303   36318       4   36306   36300   36315   36312      10
   36306   36324  -36336   36318       4   36303   36294   36306   36324       4
   36303   36318  -36336   36324       4   36303   36318   36339   36357       6
   36303   36318   36339   36360       6   36300   36291   36297   36309      11
   36300   36291  -36297   36312      11   36300   36306   36294   36303       4
   36300   36306   36324   36336       4   36300   36315   36312   36333      12
   36297   36291   36300   36306      13   36297   36291  -36300   36315      13
   36297   36309   36327   36345       4   36297   36312  -36315   36300      12
   36297   36312  -36333   36345       4   36294   36288   36291   36297      10
   36294   36288  -36291   36300      10   36294   36303   36318   36336       4
   36294   36303   36318   36339       4   36294   36306   36300   36315       9
   36294   36306  -36324   36336       4   36291   36288   36294   36303      14
   36291   36288  -36294   36306      14   36291   36297   36309   36327       4
   36291   36297  -36312   36315       4   36291   36297   36312   36333       4
   36291   36300  -36306   36294      15   36291   36300   36306   36324      15
   36291   36300  -36315   36312      10   36288   36291   36297   36309       9
   36288   36291   36297   36312       9   36288   36291  -36300   36306      13
   36288   36291   36300   36315      13   36288   36294   36303   36318       4
   36288   36294  -36306   36300       4   36288   36294   36306   36324       4
   36627   36642   36645   36657       3   36618   36627   36642   36645       3
   36609   36618   36627   36642       3   36600   36609   36618   36627       3
   36588   36600   36609   36618       3   36570   36588   36600   36609       3
   36555   36570   36588   36600       3   36552   36531   36549   36558       4
   36552   36564  -36579   36558       4   36549   36531   36552   36564       4
   36549   36558  -36579   36564       4   36537   36555   36570   36588       5
   36531   36549   36558   36579       4   36531   36552  -36564   36579       4
   36528   36510   36531   36549       6   36528   36510   36531   36552       6
   36525   36537   36555   36570       7   36519   36537   36555   36570       7
   36516   36528   36510   36531       4   36510   36531   36549   36558       4
   36510   36531   36552   36564       4   36507   36492   36498   36516       9
   36507   36504   36525   36537       4   36504   36489   36501   36519       4
   36504   36525  -36537   36519       4   36504   36525   36537   36555       4
   36501   36489   36504   36507       4   36501   36489   36504   36525       4
   36501   36519  -36537   36525       4   36501   36519   36537   36555       4
   36498   36486   36495   36510       4   36498   36492   36507   36504      10
   36498   36516  -36528   36510       4   36495   36486   36498   36516       4
   36495   36510  -36528   36516       4   36495   36510   36531   36549       6
   36495   36510   36531   36552       6   36492   36483   36489   36501      11
   36492   36483  -36489   36504      11   36492   36498   36486   36495       4
   36492   36498   36516   36528       4   36492   36507   36504   36525      12
   36489   36483   36492   36498      13   36489   36483  -36492   36507      13
   36489   36501   36519   36537       4   36489   36504  -36507   36492      12
   36489   36504  -36525   36537       4   36486   36480   36483   36489      10
   36486   36480  -36483   36492      10   36486   36495   36510   36528       4
   36486   36495   36510   36531       4   36486   36498   36492   36507       9
   36486   36498  -36516   36528       4   36483   36480   36486   36495      14
   36483   36480  -36486   36498      14   36483   36489   36501   36519       4
   36483   36489  -36504   36507       4   36483   36489   36504   36525       4
   36483   36492  -36498   36486      15   36483   36492   36498   36516      15
   36483   36492  -36507   36504      10   36480   36483   36489   36501       9
   36480   36483   36489   36504       9   36480   36483  -36492   36498      13
   36480   36483   36492   36507      13   36480   36486   36495   36510       4
   36480   36486  -36498   36492       4   36480   36486   36498   36516       4
   36819   36834   36837   36849       3   36810   36819   36834   36837       3
   36801   36810   36819   36834       3   36792   36801   36810   36819       3
   36780   36792   36801   36810       3   36762   36780   36792   36801       3
   36747   36762   36780   36792       3   36744   36723   36741   36750       4
   36744   36756  -36771   36750       4   36741   36723   36744   36756       4
   36741   36750  -36771   36756       4   36729   36747   36762   36780       5
   36723   36741   36750   36771       4   36723   36744  -36756   36771       4
   36720   36702   36723   36741       6   36720   36702   36723   36744       6
   36717   36729   36747   36762       7   36711   36729   36747   36762       7
   36708   36720   36702   36723       4   36702   36723   36741   36750       4
   36702   36723   36744   36756       4   36699   36684   36690   36708       9
   36699   36696   36717   36729       4   36696   36681   36693   36711       4
   36696   36717  -36729   36711       4   36696   36717   36729   36747       4
   36693   36681   36696   36699       4   36693   36681   36696   36717       4
   36693   36711  -36729   36717       4   36693   36711   36729   36747       4
   36690   36678   36687   36702       4   36690   36684   36699   36696      10
   36690   36708  -36720   36702       4   36687   36678   36690   36708       4
   36687   36702  -36720   36708       4   36687   36702   36723   36741       6
   36687   36702   36723   36744       6   36684   36675   36681   36693      11
   36684   36675  -36681   36696      11   36684   36690   36678   36687       4
   36684   36690   36708   36720       4   36684   36699   36696   36717      12
   36681   36675   36684   36690      13   36681   36675  -36684   36699      13
   36681   36693   36711   36729       4   36681   36696  -36699   36684      12
   36681   36696  -36717   36729       4   36678   36672   36675   36681      10
   36678   36672  -36675   36684      10   36678   36687   36702   36720       4
   36678   36687   36702   36723       4   36678   36690   36684   36699       9
   36678   36690  -36708   36720       4   36675   36672   36678   36687      14
   36675   36672  -36678   36690      14   36675   36681   36693   36711       4
   36675   36681  -36696   36699       4   36675   36681   36696   36717       4
   36675   36684  -36690   36678      15   36675   36684   36690   36708      15
   36675   36684  -36699   36696      10   36672   36675   36681   36693       9
   36672   36675   36681   36696       9   36672   36675  -36684   36690      13
   36672   36675   36684   36699      13   36672   36678   36687   36702       4
   36672   36678  -36690   36684       4   36672   36678   36690   36708       4
   37011   37026   37029   37041       3   37002   37011   37026   37029       3
   36993   37002   37011   37026       3   36984   36993   37002   37011       3
   36972   36984   36993   37002       3   36954   36972   36984   36993       3
   36939   36954   36972   36984       3   36936   36915   36933   36942       4
   36936   36948  -36963   36942       4   36933   36915   36936   36948       4
   36933   36942  -36963   36948       4   36921   36939   36954   36972       5
   36915   36933   36942   36963       4   36915   36936  -36948   36963       4
   36912   36894   36915   36933       6   36912   36894   36915   36936       6
   36909   36921   36939   36954       7   36903   36921   36939   36954       7
   36900   36912   36894   36915       4   36894   36915   36933   36942       4
   36894   36915   36936   36948       4   36891   36876   36882   36900       9
   36891   36888   36909   36921       4   36888   36873   36885   36903       4
   36888   36909  -36921   36903       4   36888   36909   36921   36939       4
   36885   36873   36888   36891       4   36885   36873   36888   36909       4
   36885   36903  -36921   36909       4   36885   36903   36921   36939       4
   36882   36870   36879   36894       4   36882   36876   36891   36888      10
   36882   36900  -36912   36894       4   36879   36870   36882   36900       4
   36879   36894  -36912   36900       4   36879   36894   36915   36933       6
   36879   36894   36915   36936       6   36876   36867   36873   36885      11
   36876   36867  -36873   36888      11   36876   36882   36870   36879       4
   36876   36882   36900   36912       4   36876   36891   36888   36909      12
   36873   36867   36876   36882      13   36873   36867  -36876   36891      13
   36873   36885   36903   36921       4   36873   36888  -36891   36876      12
   36873   36888  -36909   36921       4   36870   36864   36867   36873      10
   36870   36864  -36867   36876      10   36870   36879   36894   36912       4
   36870   36879   36894   36915       4   36870   36882   36876   36891       9
   36870   36882  -36900   36912       4   36867   36864   36870   36879      14
   36867   36864  -36870   36882      14   36867   36873   36885   36903       4
   36867   36873  -36888   36891       4   36867   36873   36888   36909       4
   36867   36876  -36882   36870      15   36867   36876   36882   36900      15
   36867   36876  -36891   36888      10   36864   36867   36873   36885       9
   36864   36867   36873   36888       9   36864   36867  -36876   36882      13
   36864   36867   36876   36891      13   36864   36870   36879   36894       4
   36864   36870  -36882   36876       4   36864   36870   36882   36900       4
   37203   37218   37221   37233       3   37194   37203   37218   37221       3
   37185   37194   37203   37218       3   37176   37185   37194   37203       3
   37164   37176   37185   37194       3   37146   37164   37176   37185       3
   37131   37146   37164   37176       3   37128   37107   37125   37134       4
   37128   37140  -37155   37134       4   37125   37107   37128   37140       4
   37125   37134  -37155   37140       4   37113   37131   37146   37164       5
   37107   37125   37134   37155       4   37107   37128  -37140   37155       4
   37104   37086   37107   37125       6   37104   37086   37107   37128       6
   37101   37113   37131   37146       7   37095   37113   37131   37146       7
   37092   37104   37086   37107       4   37086   37107   37125   37134       4
   37086   37107   37128   37140       4   37083   37068   37074   37092       9
   37083   37080   37101   37113       4   37080   37065   37077   37095       4
   37080   37101  -37113   37095       4   37080   37101   37113   37131       4
   37077   37065   37080   37083       4   37077   37065   37080   37101       4
   37077   37095  -37113   37101       4   37077   37095   37113   37131       4
   37074   37062   37071   37086       4   37074   37068   37083   37080      10
   37074   37092  -37104   37086       4   37071   37062   37074   37092       4
   37071   37086  -37104   37092       4   37071   37086   37107   37125       6
   37071   37086   37107   37128       6   37068   37059   37065   37077      11
   37068   37059  -37065   37080      11   37068   37074   37062   37071       4
   37068   37074   37092   37104       4   37068   37083   37080   37101      12
   37065   37059   37068   37074      13   37065   37059  -37068   37083      13
   37065   37077   37095   37113       4   37065   37080  -37083   37068      12
   37065   37080  -37101   37113       4   37062   37056   37059   37065      10
   37062   37056  -37059   37068      10   37062   37071   37086   37104       4
   37062   37071   37086   37107       4   37062   37074   37068   37083       9
   37062   37074  -37092   37104       4   37059   37056   37062   37071      14
   37059   37056  -37062   37074      14   37059   37065   37077   37095       4
   37059   37065  -37080   37083       4   37059   37065   37080   37101       4
   37059   37068  -37074   37062      15   37059   37068   37074   37092      15
   37059   37068  -37083   37080      10   37056   37059   37065   37077       9
   37056   37059   37065   37080       9   37056   37059  -37068   37074      13
   37056   37059   37068   37083      13   37056   37062   37071   37086       4
   37056   37062  -37074   37068       4   37056   37062   37074   37092       4
   37395   37410   37413   37425       3   37386   37395   37410   37413       3
   37377   37386   37395   37410       3   37368   37377   37386   37395       3
   37356   37368   37377   37386       3   37338   37356   37368   37377       3
   37323   37338   37356   37368       3   37320   37299   37317   37326       4
   37320   37332  -37347   37326       4   37317   37299   37320   37332       4
   37317   37326  -37347   37332       4   37305   37323   37338   37356       5
   37299   37317   37326   37347       4   37299   37320  -37332   37347       4
   37296   37278   37299   37317       6   37296   37278   37299   37320       6
   37293   37305   37323   37338       7   37287   37305   37323   37338       7
   37284   37296   37278   37299       4   37278   37299   37317   37326       4
   37278   37299   37320   37332       4   37275   37260   37266   37284       9
   37275   37272   37293   37305       4   37272   37257   37269   37287       4
   37272   37293  -37305   37287       4   37272   37293   37305   37323       4
   37269   37257   37272   37275       4   37269   37257   37272   37293       4
   37269   37287  -37305   37293       4   37269   37287   37305   37323       4
   37266   37254   37263   37278       4   37266   37260   37275   37272      10
   37266   37284  -37296   37278       4   37263   37254   37266   37284       4
   37263   37278  -37296   37284       4   37263   37278   37299   37317       6
   37263   37278   37299   37320       6   37260   37251   37257   37269      11
   37260   37251  -37257   37272      11   37260   37266   37254   37263       4
   37260   37266   37284   37296       4   37260   37275   37272   37293      12
   37257   37251   37260   37266      13   37257   37251  -37260   37275      13
   37257   37269   37287   37305       4   37257   37272  -37275   37260      12
   37257   37272  -37293   37305       4   37254   37248   37251   37257      10
   37254   37248  -37251   37260      10   37254   37263   37278   37296       4
   37254   37263   37278   37299       4   37254   37266   37260   37275       9
   37254   37266  -37284   37296       4   37251   37248   37254   37263      14
   37251   37248  -37254   37266      14   37251   37257   37269   37287       4
   37251   37257  -37272   37275       4   37251   37257   37272   37293       4
   37251   37260  -37266   37254      15   37251   37260   37266   37284      15
   37251   37260  -37275   37272      10   37248   37251   37257   37269       9
   37248   37251   37257   37272       9   37248   37251  -37260   37266      13
   37248   37251   37260   37275      13   37248   37254   37263   37278       4
   37248   37254  -37266   37260       4   37248   37254   37266   37284       4
   37587   37602   37605   37617       3   37578   37587   37602   37605       3
   37569   37578   37587   37602       3   37560   37569   37578   37587       3
   37548   37560   37569   37578       3   37530   37548   37560   37569       3
   37515   37530   37548   37560       3   37512   37491   37509   37518       4
   37512   37524  -37539   37518       4   37509   37491   37512   37524       4
   37509   37518  -37539   37524       4   37497   37515   37530   37548       5
   37491   37509   37518   37539       4   37491   37512  -37524   37539       4
   37488   37470   37491   37509       6   37488   37470   37491   37512       6
   37485   37497   37515   37530       7   37479   37497   37515   37530       7
   37476   37488   37470   37491       4   37470   37491   37509   37518       4
   37470   37491   37512   37524       4   37467   37452   37458   37476       9
   37467   37464   37485   37497       4   37464   37449   37461   37479       4
   37464   37485  -37497   37479       4   37464   37485   37497   37515       4
   37461   37449   37464   37467       4   37461   37449   37464   37485       4
   37461   37479  -37497   37485       4   37461   37479   37497   37515       4
   37458   37446   37455   37470       4   37458   37452   37467   37464      10
   37458   37476  -37488   37470       4   37455   37446   37458   37476       4
   37455   37470  -37488   37476       4   37455   37470   37491   37509       6
   37455   37470   37491   37512       6   37452   37443   37449   37461      11
   37452   37443  -37449   37464      11   37452   37458   37446   37455       4
   37452   37458   37476   37488       4   37452   37467   37464   37485      12
   37449   37443   37452   37458      13   37449   37443  -37452   37467      13
   37449   37461   37479   37497       4   37449   37464  -37467   37452      12
   37449   37464  -37485   37497       4   37446   37440   37443   37449      10
   37446   37440  -37443   37452      10   37446   37455   37470   37488       4
   37446   37455   37470   37491       4   37446   37458   37452   37467       9
   37446   37458  -37476   37488       4   37443   37440   37446   37455      14
   37443   37440  -37446   37458      14   37443   37449   37461   37479       4
   37443   37449  -37464   37467       4   37443   37449   37464   37485       4
   37443   37452  -37458   37446      15   37443   37452   37458   37476      15
   37443   37452  -37467   37464      10   37440   37443   37449   37461       9
   37440   37443   37449   37464       9   37440   37443  -37452   37458      13
   37440   37443   37452   37467      13   37440   37446   37455   37470       4
   37440   37446  -37458   37452       4   37440   37446   37458   37476       4
   37779   37794   37797   37809       3   37770   37779   37794   37797       3
   37761   37770   37779   37794       3   37752   37761   37770   37779       3
   37740   37752   37761   37770       3   37722   37740   37752   37761       3
   37707   37722   37740   37752       3   37704   37683   37701   37710       4
   37704   37716  -37731   37710       4   37701   37683   37704   37716       4
   37701   37710  -37731   37716       4   37689   37707   37722   37740       5
   37683   37701   37710   37731       4   37683   37704  -37716   37731       4
   37680   37662   37683   37701       6   37680   37662   37683   37704       6
   37677   37689   37707   37722       7   37671   37689   37707   37722       7
   37668   37680   37662   37683       4   37662   37683   37701   37710       4
   37662   37683   37704   37716       4   37659   37644   37650   37668       9
   37659   37656   37677   37689       4   37656   37641   37653   37671       4
   37656   37677  -37689   37671       4   37656   37677   37689   37707       4
   37653   37641   37656   37659       4   37653   37641   37656   37677       4
   37653   37671  -37689   37677       4   37653   37671   37689   37707       4
   37650   37638   37647   37662       4   37650   37644   37659   37656      10
   37650   37668  -37680   37662       4   37647   37638   37650   37668       4
   37647   37662  -37680   37668       4   37647   37662   37683   37701       6
   37647   37662   37683   37704       6   37644   37635   37641   37653      11
   37644   37635  -37641   37656      11   37644   37650   37638   37647       4
   37644   37650   37668   37680       4   37644   37659   37656   37677      12
   37641   37635   37644   37650      13   37641   37635  -37644   37659      13
   37641   37653   37671   37689       4   37641   37656  -37659   37644      12
   37641   37656  -37677   37689       4   37638   37632   37635   37641      10
   37638   37632  -37635   37644      10   37638   37647   37662   37680       4
   37638   37647   37662   37683       4   37638   37650   37644   37659       9
   37638   37650  -37668   37680       4   37635   37632   37638   37647      14
   37635   37632  -37638   37650      14   37635   37641   37653   37671       4
   37635   37641  -37656   37659       4   37635   37641   37656   37677       4
   37635   37644  -37650   37638      15   37635   37644   37650   37668      15
   37635   37644  -37659   37656      10   37632   37635   37641   37653       9
   37632   37635   37641   37656       9   37632   37635  -37644   37650      13
   37632   37635   37644   37659      13   37632   37638   37647   37662       4
   37632   37638  -37650   37644       4   37632   37638   37650   37668       4
   37971   37986   37989   38001       3   37962   37971   37986   37989       3
   37953   37962   37971   37986       3   37944   37953   37962   37971       3
   37932   37944   37953   37962       3   37914   37932   37944   37953       3
   37899   37914   37932   37944       3   37896   37875   37893   37902       4
   37896   37908  -37923   37902       4   37893   37875   37896   37908       4
   37893   37902  -37923   37908       4   37881   37899   37914   37932       5
   37875   37893   37902   37923       4   37875   37896  -37908   37923       4
   37872   37854   37875   37893       6   37872   37854   37875   37896       6
   37869   37881   37899   37914       7   37863   37881   37899   37914       7
   37860   37872   37854   37875       4   37854   37875   37893   37902       4
   37854   37875   37896   37908       4   37851   37836   37842   37860       9
   37851   37848   37869   37881       4   37848   37833   37845   37863       4
   37848   37869  -37881   37863       4   37848   37869   37881   37899       4
   37845   37833   37848   37851       4   37845   37833   37848   37869       4
   37845   37863  -37881   37869       4   37845   37863   37881   37899       4
   37842   37830   37839   37854       4   37842   37836   37851   37848      10
   37842   37860  -37872   37854       4   37839   37830   37842   37860       4
   37839   37854  -37872   37860       4   37839   37854   37875   37893       6
   37839   37854   37875   37896       6   37836   37827   37833   37845      11
   37836   37827  -37833   37848      11   37836   37842   37830   37839       4
   37836   37842   37860   37872       4   37836   37851   37848   37869      12
   37833   37827   37836   37842      13   37833   37827  -37836   37851      13
   37833   37845   37863   37881       4   37833   37848  -37851   37836      12
   37833   37848  -37869   37881       4   37830   37824   37827   37833      10
   37830   37824  -37827   37836      10   37830   37839   37854   37872       4
   37830   37839   37854   37875       4   37830   37842   37836   37851       9
   37830   37842  -37860   37872       4   37827   37824   37830   37839      14
   37827   37824  -37830   37842      14   37827   37833   37845   37863       4
   37827   37833  -37848   37851       4   37827   37833   37848   37869       4
   37827   37836  -37842   37830      15   37827   37836   37842   37860      15
   37827   37836  -37851   37848      10   37824   37827   37833   37845       9
   37824   37827   37833   37848       9   37824   37827  -37836   37842      13
   37824   37827   37836   37851      13   37824   37830   37839   37854       4
   37824   37830  -37842   37836       4   37824   37830   37842   37860       4
   38163   38178   38181   38193       3   38154   38163   38178   38181       3
   38145   38154   38163   38178       3   38136   38145   38154   38163       3
   38124   38136   38145   38154       3   38106   38124   38136   38145       3
   38091   38106   38124   38136       3   38088   38067   38085   38094       4
   38088   38100  -38115   38094       4   38085   38067   38088   38100       4
   38085   38094  -38115   38100       4   38073   38091   38106   38124       5
   38067   38085   38094   38115       4   38067   38088  -38100   38115       4
   38064   38046   38067   38085       6   38064   38046   38067   38088       6
   38061   38073   38091   38106       7   38055   38073   38091   38106       7
   38052   38064   38046   38067       4   38046   38067   38085   38094       4
   38046   38067   38088   38100       4   38043   38028   38034   38052       9
   38043   38040   38061   38073       4   38040   38025   38037   38055       4
   38040   38061  -38073   38055       4   38040   38061   38073   38091       4
   38037   38025   38040   38043       4   38037   38025   38040   38061       4
   38037   38055  -38073   38061       4   38037   38055   38073   38091       4
   38034   38022   38031   38046       4   38034   38028   38043   38040      10
   38034   38052  -38064   38046       4   38031   38022   38034   38052       4
   38031   38046  -38064   38052       4   38031   38046   38067   38085       6
   38031   38046   38067   38088       6   38028   38019   38025   38037      11
   38028   38019  -38025   38040      11   38028   38034   38022   38031       4
   38028   38034   38052   38064       4   38028   38043   38040   38061      12
   38025   38019   38028   38034      13   38025   38019  -38028   38043      13
   38025   38037   38055   38073       4   38025   38040  -38043   38028      12
   38025   38040  -38061   38073       4   38022   38016   38019   38025      10
   38022   38016  -38019   38028      10   38022   38031   38046   38064       4
   38022   38031   38046   38067       4   38022   38034   38028   38043       9
   38022   38034  -38052   38064       4   38019   38016   38022   38031      14
   38019   38016  -38022   38034      14   38019   38025   38037   38055       4
   38019   38025  -38040   38043       4   38019   38025   38040   38061       4
   38019   38028  -38034   38022      15   38019   38028   38034   38052      15
   38019   38028  -38043   38040      10   38016   38019   38025   38037       9
   38016   38019   38025   38040       9   38016   38019  -38028   38034      13
   38016   38019   38028   38043      13   38016   38022   38031   38046       4
   38016   38022  -38034   38028       4   38016   38022   38034   38052       4
   38355   38370   38373   38385       3   38346   38355   38370   38373       3
   38337   38346   38355   38370       3   38328   38337   38346   38355       3
   38316   38328   38337   38346       3   38298   38316   38328   38337       3
   38283   38298   38316   38328       3   38280   38259   38277   38286       4
   38280   38292  -38307   38286       4   38277   38259   38280   38292       4
   38277   38286  -38307   38292       4   38265   38283   38298   38316       5
   38259   38277   38286   38307       4   38259   38280  -38292   38307       4
   38256   38238   38259   38277       6   38256   38238   38259   38280       6
   38253   38265   38283   38298       7   38247   38265   38283   38298       7
   38244   38256   38238   38259       4   38238   38259   38277   38286       4
   38238   38259   38280   38292       4   38235   38220   38226   38244       9
   38235   38232   38253   38265       4   38232   38217   38229   38247       4
   38232   38253  -38265   38247       4   38232   38253   38265   38283       4
   38229   38217   38232   38235       4   38229   38217   38232   38253       4
   38229   38247  -38265   38253       4   38229   38247   38265   38283       4
   38226   38214   38223   38238       4   38226   38220   38235   38232      10
   38226   38244  -38256   38238       4   38223   38214   38226   38244       4
   38223   38238  -38256   38244       4   38223   38238   38259   38277       6
   38223   38238   38259   38280       6   38220   38211   38217   38229      11
   38220   38211  -38217   38232      11   38220   38226   38214   38223       4
   38220   38226   38244   38256       4   38220   38235   38232   38253      12
   38217   38211   38220   38226      13   38217   38211  -38220   38235      13
   38217   38229   38247   38265       4   38217   38232  -38235   38220      12
   38217   38232  -38253   38265       4   38214   38208   38211   38217      10
   38214   38208  -38211   38220      10   38214   38223   38238   38256       4
   38214   38223   38238   38259       4   38214   38226   38220   38235       9
   38214   38226  -38244   38256       4   38211   38208   38214   38223      14
   38211   38208  -38214   38226      14   38211   38217   38229   38247       4
   38211   38217  -38232   38235       4   38211   38217   38232   38253       4
   38211   38220  -38226   38214      15   38211   38220   38226   38244      15
   38211   38220  -38235   38232      10   38208   38211   38217   38229       9
   38208   38211   38217   38232       9   38208   38211  -38220   38226      13
   38208   38211   38220   38235      13   38208   38214   38223   38238       4
   38208   38214  -38226   38220       4   38208   38214   38226   38244       4
   38547   38562   38565   38577       3   38538   38547   38562   38565       3
   38529   38538   38547   38562       3   38520   38529   38538   38547       3
   38508   38520   38529   38538       3   38490   38508   38520   38529       3
   38475   38490   38508   38520       3   38472   38451   38469   38478       4
   38472   38484  -38499   38478       4   38469   38451   38472   38484       4
   38469   38478  -38499   38484       4   38457   38475   38490   38508       5
   38451   38469   38478   38499       4   38451   38472  -38484   38499       4
   38448   38430   38451   38469       6   38448   38430   38451   38472       6
   38445   38457   38475   38490       7   38439   38457   38475   38490       7
   38436   38448   38430   38451       4   38430   38451   38469   38478       4
   38430   38451   38472   38484       4   38427   38412   38418   38436       9
   38427   38424   38445   38457       4   38424   38409   38421   38439       4
   38424   38445  -38457   38439       4   38424   38445   38457   38475       4
   38421   38409   38424   38427       4   38421   38409   38424   38445       4
   38421   38439  -38457   38445       4   38421   38439   38457   38475       4
   38418   38406   38415   38430       4   38418   38412   38427   38424      10
   38418   38436  -38448   38430       4   38415   38406   38418   38436       4
   38415   38430  -38448   38436       4   38415   38430   38451   38469       6
   38415   38430   38451   38472       6   38412   38403   38409   38421      11
   38412   38403  -38409   38424      11   38412   38418   38406   38415       4
   38412   38418   38436   38448       4   38412   38427   38424   38445      12
   38409   38403   38412   38418      13   38409   38403  -38412   38427      13
   38409   38421   38439   38457       4   38409   38424  -38427   38412      12
   38409   38424  -38445   38457       4   38406   38400   38403   38409      10
   38406   38400  -38403   38412      10   38406   38415   38430   38448       4
   38406   38415   38430   38451       4   38406   38418   38412   38427       9
   38406   38418  -38436   38448       4   38403   38400   38406   38415      14
   38403   38400  -38406   38418      14   38403   38409   38421   38439       4
   38403   38409  -38424   38427       4   38403   38409   38424   38445       4
   38403   38412  -38418   38406      15   38403   38412   38418   38436      15
   38403   38412  -38427   38424      10   38400   38403   38409   38421       9
   38400   38403   38409   38424       9   38400   38403  -38412   38418      13
   38400   38403   38412   38427      13   38400   38406   38415   38430       4
   38400   38406  -38418   38412       4   38400   38406   38418   38436       4
   38739   38754   38757   38769       3   38730   38739   38754   38757       3
   38721   38730   38739   38754       3   38712   38721   38730   38739       3
   38700   38712   38721   38730       3   38682   38700   38712   38721       3
   38667   38682   38700   38712       3   38664   38643   38661   38670       4
   38664   38676  -38691   38670       4   38661   38643   38664   38676       4
   38661   38670  -38691   38676       4   38649   38667   38682   38700       5
   38643   38661   38670   38691       4   38643   38664  -38676   38691       4
   38640   38622   38643   38661       6   38640   38622   38643   38664       6
   38637   38649   38667   38682       7   38631   38649   38667   38682       7
   38628   38640   38622   38643       4   38622   38643   38661   38670       4
   38622   38643   38664   38676       4   38619   38604   38610   38628       9
   38619   38616   38637   38649       4   38616   38601   38613   38631       4
   38616   38637  -38649   38631       4   38616   38637   38649   38667       4
   38613   38601   38616   38619       4   38613   38601   38616   38637       4
   38613   38631  -38649   38637       4   38613   38631   38649   38667       4
   38610   38598   38607   38622       4   38610   38604   38619   38616      10
   38610   38628  -38640   38622       4   38607   38598   38610   38628       4
   38607   38622  -38640   38628       4   38607   38622   38643   38661       6
   38607   38622   38643   38664       6   38604   38595   38601   38613      11
   38604   38595  -38601   38616      11   38604   38610   38598   38607       4
   38604   38610   38628   38640       4   38604   38619   38616   38637      12
   38601   38595   38604   38610      13   38601   38595  -38604   38619      13
   38601   38613   38631   38649       4   38601   38616  -38619   38604      12
   38601   38616  -38637   38649       4   38598   38592   38595   38601      10
   38598   38592  -38595   38604      10   38598   38607   38622   38640       4
   38598   38607   38622   38643       4   38598   38610   38604   38619       9
   38598   38610  -38628   38640       4   38595   38592   38598   38607      14
   38595   38592  -38598   38610      14   38595   38601   38613   38631       4
   38595   38601  -38616   38619       4   38595   38601   38616   38637       4
   38595   38604  -38610   38598      15   38595   38604   38610   38628      15
   38595   38604  -38619   38616      10   38592   38595   38601   38613       9
   38592   38595   38601   38616       9   38592   38595  -38604   38610      13
   38592   38595   38604   38619      13   38592   38598   38607   38622       4
   38592   38598  -38610   38604       4   38592   38598   38610   38628       4
   38931   38946   38949   38961       3   38922   38931   38946   38949       3
   38913   38922   38931   38946       3   38904   38913   38922   38931       3
   38892   38904   38913   38922       3   38874   38892   38904   38913       3
   38859   38874   38892   38904       3   38856   38835   38853   38862       4
   38856   38868  -38883   38862       4   38853   38835   38856   38868       4
   38853   38862  -38883   38868       4   38841   38859   38874   38892       5
   38835   38853   38862   38883       4   38835   38856  -38868   38883       4
   38832   38814   38835   38853       6   38832   38814   38835   38856       6
   38829   38841   38859   38874       7   38823   38841   38859   38874       7
   38820   38832   38814   38835       4   38814   38835   38853   38862       4
   38814   38835   38856   38868       4   38811   38796   38802   38820       9
   38811   38808   38829   38841       4   38808   38793   38805   38823       4
   38808   38829  -38841   38823       4   38808   38829   38841   38859       4
   38805   38793   38808   38811       4   38805   38793   38808   38829       4
   38805   38823  -38841   38829       4   38805   38823   38841   38859       4
   38802   38790   38799   38814       4   38802   38796   38811   38808      10
   38802   38820  -38832   38814       4   38799   38790   38802   38820       4
   38799   38814  -38832   38820       4   38799   38814   38835   38853       6
   38799   38814   38835   38856       6   38796   38787   38793   38805      11
   38796   38787  -38793   38808      11   38796   38802   38790   38799       4
   38796   38802   38820   38832       4   38796   38811   38808   38829      12
   38793   38787   38796   38802      13   38793   38787  -38796   38811      13
   38793   38805   38823   38841       4   38793   38808  -38811   38796      12
   38793   38808  -38829   38841       4   38790   38784   38787   38793      10
   38790   38784  -38787   38796      10   38790   38799   38814   38832       4
   38790   38799   38814   38835       4   38790   38802   38796   38811       9
   38790   38802  -38820   38832       4   38787   38784   38790   38799      14
   38787   38784  -38790   38802      14   38787   38793   38805   38823       4
   38787   38793  -38808   38811       4   38787   38793   38808   38829       4
   38787   38796  -38802   38790      15   38787   38796   38802   38820      15
   38787   38796  -38811   38808      10   38784   38787   38793   38805       9
   38784   38787   38793   38808       9   38784   38787  -38796   38802      13
   38784   38787   38796   38811      13   38784   38790   38799   38814       4
   38784   38790  -38802   38796       4   38784   38790   38802   38820       4
   39123   39138   39141   39153       3   39114   39123   39138   39141       3
   39105   39114   39123   39138       3   39096   39105   39114   39123       3
   39084   39096   39105   39114       3   39066   39084   39096   39105       3
   39051   39066   39084   39096       3   39048   39027   39045   39054       4
   39048   39060  -39075   39054       4   39045   39027   39048   39060       4
   39045   39054  -39075   39060       4   39033   39051   39066   39084       5
   39027   39045   39054   39075       4   39027   39048  -39060   39075       4
   39024   39006   39027   39045       6   39024   39006   39027   39048       6
   39021   39033   39051   39066       7   39015   39033   39051   39066       7
   39012   39024   39006   39027       4   39006   39027   39045   39054       4
   39006   39027   39048   39060       4   39003   38988   38994   39012       9
   39003   39000   39021   39033       4   39000   38985   38997   39015       4
   39000   39021  -39033   39015       4   39000   39021   39033   39051       4
   38997   38985   39000   39003       4   38997   38985   39000   39021       4
   38997   39015  -39033   39021       4   38997   39015   39033   39051       4
   38994   38982   38991   39006       4   38994   38988   39003   39000      10
   38994   39012  -39024   39006       4   38991   38982   38994   39012       4
   38991   39006  -39024   39012       4   38991   39006   39027   39045       6
   38991   39006   39027   39048       6   38988   38979   38985   38997      11
   38988   38979  -38985   39000      11   38988   38994   38982   38991       4
   38988   38994   39012   39024       4   38988   39003   39000   39021      12
   38985   38979   38988   38994      13   38985   38979  -38988   39003      13
   38985   38997   39015   39033       4   38985   39000  -39003   38988      12
   38985   39000  -39021   39033       4   38982   38976   38979   38985      10
   38982   38976  -38979   38988      10   38982   38991   39006   39024       4
   38982   38991   39006   39027       4   38982   38994   38988   39003       9
   38982   38994  -39012   39024       4   38979   38976   38982   38991      14
   38979   38976  -38982   38994      14   38979   38985   38997   39015       4
   38979   38985  -39000   39003       4   38979   38985   39000   39021       4
   38979   38988  -38994   38982      15   38979   38988   38994   39012      15
   38979   38988  -39003   39000      10   38976   38979   38985   38997       9
   38976   38979   38985   39000       9   38976   38979  -38988   38994      13
   38976   38979   38988   39003      13   38976   38982   38991   39006       4
   38976   38982  -38994   38988       4   38976   38982   38994   39012       4
   39315   39330   39333   39345       3   39306   39315   39330   39333       3
   39297   39306   39315   39330       3   39288   39297   39306   39315       3
   39276   39288   39297   39306       3   39258   39276   39288   39297       3
   39243   39258   39276   39288       3   39240   39219   39237   39246       4
   39240   39252  -39267   39246       4   39237   39219   39240   39252       4
   39237   39246  -39267   39252       4   39225   39243   39258   39276       5
   39219   39237   39246   39267       4   39219   39240  -39252   39267       4
   39216   39198   39219   39237       6   39216   39198   39219   39240       6
   39213   39225   39243   39258       7   39207   39225   39243   39258       7
   39204   39216   39198   39219       4   39198   39219   39237   39246       4
   39198   39219   39240   39252       4   39195   39180   39186   39204       9
   39195   39192   39213   39225       4   39192   39177   39189   39207       4
   39192   39213  -39225   39207       4   39192   39213   39225   39243       4
   39189   39177   39192   39195       4   39189   39177   39192   39213       4
   39189   39207  -39225   39213       4   39189   39207   39225   39243       4
   39186   39174   39183   39198       4   39186   39180   39195   39192      10
   39186   39204  -39216   39198       4   39183   39174   39186   39204       4
   39183   39198  -39216   39204       4   39183   39198   39219   39237       6
   39183   39198   39219   39240       6   39180   39171   39177   39189      11
   39180   39171  -39177   39192      11   39180   39186   39174   39183       4
   39180   39186   39204   39216       4   39180   39195   39192   39213      12
   39177   39171   39180   39186      13   39177   39171  -39180   39195      13
   39177   39189   39207   39225       4   39177   39192  -39195   39180      12
   39177   39192  -39213   39225       4   39174   39168   39171   39177      10
   39174   39168  -39171   39180      10   39174   39183   39198   39216       4
   39174   39183   39198   39219       4   39174   39186   39180   39195       9
   39174   39186  -39204   39216       4   39171   39168   39174   39183      14
   39171   39168  -39174   39186      14   39171   39177   39189   39207       4
   39171   39177  -39192   39195       4   39171   39177   39192   39213       4
   39171   39180  -39186   39174      15   39171   39180   39186   39204      15
   39171   39180  -39195   39192      10   39168   39171   39177   39189       9
   39168   39171   39177   39192       9   39168   39171  -39180   39186      13
   39168   39171   39180   39195      13   39168   39174   39183   39198       4
   39168   39174  -39186   39180       4   39168   39174   39186   39204       4
   39507   39522   39525   39537       3   39498   39507   39522   39525       3
   39489   39498   39507   39522       3   39480   39489   39498   39507       3
   39468   39480   39489   39498       3   39450   39468   39480   39489       3
   39435   39450   39468   39480       3   39432   39411   39429   39438       4
   39432   39444  -39459   39438       4   39429   39411   39432   39444       4
   39429   39438  -39459   39444       4   39417   39435   39450   39468       5
   39411   39429   39438   39459       4   39411   39432  -39444   39459       4
   39408   39390   39411   39429       6   39408   39390   39411   39432       6
   39405   39417   39435   39450       7   39399   39417   39435   39450       7
   39396   39408   39390   39411       4   39390   39411   39429   39438       4
   39390   39411   39432   39444       4   39387   39372   39378   39396       9
   39387   39384   39405   39417       4   39384   39369   39381   39399       4
   39384   39405  -39417   39399       4   39384   39405   39417   39435       4
   39381   39369   39384   39387       4   39381   39369   39384   39405       4
   39381   39399  -39417   39405       4   39381   39399   39417   39435       4
   39378   39366   39375   39390       4   39378   39372   39387   39384      10
   39378   39396  -39408   39390       4   39375   39366   39378   39396       4
   39375   39390  -39408   39396       4   39375   39390   39411   39429       6
   39375   39390   39411   39432       6   39372   39363   39369   39381      11
   39372   39363  -39369   39384      11   39372   39378   39366   39375       4
   39372   39378   39396   39408       4   39372   39387   39384   39405      12
   39369   39363   39372   39378      13   39369   39363  -39372   39387      13
   39369   39381   39399   39417       4   39369   39384  -39387   39372      12
   39369   39384  -39405   39417       4   39366   39360   39363   39369      10
   39366   39360  -39363   39372      10   39366   39375   39390   39408       4
   39366   39375   39390   39411       4   39366   39378   39372   39387       9
   39366   39378  -39396   39408       4   39363   39360   39366   39375      14
   39363   39360  -39366   39378      14   39363   39369   39381   39399       4
   39363   39369  -39384   39387       4   39363   39369   39384   39405       4
   39363   39372  -39378   39366      15   39363   39372   39378   39396      15
   39363   39372  -39387   39384      10   39360   39363   39369   39381       9
   39360   39363   39369   39384       9   39360   39363  -39372   39378      13
   39360   39363   39372   39387      13   39360   39366   39375   39390       4
   39360   39366  -39378   39372       4   39360   39366   39378   39396       4
   39699   39714   39717   39729       3   39690   39699   39714   39717       3
   39681   39690   39699   39714       3   39672   39681   39690   39699       3
   39660   39672   39681   39690       3   39642   39660   39672   39681       3
   39627   39642   39660   39672       3   39624   39603   39621   39630       4
   39624   39636  -39651   39630       4   39621   39603   39624   39636       4
   39621   39630  -39651   39636       4   39609   39627   39642   39660       5
   39603   39621   39630   39651       4   39603   39624  -39636   39651       4
   39600   39582   39603   39621       6   39600   39582   39603   39624       6
   39597   39609   39627   39642       7   39591   39609   39627   39642       7
   39588   39600   39582   39603       4   39582   39603   39621   39630       4
   39582   39603   39624   39636       4   39579   39564   39570   39588       9
   39579   39576   39597   39609       4   39576   39561   39573   39591       4
   39576   39597  -39609   39591       4   39576   39597   39609   39627       4
   39573   39561   39576   39579       4   39573   39561   39576   39597       4
   39573   39591  -39609   39597       4   39573   39591   39609   39627       4
   39570   39558   39567   39582       4   39570   39564   39579   39576      10
   39570   39588  -39600   39582       4   39567   39558   39570   39588       4
   39567   39582  -39600   39588       4   39567   39582   39603   39621       6
   39567   39582   39603   39624       6   39564   39555   39561   39573      11
   39564   39555  -39561   39576      11   39564   39570   39558   39567       4
   39564   39570   39588   39600       4   39564   39579   39576   39597      12
   39561   39555   39564   39570      13   39561   39555  -39564   39579      13
   39561   39573   39591   39609       4   39561   39576  -39579   39564      12
   39561   39576  -39597   39609       4   39558   39552   39555   39561      10
   39558   39552  -39555   39564      10   39558   39567   39582   39600       4
   39558   39567   39582   39603       4   39558   39570   39564   39579       9
   39558   39570  -39588   39600       4   39555   39552   39558   39567      14
   39555   39552  -39558   39570      14   39555   39561   39573   39591       4
   39555   39561  -39576   39579       4   39555   39561   39576   39597       4
   39555   39564  -39570   39558      15   39555   39564   39570   39588      15
   39555   39564  -39579   39576      10   39552   39555   39561   39573       9
   39552   39555   39561   39576       9   39552   39555  -39564   39570      13
   39552   39555   39564   39579      13   39552   39558   39567   39582       4
   39552   39558  -39570   39564       4   39552   39558   39570   39588       4
   39891   39906   39909   39921       3   39882   39891   39906   39909       3
   39873   39882   39891   39906       3   39864   39873   39882   39891       3
   39852   39864   39873   39882       3   39834   39852   39864   39873       3
   39819   39834   39852   39864       3   39816   39795   39813   39822       4
   39816   39828  -39843   39822       4   39813   39795   39816   39828       4
   39813   39822  -39843   39828       4   39801   39819   39834   39852       5
   39795   39813   39822   39843       4   39795   39816  -39828   39843       4
   39792   39774   39795   39813       6   39792   39774   39795   39816       6
   39789   39801   39819   39834       7   39783   39801   39819   39834       7
   39780   39792   39774   39795       4   39774   39795   39813   39822       4
   39774   39795   39816   39828       4   39771   39756   39762   39780       9
   39771   39768   39789   39801       4   39768   39753   39765   39783       4
   39768   39789  -39801   39783       4   39768   39789   39801   39819       4
   39765   39753   39768   39771       4   39765   39753   39768   39789       4
   39765   39783  -39801   39789       4   39765   39783   39801   39819       4
   39762   39750   39759   39774       4   39762   39756   39771   39768      10
   39762   39780  -39792   39774       4   39759   39750   39762   39780       4
   39759   39774  -39792   39780       4   39759   39774   39795   39813       6
   39759   39774   39795   39816       6   39756   39747   39753   39765      11
   39756   39747  -39753   39768      11   39756   39762   39750   39759       4
   39756   39762   39780   39792       4   39756   39771   39768   39789      12
   39753   39747   39756   39762      13   39753   39747  -39756   39771      13
   39753   39765   39783   39801       4   39753   39768  -39771   39756      12
   39753   39768  -39789   39801       4   39750   39744   39747   39753      10
   39750   39744  -39747   39756      10   39750   39759   39774   39792       4
   39750   39759   39774   39795       4   39750   39762   39756   39771       9
   39750   39762  -39780   39792       4   39747   39744   39750   39759      14
   39747   39744  -39750   39762      14   39747   39753   39765   39783       4
   39747   39753  -39768   39771       4   39747   39753   39768   39789       4
   39747   39756  -39762   39750      15   39747   39756   39762   39780      15
   39747   39756  -39771   39768      10   39744   39747   39753   39765       9
   39744   39747   39753   39768       9   39744   39747  -39756   39762      13
   39744   39747   39756   39771      13   39744   39750   39759   39774       4
   39744   39750  -39762   39756       4   39744   39750   39762   39780       4
   40083   40098   40101   40113       3   40074   40083   40098   40101       3
   40065   40074   40083   40098       3   40056   40065   40074   40083       3
   40044   40056   40065   40074       3   40026   40044   40056   40065       3
   40011   40026   40044   40056       3   40008   39987   40005   40014       4
   40008   40020  -40035   40014       4   40005   39987   40008   40020       4
   40005   40014  -40035   40020       4   39993   40011   40026   40044       5
   39987   40005   40014   40035       4   39987   40008  -40020   40035       4
   39984   39966   39987   40005       6   39984   39966   39987   40008       6
   39981   39993   40011   40026       7   39975   39993   40011   40026       7
   39972   39984   39966   39987       4   39966   39987   40005   40014       4
   39966   39987   40008   40020       4   39963   39948   39954   39972       9
   39963   39960   39981   39993       4   39960   39945   39957   39975       4
   39960   39981  -39993   39975       4   39960   39981   39993   40011       4
   39957   39945   39960   39963       4   39957   39945   39960   39981       4
   39957   39975  -39993   39981       4   39957   39975   39993   40011       4
   39954   39942   39951   39966       4   39954   39948   39963   39960      10
   39954   39972  -39984   39966       4   39951   39942   39954   39972       4
   39951   39966  -39984   39972       4   39951   39966   39987   40005       6
   39951   39966   39987   40008       6   39948   39939   39945   39957      11
   39948   39939  -39945   39960      11   39948   39954   39942   39951       4
   39948   39954   39972   39984       4   39948   39963   39960   39981      12
   39945   39939   39948   39954      13   39945   39939  -39948   39963      13
   39945   39957   39975   39993       4   39945   39960  -39963   39948      12
   39945   39960  -39981   39993       4   39942   39936   39939   39945      10
   39942   39936  -39939   39948      10   39942   39951   39966   39984       4
   39942   39951   39966   39987       4   39942   39954   39948   39963       9
   39942   39954  -39972   39984       4   39939   39936   39942   39951      14
   39939   39936  -39942   39954      14   39939   39945   39957   39975       4
   39939   39945  -39960   39963       4   39939   39945   39960   39981       4
   39939   39948  -39954   39942      15   39939   39948   39954   39972      15
   39939   39948  -39963   39960      10   39936   39939   39945   39957       9
   39936   39939   39945   39960       9   39936   39939  -39948   39954      13
   39936   39939   39948   39963      13   39936   39942   39951   39966       4
   39936   39942  -39954   39948       4   39936   39942   39954   39972       4
   40275   40290   40293   40305       3   40266   40275   40290   40293       3
   40257   40266   40275   40290       3   40248   40257   40266   40275       3
   40236   40248   40257   40266       3   40218   40236   40248   40257       3
   40203   40218   40236   40248       3   40200   40179   40197   40206       4
   40200   40212  -40227   40206       4   40197   40179   40200   40212       4
   40197   40206  -40227   40212       4   40185   40203   40218   40236       5
   40179   40197   40206   40227       4   40179   40200  -40212   40227       4
   40176   40158   40179   40197       6   40176   40158   40179   40200       6
   40173   40185   40203   40218       7   40167   40185   40203   40218       7
   40164   40176   40158   40179       4   40158   40179   40197   40206       4
   40158   40179   40200   40212       4   40155   40140   40146   40164       9
   40155   40152   40173   40185       4   40152   40137   40149   40167       4
   40152   40173  -40185   40167       4   40152   40173   40185   40203       4
   40149   40137   40152   40155       4   40149   40137   40152   40173       4
   40149   40167  -40185   40173       4   40149   40167   40185   40203       4
   40146   40134   40143   40158       4   40146   40140   40155   40152      10
   40146   40164  -40176   40158       4   40143   40134   40146   40164       4
   40143   40158  -40176   40164       4   40143   40158   40179   40197       6
   40143   40158   40179   40200       6   40140   40131   40137   40149      11
   40140   40131  -40137   40152      11   40140   40146   40134   40143       4
   40140   40146   40164   40176       4   40140   40155   40152   40173      12
   40137   40131   40140   40146      13   40137   40131  -40140   40155      13
   40137   40149   40167   40185       4   40137   40152  -40155   40140      12
   40137   40152  -40173   40185       4   40134   40128   40131   40137      10
   40134   40128  -40131   40140      10   40134   40143   40158   40176       4
   40134   40143   40158   40179       4   40134   40146   40140   40155       9
   40134   40146  -40164   40176       4   40131   40128   40134   40143      14
   40131   40128  -40134   40146      14   40131   40137   40149   40167       4
   40131   40137  -40152   40155       4   40131   40137   40152   40173       4
   40131   40140  -40146   40134      15   40131   40140   40146   40164      15
   40131   40140  -40155   40152      10   40128   40131   40137   40149       9
   40128   40131   40137   40152       9   40128   40131  -40140   40146      13
   40128   40131   40140   40155      13   40128   40134   40143   40158       4
   40128   40134  -40146   40140       4   40128   40134   40146   40164       4
   40467   40482   40485   40497       3   40458   40467   40482   40485       3
   40449   40458   40467   40482       3   40440   40449   40458   40467       3
   40428   40440   40449   40458       3   40410   40428   40440   40449       3
   40395   40410   40428   40440       3   40392   40371   40389   40398       4
   40392   40404  -40419   40398       4   40389   40371   40392   40404       4
   40389   40398  -40419   40404       4   40377   40395   40410   40428       5
   40371   40389   40398   40419       4   40371   40392  -40404   40419       4
   40368   40350   40371   40389       6   40368   40350   40371   40392       6
   40365   40377   40395   40410       7   40359   40377   40395   40410       7
   40356   40368   40350   40371       4   40350   40371   40389   40398       4
   40350   40371   40392   40404       4   40347   40332   40338   40356       9
   40347   40344   40365   40377       4   40344   40329   40341   40359       4
   40344   40365  -40377   40359       4   40344   40365   40377   40395       4
   40341   40329   40344   40347       4   40341   40329   40344   40365       4
   40341   40359  -40377   40365       4   40341   40359   40377   40395       4
   40338   40326   40335   40350       4   40338   40332   40347   40344      10
   40338   40356  -40368   40350       4   40335   40326   40338   40356       4
   40335   40350  -40368   40356       4   40335   40350   40371   40389       6
   40335   40350   40371   40392       6   40332   40323   40329   40341      11
   40332   40323  -40329   40344      11   40332   40338   40326   40335       4
   40332   40338   40356   40368       4   40332   40347   40344   40365      12
   40329   40323   40332   40338      13   40329   40323  -40332   40347      13
   40329   40341   40359   40377       4   40329   40344  -40347   40332      12
   40329   40344  -40365   40377       4   40326   40320   40323   40329      10
   40326   40320  -40323   40332      10   40326   40335   40350   40368       4
   40326   40335   40350   40371       4   40326   40338   40332   40347       9
   40326   40338  -40356   40368       4   40323   40320   40326   40335      14
   40323   40320  -40326   40338      14   40323   40329   40341   40359       4
   40323   40329  -40344   40347       4   40323   40329   40344   40365       4
   40323   40332  -40338   40326      15   40323   40332   40338   40356      15
   40323   40332  -40347   40344      10   40320   40323   40329   40341       9
   40320   40323   40329   40344       9   40320   40323  -40332   40338      13
   40320   40323   40332   40347      13   40320   40326   40335   40350       4
   40320   40326  -40338   40332       4   40320   40326   40338   40356       4
   40659   40674   40677   40689       3   40650   40659   40674   40677       3
   40641   40650   40659   40674       3   40632   40641   40650   40659       3
   40620   40632   40641   40650       3   40602   40620   40632   40641       3
   40587   40602   40620   40632       3   40584   40563   40581   40590       4
   40584   40596  -40611   40590       4   40581   40563   40584   40596       4
   40581   40590  -40611   40596       4   40569   40587   40602   40620       5
   40563   40581   40590   40611       4   40563   40584  -40596   40611       4
   40560   40542   40563   40581       6   40560   40542   40563   40584       6
   40557   40569   40587   40602       7   40551   40569   40587   40602       7
   40548   40560   40542   40563       4   40542   40563   40581   40590       4
   40542   40563   40584   40596       4   40539   40524   40530   40548       9
   40539   40536   40557   40569       4   40536   40521   40533   40551       4
   40536   40557  -40569   40551       4   40536   40557   40569   40587       4
   40533   40521   40536   40539       4   40533   40521   40536   40557       4
   40533   40551  -40569   40557       4   40533   40551   40569   40587       4
   40530   40518   40527   40542       4   40530   40524   40539   40536      10
   40530   40548  -40560   40542       4   40527   40518   40530   40548       4
   40527   40542  -40560   40548       4   40527   40542   40563   40581       6
   40527   40542   40563   40584       6   40524   40515   40521   40533      11
   40524   40515  -40521   40536      11   40524   40530   40518   40527       4
   40524   40530   40548   40560       4   40524   40539   40536   40557      12
   40521   40515   40524   40530      13   40521   40515  -40524   40539      13
   40521   40533   40551   40569       4   40521   40536  -40539   40524      12
   40521   40536  -40557   40569       4   40518   40512   40515   40521      10
   40518   40512  -40515   40524      10   40518   40527   40542   40560       4
   40518   40527   40542   40563       4   40518   40530   40524   40539       9
   40518   40530  -40548   40560       4   40515   40512   40518   40527      14
   40515   40512  -40518   40530      14   40515   40521   40533   40551       4
   40515   40521  -40536   40539       4   40515   40521   40536   40557       4
   40515   40524  -40530   40518      15   40515   40524   40530   40548      15
   40515   40524  -40539   40536      10   40512   40515   40521   40533       9
   40512   40515   40521   40536       9   40512   40515  -40524   40530      13
   40512   40515   40524   40539      13   40512   40518   40527   40542       4
   40512   40518  -40530   40524       4   40512   40518   40530   40548       4
   40851   40866   40869   40881       3   40842   40851   40866   40869       3
   40833   40842   40851   40866       3   40824   40833   40842   40851       3
   40812   40824   40833   40842       3   40794   40812   40824   40833       3
   40779   40794   40812   40824       3   40776   40755   40773   40782       4
   40776   40788  -40803   40782       4   40773   40755   40776   40788       4
   40773   40782  -40803   40788       4   40761   40779   40794   40812       5
   40755   40773   40782   40803       4   40755   40776  -40788   40803       4
   40752   40734   40755   40773       6   40752   40734   40755   40776       6
   40749   40761   40779   40794       7   40743   40761   40779   40794       7
   40740   40752   40734   40755       4   40734   40755   40773   40782       4
   40734   40755   40776   40788       4   40731   40716   40722   40740       9
   40731   40728   40749   40761       4   40728   40713   40725   40743       4
   40728   40749  -40761   40743       4   40728   40749   40761   40779       4
   40725   40713   40728   40731       4   40725   40713   40728   40749       4
   40725   40743  -40761   40749       4   40725   40743   40761   40779       4
   40722   40710   40719   40734       4   40722   40716   40731   40728      10
   40722   40740  -40752   40734       4   40719   40710   40722   40740       4
   40719   40734  -40752   40740       4   40719   40734   40755   40773       6
   40719   40734   40755   40776       6   40716   40707   40713   40725      11
   40716   40707  -40713   40728      11   40716   40722   40710   40719       4
   40716   40722   40740   40752       4   40716   40731   40728   40749      12
   40713   40707   40716   40722      13   40713   40707  -40716   40731      13
   40713   40725   40743   40761       4   40713   40728  -40731   40716      12
   40713   40728  -40749   40761       4   40710   40704   40707   40713      10
   40710   40704  -40707   40716      10   40710   40719   40734   40752       4
   40710   40719   40734   40755       4   40710   40722   40716   40731       9
   40710   40722  -40740   40752       4   40707   40704   40710   40719      14
   40707   40704  -40710   40722      14   40707   40713   40725   40743       4
   40707   40713  -40728   40731       4   40707   40713   40728   40749       4
   40707   40716  -40722   40710      15   40707   40716   40722   40740      15
   40707   40716  -40731   40728      10   40704   40707   40713   40725       9
   40704   40707   40713   40728       9   40704   40707  -40716   40722      13
   40704   40707   40716   40731      13   40704   40710   40719   40734       4
   40704   40710  -40722   40716       4   40704   40710   40722   40740       4
   41043   41058   41061   41073       3   41034   41043   41058   41061       3
   41025   41034   41043   41058       3   41016   41025   41034   41043       3
   41004   41016   41025   41034       3   40986   41004   41016   41025       3
   40971   40986   41004   41016       3   40968   40947   40965   40974       4
   40968   40980  -40995   40974       4   40965   40947   40968   40980       4
   40965   40974  -40995   40980       4   40953   40971   40986   41004       5
   40947   40965   40974   40995       4   40947   40968  -40980   40995       4
   40944   40926   40947   40965       6   40944   40926   40947   40968       6
   40941   40953   40971   40986       7   40935   40953   40971   40986       7
   40932   40944   40926   40947       4   40926   40947   40965   40974       4
   40926   40947   40968   40980       4   40923   40908   40914   40932       9
   40923   40920   40941   40953       4   40920   40905   40917   40935       4
   40920   40941  -40953   40935       4   40920   40941   40953   40971       4
   40917   40905   40920   40923       4   40917   40905   40920   40941       4
   40917   40935  -40953   40941       4   40917   40935   40953   40971       4
   40914   40902   40911   40926       4   40914   40908   40923   40920      10
   40914   40932  -40944   40926       4   40911   40902   40914   40932       4
   40911   40926  -40944   40932       4   40911   40926   40947   40965       6
   40911   40926   40947   40968       6   40908   40899   40905   40917      11
   40908   40899  -40905   40920      11   40908   40914   40902   40911       4
   40908   40914   40932   40944       4   40908   40923   40920   40941      12
   40905   40899   40908   40914      13   40905   40899  -40908   40923      13
   40905   40917   40935   40953       4   40905   40920  -40923   40908      12
   40905   40920  -40941   40953       4   40902   40896   40899   40905      10
   40902   40896  -40899   40908      10   40902   40911   40926   40944       4
   40902   40911   40926   40947       4   40902   40914   40908   40923       9
   40902   40914  -40932   40944       4   40899   40896   40902   40911      14
   40899   40896  -40902   40914      14   40899   40905   40917   40935       4
   40899   40905  -40920   40923       4   40899   40905   40920   40941       4
   40899   40908  -40914   40902      15   40899   40908   40914   40932      15
   40899   40908  -40923   40920      10   40896   40899   40905   40917       9
   40896   40899   40905   40920       9   40896   40899  -40908   40914      13
   40896   40899   40908   40923      13   40896   40902   40911   40926       4
   40896   40902  -40914   40908       4   40896   40902   40914   40932       4
   41235   41250   41253   41265       3   41226   41235   41250   41253       3
   41217   41226   41235   41250       3   41208   41217   41226   41235       3
   41196   41208   41217   41226       3   41178   41196   41208   41217       3
   41163   41178   41196   41208       3   41160   41139   41157   41166       4
   41160   41172  -41187   41166       4   41157   41139   41160   41172       4
   41157   41166  -41187   41172       4   41145   41163   41178   41196       5
   41139   41157   41166   41187       4   41139   41160  -41172   41187       4
   41136   41118   41139   41157       6   41136   41118   41139   41160       6
   41133   41145   41163   41178       7   41127   41145   41163   41178       7
   41124   41136   41118   41139       4   41118   41139   41157   41166       4
   41118   41139   41160   41172       4   41115   41100   41106   41124       9
   41115   41112   41133   41145       4   41112   41097   41109   41127       4
   41112   41133  -41145   41127       4   41112   41133   41145   41163       4
   41109   41097   41112   41115       4   41109   41097   41112   41133       4
   41109   41127  -41145   41133       4   41109   41127   41145   41163       4
   41106   41094   41103   41118       4   41106   41100   41115   41112      10
   41106   41124  -41136   41118       4   41103   41094   41106   41124       4
   41103   41118  -41136   41124       4   41103   41118   41139   41157       6
   41103   41118   41139   41160       6   41100   41091   41097   41109      11
   41100   41091  -41097   41112      11   41100   41106   41094   41103       4
   41100   41106   41124   41136       4   41100   41115   41112   41133      12
   41097   41091   41100   41106      13   41097   41091  -41100   41115      13
   41097   41109   41127   41145       4   41097   41112  -41115   41100      12
   41097   41112  -41133   41145       4   41094   41088   41091   41097      10
   41094   41088  -41091   41100      10   41094   41103   41118   41136       4
   41094   41103   41118   41139       4   41094   41106   41100   41115       9
   41094   41106  -41124   41136       4   41091   41088   41094   41103      14
   41091   41088  -41094   41106      14   41091   41097   41109   41127       4
   41091   41097  -41112   41115       4   41091   41097   41112   41133       4
   41091   41100  -41106   41094      15   41091   41100   41106   41124      15
   41091   41100  -41115   41112      10   41088   41091   41097   41109       9
   41088   41091   41097   41112       9   41088   41091  -41100   41106      13
   41088   41091   41100   41115      13   41088   41094   41103   41118       4
   41088   41094  -41106   41100       4   41088   41094   41106   41124       4
   41427   41442   41445   41457       3   41418   41427   41442   41445       3
   41409   41418   41427   41442       3   41400   41409   41418   41427       3
   41388   41400   41409   41418       3   41370   41388   41400   41409       3
   41355   41370   41388   41400       3   41352   41331   41349   41358       4
   41352   41364  -41379   41358       4   41349   41331   41352   41364       4
   41349   41358  -41379   41364       4   41337   41355   41370   41388       5
   41331   41349   41358   41379       4   41331   41352  -41364   41379       4
   41328   41310   41331   41349       6   41328   41310   41331   41352       6
   41325   41337   41355   41370       7   41319   41337   41355   41370       7
   41316   41328   41310   41331       4   41310   41331   41349   41358       4
   41310   41331   41352   41364       4   41307   41292   41298   41316       9
   41307   41304   41325   41337       4   41304   41289   41301   41319       4
   41304   41325  -41337   41319       4   41304   41325   41337   41355       4
   41301   41289   41304   41307       4   41301   41289   41304   41325       4
   41301   41319  -41337   41325       4   41301   41319   41337   41355       4
   41298   41286   41295   41310       4   41298   41292   41307   41304      10
   41298   41316  -41328   41310       4   41295   41286   41298   41316       4
   41295   41310  -41328   41316       4   41295   41310   41331   41349       6
   41295   41310   41331   41352       6   41292   41283   41289   41301      11
   41292   41283  -41289   41304      11   41292   41298   41286   41295       4
   41292   41298   41316   41328       4   41292   41307   41304   41325      12
   41289   41283   41292   41298      13   41289   41283  -41292   41307      13
   41289   41301   41319   41337       4   41289   41304  -41307   41292      12
   41289   41304  -41325   41337       4   41286   41280   41283   41289      10
   41286   41280  -41283   41292      10   41286   41295   41310   41328       4
   41286   41295   41310   41331       4   41286   41298   41292   41307       9
   41286   41298  -41316   41328       4   41283   41280   41286   41295      14
   41283   41280  -41286   41298      14   41283   41289   41301   41319       4
   41283   41289  -41304   41307       4   41283   41289   41304   41325       4
   41283   41292  -41298   41286      15   41283   41292   41298   41316      15
   41283   41292  -41307   41304      10   41280   41283   41289   41301       9
   41280   41283   41289   41304       9   41280   41283  -41292   41298      13
   41280   41283   41292   41307      13   41280   41286   41295   41310       4
   41280   41286  -41298   41292       4   41280   41286   41298   41316       4
   41619   41634   41637   41649       3   41610   41619   41634   41637       3
   41601   41610   41619   41634       3   41592   41601   41610   41619       3
   41580   41592   41601   41610       3   41562   41580   41592   41601       3
   41547   41562   41580   41592       3   41544   41523   41541   41550       4
   41544   41556  -41571   41550       4   41541   41523   41544   41556       4
   41541   41550  -41571   41556       4   41529   41547   41562   41580       5
   41523   41541   41550   41571       4   41523   41544  -41556   41571       4
   41520   41502   41523   41541       6   41520   41502   41523   41544       6
   41517   41529   41547   41562       7   41511   41529   41547   41562       7
   41508   41520   41502   41523       4   41502   41523   41541   41550       4
   41502   41523   41544   41556       4   41499   41484   41490   41508       9
   41499   41496   41517   41529       4   41496   41481   41493   41511       4
   41496   41517  -41529   41511       4   41496   41517   41529   41547       4
   41493   41481   41496   41499       4   41493   41481   41496   41517       4
   41493   41511  -41529   41517       4   41493   41511   41529   41547       4
   41490   41478   41487   41502       4   41490   41484   41499   41496      10
   41490   41508  -41520   41502       4   41487   41478   41490   41508       4
   41487   41502  -41520   41508       4   41487   41502   41523   41541       6
   41487   41502   41523   41544       6   41484   41475   41481   41493      11
   41484   41475  -41481   41496      11   41484   41490   41478   41487       4
   41484   41490   41508   41520       4   41484   41499   41496   41517      12
   41481   41475   41484   41490      13   41481   41475  -41484   41499      13
   41481   41493   41511   41529       4   41481   41496  -41499   41484      12
   41481   41496  -41517   41529       4   41478   41472   41475   41481      10
   41478   41472  -41475   41484      10   41478   41487   41502   41520       4
   41478   41487   41502   41523       4   41478   41490   41484   41499       9
   41478   41490  -41508   41520       4   41475   41472   41478   41487      14
   41475   41472  -41478   41490      14   41475   41481   41493   41511       4
   41475   41481  -41496   41499       4   41475   41481   41496   41517       4
   41475   41484  -41490   41478      15   41475   41484   41490   41508      15
   41475   41484  -41499   41496      10   41472   41475   41481   41493       9
   41472   41475   41481   41496       9   41472   41475  -41484   41490      13
   41472   41475   41484   41499      13   41472   41478   41487   41502       4
   41472   41478  -41490   41484       4   41472   41478   41490   41508       4
   41811   41826   41829   41841       3   41802   41811   41826   41829       3
   41793   41802   41811   41826       3   41784   41793   41802   41811       3
   41772   41784   41793   41802       3   41754   41772   41784   41793       3
   41739   41754   41772   41784       3   41736   41715   41733   41742       4
   41736   41748  -41763   41742       4   41733   41715   41736   41748       4
   41733   41742  -41763   41748       4   41721   41739   41754   41772       5
   41715   41733   41742   41763       4   41715   41736  -41748   41763       4
   41712   41694   41715   41733       6   41712   41694   41715   41736       6
   41709   41721   41739   41754       7   41703   41721   41739   41754       7
   41700   41712   41694   41715       4   41694   41715   41733   41742       4
   41694   41715   41736   41748       4   41691   41676   41682   41700       9
   41691   41688   41709   41721       4   41688   41673   41685   41703       4
   41688   41709  -41721   41703       4   41688   41709   41721   41739       4
   41685   41673   41688   41691       4   41685   41673   41688   41709       4
   41685   41703  -41721   41709       4   41685   41703   41721   41739       4
   41682   41670   41679   41694       4   41682   41676   41691   41688      10
   41682   41700  -41712   41694       4   41679   41670   41682   41700       4
   41679   41694  -41712   41700       4   41679   41694   41715   41733       6
   41679   41694   41715   41736       6   41676   41667   41673   41685      11
   41676   41667  -41673   41688      11   41676   41682   41670   41679       4
   41676   41682   41700   41712       4   41676   41691   41688   41709      12
   41673   41667   41676   41682      13   41673   41667  -41676   41691      13
   41673   41685   41703   41721       4   41673   41688  -41691   41676      12
   41673   41688  -41709   41721       4   41670   41664   41667   41673      10
   41670   41664  -41667   41676      10   41670   41679   41694   41712       4
   41670   41679   41694   41715       4   41670   41682   41676   41691       9
   41670   41682  -41700   41712       4   41667   41664   41670   41679      14
   41667   41664  -41670   41682      14   41667   41673   41685   41703       4
   41667   41673  -41688   41691       4   41667   41673   41688   41709       4
   41667   41676  -41682   41670      15   41667   41676   41682   41700      15
   41667   41676  -41691   41688      10   41664   41667   41673   41685       9
   41664   41667   41673   41688       9   41664   41667  -41676   41682      13
   41664   41667   41676   41691      13   41664   41670   41679   41694       4
   41664   41670  -41682   41676       4   41664   41670   41682   41700       4
   42003   42018   42021   42033       3   41994   42003   42018   42021       3
   41985   41994   42003   42018       3   41976   41985   41994   42003       3
   41964   41976   41985   41994       3   41946   41964   41976   41985       3
   41931   41946   41964   41976       3   41928   41907   41925   41934       4
   41928   41940  -41955   41934       4   41925   41907   41928   41940       4
   41925   41934  -41955   41940       4   41913   41931   41946   41964       5
   41907   41925   41934   41955       4   41907   41928  -41940   41955       4
   41904   41886   41907   41925       6   41904   41886   41907   41928       6
   41901   41913   41931   41946       7   41895   41913   41931   41946       7
   41892   41904   41886   41907       4   41886   41907   41925   41934       4
   41886   41907   41928   41940       4   41883   41868   41874   41892       9
   41883   41880   41901   41913       4   41880   41865   41877   41895       4
   41880   41901  -41913   41895       4   41880   41901   41913   41931       4
   41877   41865   41880   41883       4   41877   41865   41880   41901       4
   41877   41895  -41913   41901       4   41877   41895   41913   41931       4
   41874   41862   41871   41886       4   41874   41868   41883   41880      10
   41874   41892  -41904   41886       4   41871   41862   41874   41892       4
   41871   41886  -41904   41892       4   41871   41886   41907   41925       6
   41871   41886   41907   41928       6   41868   41859   41865   41877      11
   41868   41859  -41865   41880      11   41868   41874   41862   41871       4
   41868   41874   41892   41904       4   41868   41883   41880   41901      12
   41865   41859   41868   41874      13   41865   41859  -41868   41883      13
   41865   41877   41895   41913       4   41865   41880  -41883   41868      12
   41865   41880  -41901   41913       4   41862   41856   41859   41865      10
   41862   41856  -41859   41868      10   41862   41871   41886   41904       4
   41862   41871   41886   41907       4   41862   41874   41868   41883       9
   41862   41874  -41892   41904       4   41859   41856   41862   41871      14
   41859   41856  -41862   41874      14   41859   41865   41877   41895       4
   41859   41865  -41880   41883       4   41859   41865   41880   41901       4
   41859   41868  -41874   41862      15   41859   41868   41874   41892      15
   41859   41868  -41883   41880      10   41856   41859   41865   41877       9
   41856   41859   41865   41880       9   41856   41859  -41868   41874      13
   41856   41859   41868   41883      13   41856   41862   41871   41886       4
   41856   41862  -41874   41868       4   41856   41862   41874   41892       4
   42195   42210   42213   42225       3   42186   42195   42210   42213       3
   42177   42186   42195   42210       3   42168   42177   42186   42195       3
   42156   42168   42177   42186       3   42138   42156   42168   42177       3
   42123   42138   42156   42168       3   42120   42099   42117   42126       4
   42120   42132  -42147   42126       4   42117   42099   42120   42132       4
   42117   42126  -42147   42132       4   42105   42123   42138   42156       5
   42099   42117   42126   42147       4   42099   42120  -42132   42147       4
   42096   42078   42099   42117       6   42096   42078   42099   42120       6
   42093   42105   42123   42138       7   42087   42105   42123   42138       7
   42084   42096   42078   42099       4   42078   42099   42117   42126       4
   42078   42099   42120   42132       4   42075   42060   42066   42084       9
   42075   42072   42093   42105       4   42072   42057   42069   42087       4
   42072   42093  -42105   42087       4   42072   42093   42105   42123       4
   42069   42057   42072   42075       4   42069   42057   42072   42093       4
   42069   42087  -42105   42093       4   42069   42087   42105   42123       4
   42066   42054   42063   42078       4   42066   42060   42075   42072      10
   42066   42084  -42096   42078       4   42063   42054   42066   42084       4
   42063   42078  -42096   42084       4   42063   42078   42099   42117       6
   42063   42078   42099   42120       6   42060   42051   42057   42069      11
   42060   42051  -42057   42072      11   42060   42066   42054   42063       4
   42060   42066   42084   42096       4   42060   42075   42072   42093      12
   42057   42051   42060   42066      13   42057   42051  -42060   42075      13
   42057   42069   42087   42105       4   42057   42072  -42075   42060      12
   42057   42072  -42093   42105       4   42054   42048   42051   42057      10
   42054   42048  -42051   42060      10   42054   42063   42078   42096       4
   42054   42063   42078   42099       4   42054   42066   42060   42075       9
   42054   42066  -42084   42096       4   42051   42048   42054   42063      14
   42051   42048  -42054   42066      14   42051   42057   42069   42087       4
   42051   42057  -42072   42075       4   42051   42057   42072   42093       4
   42051   42060  -42066   42054      15   42051   42060   42066   42084      15
   42051   42060  -42075   42072      10   42048   42051   42057   42069       9
   42048   42051   42057   42072       9   42048   42051  -42060   42066      13
   42048   42051   42060   42075      13   42048   42054   42063   42078       4
   42048   42054  -42066   42060       4   42048   42054   42066   42084       4
   42387   42402   42405   42417       3   42378   42387   42402   42405       3
   42369   42378   42387   42402       3   42360   42369   42378   42387       3
   42348   42360   42369   42378       3   42330   42348   42360   42369       3
   42315   42330   42348   42360       3   42312   42291   42309   42318       4
   42312   42324  -42339   42318       4   42309   42291   42312   42324       4
   42309   42318  -42339   42324       4   42297   42315   42330   42348       5
   42291   42309   42318   42339       4   42291   42312  -42324   42339       4
   42288   42270   42291   42309       6   42288   42270   42291   42312       6
   42285   42297   42315   42330       7   42279   42297   42315   42330       7
   42276   42288   42270   42291       4   42270   42291   42309   42318       4
   42270   42291   42312   42324       4   42267   42252   42258   42276       9
   42267   42264   42285   42297       4   42264   42249   42261   42279       4
   42264   42285  -42297   42279       4   42264   42285   42297   42315       4
   42261   42249   42264   42267       4   42261   42249   42264   42285       4
   42261   42279  -42297   42285       4   42261   42279   42297   42315       4
   42258   42246   42255   42270       4   42258   42252   42267   42264      10
   42258   42276  -42288   42270       4   42255   42246   42258   42276       4
   42255   42270  -42288   42276       4   42255   42270   42291   42309       6
   42255   42270   42291   42312       6   42252   42243   42249   42261      11
   42252   42243  -42249   42264      11   42252   42258   42246   42255       4
   42252   42258   42276   42288       4   42252   42267   42264   42285      12
   42249   42243   42252   42258      13   42249   42243  -42252   42267      13
   42249   42261   42279   42297       4   42249   42264  -42267   42252      12
   42249   42264  -42285   42297       4   42246   42240   42243   42249      10
   42246   42240  -42243   42252      10   42246   42255   42270   42288       4
   42246   42255   42270   42291       4   42246   42258   42252   42267       9
   42246   42258  -42276   42288       4   42243   42240   42246   42255      14
   42243   42240  -42246   42258      14   42243   42249   42261   42279       4
   42243   42249  -42264   42267       4   42243   42249   42264   42285       4
   42243   42252  -42258   42246      15   42243   42252   42258   42276      15
   42243   42252  -42267   42264      10   42240   42243   42249   42261       9
   42240   42243   42249   42264       9   42240   42243  -42252   42258      13
   42240   42243   42252   42267      13   42240   42246   42255   42270       4
   42240   42246  -42258   42252       4   42240   42246   42258   42276       4
   42579   42594   42597   42609       3   42570   42579   42594   42597       3
   42561   42570   42579   42594       3   42552   42561   42570   42579       3
   42540   42552   42561   42570       3   42522   42540   42552   42561       3
   42507   42522   42540   42552       3   42504   42483   42501   42510       4
   42504   42516  -42531   42510       4   42501   42483   42504   42516       4
   42501   42510  -42531   42516       4   42489   42507   42522   42540       5
   42483   42501   42510   42531       4   42483   42504  -42516   42531       4
   42480   42462   42483   42501       6   42480   42462   42483   42504       6
   42477   42489   42507   42522       7   42471   42489   42507   42522       7
   42468   42480   42462   42483       4   42462   42483   42501   42510       4
   42462   42483   42504   42516       4   42459   42444   42450   42468       9
   42459   42456   42477   42489       4   42456   42441   42453   42471       4
   42456   42477  -42489   42471       4   42456   42477   42489   42507       4
   42453   42441   42456   42459       4   42453   42441   42456   42477       4
   42453   42471  -42489   42477       4   42453   42471   42489   42507       4
   42450   42438   42447   42462       4   42450   42444   42459   42456      10
   42450   42468  -42480   42462       4   42447   42438   42450   42468       4
   42447   42462  -42480   42468       4   42447   42462   42483   42501       6
   42447   42462   42483   42504       6   42444   42435   42441   42453      11
   42444   42435  -42441   42456      11   42444   42450   42438   42447       4
   42444   42450   42468   42480       4   42444   42459   42456   42477      12
   42441   42435   42444   42450      13   42441   42435  -42444   42459      13
   42441   42453   42471   42489       4   42441   42456  -42459   42444      12
   42441   42456  -42477   42489       4   42438   42432   42435   42441      10
   42438   42432  -42435   42444      10   42438   42447   42462   42480       4
   42438   42447   42462   42483       4   42438   42450   42444   42459       9
   42438   42450  -42468   42480       4   42435   42432   42438   42447      14
   42435   42432  -42438   42450      14   42435   42441   42453   42471       4
   42435   42441  -42456   42459       4   42435   42441   42456   42477       4
   42435   42444  -42450   42438      15   42435   42444   42450   42468      15
   42435   42444  -42459   42456      10   42432   42435   42441   42453       9
   42432   42435   42441   42456       9   42432   42435  -42444   42450      13
   42432   42435   42444   42459      13   42432   42438   42447   42462       4
   42432   42438  -42450   42444       4   42432   42438   42450   42468       4
   42771   42786   42789   42801       3   42762   42771   42786   42789       3
   42753   42762   42771   42786       3   42744   42753   42762   42771       3
   42732   42744   42753   42762       3   42714   42732   42744   42753       3
   42699   42714   42732   42744       3   42696   42675   42693   42702       4
   42696   42708  -42723   42702       4   42693   42675   42696   42708       4
   42693   42702  -42723   42708       4   42681   42699   42714   42732       5
   42675   42693   42702   42723       4   42675   42696  -42708   42723       4
   42672   42654   42675   42693       6   42672   42654   42675   42696       6
   42669   42681   42699   42714       7   42663   42681   42699   42714       7
   42660   42672   42654   42675       4   42654   42675   42693   42702       4
   42654   42675   42696   42708       4   42651   42636   42642   42660       9
   42651   42648   42669   42681       4   42648   42633   42645   42663       4
   42648   42669  -42681   42663       4   42648   42669   42681   42699       4
   42645   42633   42648   42651       4   42645   42633   42648   42669       4
   42645   42663  -42681   42669       4   42645   42663   42681   42699       4
   42642   42630   42639   42654       4   42642   42636   42651   42648      10
   42642   42660  -42672   42654       4   42639   42630   42642   42660       4
   42639   42654  -42672   42660       4   42639   42654   42675   42693       6
   42639   42654   42675   42696       6   42636   42627   42633   42645      11
   42636   42627  -42633   42648      11   42636   42642   42630   42639       4
   42636   42642   42660   42672       4   42636   42651   42648   42669      12
   42633   42627   42636   42642      13   42633   42627  -42636   42651      13
   42633   42645   42663   42681       4   42633   42648  -42651   42636      12
   42633   42648  -42669   42681       4   42630   42624   42627   42633      10
   42630   42624  -42627   42636      10   42630   42639   42654   42672       4
   42630   42639   42654   42675       4   42630   42642   42636   42651       9
   42630   42642  -42660   42672       4   42627   42624   42630   42639      14
   42627   42624  -42630   42642      14   42627   42633   42645   42663       4
   42627   42633  -42648   42651       4   42627   42633   42648   42669       4
   42627   42636  -42642   42630      15   42627   42636   42642   42660      15
   42627   42636  -42651   42648      10   42624   42627   42633   42645       9
   42624   42627   42633   42648       9   42624   42627  -42636   42642      13
   42624   42627   42636   42651      13   42624   42630   42639   42654       4
   42624   42630  -42642   42636       4   42624   42630   42642   42660       4
   42963   42978   42981   42993       3   42954   42963   42978   42981       3
   42945   42954   42963   42978       3   42936   42945   42954   42963       3
   42924   42936   42945   42954       3   42906   42924   42936   42945       3
   42891   42906   42924   42936       3   42888   42867   42885   42894       4
   42888   42900  -42915   42894       4   42885   42867   42888   42900       4
   42885   42894  -42915   42900       4   42873   42891   42906   42924       5
   42867   42885   42894   42915       4   42867   42888  -42900   42915       4
   42864   42846   42867   42885       6   42864   42846   42867   42888       6
   42861   42873   42891   42906       7   42855   42873   42891   42906       7
   42852   42864   42846   42867       4   42846   42867   42885   42894       4
   42846   42867   42888   42900       4   42843   42828   42834   42852       9
   42843   42840   42861   42873       4   42840   42825   42837   42855       4
   42840   42861  -42873   42855       4   42840   42861   42873   42891       4
   42837   42825   42840   42843       4   42837   42825   42840   42861       4
   42837   42855  -42873   42861       4   42837   42855   42873   42891       4
   42834   42822   42831   42846       4   42834   42828   42843   42840      10
   42834   42852  -42864   42846       4   42831   42822   42834   42852       4
   42831   42846  -42864   42852       4   42831   42846   42867   42885       6
   42831   42846   42867   42888       6   42828   42819   42825   42837      11
   42828   42819  -42825   42840      11   42828   42834   42822   42831       4
   42828   42834   42852   42864       4   42828   42843   42840   42861      12
   42825   42819   42828   42834      13   42825   42819  -42828   42843      13
   42825   42837   42855   42873       4   42825   42840  -42843   42828      12
   42825   42840  -42861   42873       4   42822   42816   42819   42825      10
   42822   42816  -42819   42828      10   42822   42831   42846   42864       4
   42822   42831   42846   42867       4   42822   42834   42828   42843       9
   42822   42834  -42852   42864       4   42819   42816   42822   42831      14
   42819   42816  -42822   42834      14   42819   42825   42837   42855       4
   42819   42825  -42840   42843       4   42819   42825   42840   42861       4
   42819   42828  -42834   42822      15   42819   42828   42834   42852      15
   42819   42828  -42843   42840      10   42816   42819   42825   42837       9
   42816   42819   42825   42840       9   42816   42819  -42828   42834      13
   42816   42819   42828   42843      13   42816   42822   42831   42846       4
   42816   42822  -42834   42828       4   42816   42822   42834   42852       4
   43155   43170   43173   43185       3   43146   43155   43170   43173       3
   43137   43146   43155   43170       3   43128   43137   43146   43155       3
   43116   43128   43137   43146       3   43098   43116   43128   43137       3
   43083   43098   43116   43128       3   43080   43059   43077   43086       4
   43080   43092  -43107   43086       4   43077   43059   43080   43092       4
   43077   43086  -43107   43092       4   43065   43083   43098   43116       5
   43059   43077   43086   43107       4   43059   43080  -43092   43107       4
   43056   43038   43059   43077       6   43056   43038   43059   43080       6
   43053   43065   43083   43098       7   43047   43065   43083   43098       7
   43044   43056   43038   43059       4   43038   43059   43077   43086       4
   43038   43059   43080   43092       4   43035   43020   43026   43044       9
   43035   43032   43053   43065       4   43032   43017   43029   43047       4
   43032   43053  -43065   43047       4   43032   43053   43065   43083       4
   43029   43017   43032   43035       4   43029   43017   43032   43053       4
   43029   43047  -43065   43053       4   43029   43047   43065   43083       4
   43026   43014   43023   43038       4   43026   43020   43035   43032      10
   43026   43044  -43056   43038       4   43023   43014   43026   43044       4
   43023   43038  -43056   43044       4   43023   43038   43059   43077       6
   43023   43038   43059   43080       6   43020   43011   43017   43029      11
   43020   43011  -43017   43032      11   43020   43026   43014   43023       4
   43020   43026   43044   43056       4   43020   43035   43032   43053      12
   43017   43011   43020   43026      13   43017   43011  -43020   43035      13
   43017   43029   43047   43065       4   43017   43032  -43035   43020      12
   43017   43032  -43053   43065       4   43014   43008   43011   43017      10
   43014   43008  -43011   43020      10   43014   43023   43038   43056       4
   43014   43023   43038   43059       4   43014   43026   43020   43035       9
   43014   43026  -43044   43056       4   43011   43008   43014   43023      14
   43011   43008  -43014   43026      14   43011   43017   43029   43047       4
   43011   43017  -43032   43035       4   43011   43017   43032   43053       4
   43011   43020  -43026   43014      15   43011   43020   43026   43044      15
   43011   43020  -43035   43032      10   43008   43011   43017   43029       9
   43008   43011   43017   43032       9   43008   43011  -43020   43026      13
   43008   43011   43020   43035      13   43008   43014   43023   43038       4
   43008   43014  -43026   43020       4   43008   43014   43026   43044       4
   43347   43362   43365   43377       3   43338   43347   43362   43365       3
   43329   43338   43347   43362       3   43320   43329   43338   43347       3
   43308   43320   43329   43338       3   43290   43308   43320   43329       3
   43275   43290   43308   43320       3   43272   43251   43269   43278       4
   43272   43284  -43299   43278       4   43269   43251   43272   43284       4
   43269   43278  -43299   43284       4   43257   43275   43290   43308       5
   43251   43269   43278   43299       4   43251   43272  -43284   43299       4
   43248   43230   43251   43269       6   43248   43230   43251   43272       6
   43245   43257   43275   43290       7   43239   43257   43275   43290       7
   43236   43248   43230   43251       4   43230   43251   43269   43278       4
   43230   43251   43272   43284       4   43227   43212   43218   43236       9
   43227   43224   43245   43257       4   43224   43209   43221   43239       4
   43224   43245  -43257   43239       4   43224   43245   43257   43275       4
   43221   43209   43224   43227       4   43221   43209   43224   43245       4
   43221   43239  -43257   43245       4   43221   43239   43257   43275       4
   43218   43206   43215   43230       4   43218   43212   43227   43224      10
   43218   43236  -43248   43230       4   43215   43206   43218   43236       4
   43215   43230  -43248   43236       4   43215   43230   43251   43269       6
   43215   43230   43251   43272       6   43212   43203   43209   43221      11
   43212   43203  -43209   43224      11   43212   43218   43206   43215       4
   43212   43218   43236   43248       4   43212   43227   43224   43245      12
   43209   43203   43212   43218      13   43209   43203  -43212   43227      13
   43209   43221   43239   43257       4   43209   43224  -43227   43212      12
   43209   43224  -43245   43257       4   43206   43200   43203   43209      10
   43206   43200  -43203   43212      10   43206   43215   43230   43248       4
   43206   43215   43230   43251       4   43206   43218   43212   43227       9
   43206   43218  -43236   43248       4   43203   43200   43206   43215      14
   43203   43200  -43206   43218      14   43203   43209   43221   43239       4
   43203   43209  -43224   43227       4   43203   43209   43224   43245       4
   43203   43212  -43218   43206      15   43203   43212   43218   43236      15
   43203   43212  -43227   43224      10   43200   43203   43209   43221       9
   43200   43203   43209   43224       9   43200   43203  -43212   43218      13
   43200   43203   43212   43227      13   43200   43206   43215   43230       4
   43200   43206  -43218   43212       4   43200   43206   43218   43236       4
   43539   43554   43557   43569       3   43530   43539   43554   43557       3
   43521   43530   43539   43554       3   43512   43521   43530   43539       3
   43500   43512   43521   43530       3   43482   43500   43512   43521       3
   43467   43482   43500   43512       3   43464   43443   43461   43470       4
   43464   43476  -43491   43470       4   43461   43443   43464   43476       4
   43461   43470  -43491   43476       4   43449   43467   43482   43500       5
   43443   43461   43470   43491       4   43443   43464  -43476   43491       4
   43440   43422   43443   43461       6   43440   43422   43443   43464       6
   43437   43449   43467   43482       7   43431   43449   43467   43482       7
   43428   43440   43422   43443       4   43422   43443   43461   43470       4
   43422   43443   43464   43476       4   43419   43404   43410   43428       9
   43419   43416   43437   43449       4   43416   43401   43413   43431       4
   43416   43437  -43449   43431       4   43416   43437   43449   43467       4
   43413   43401   43416   43419       4   43413   43401   43416   43437       4
   43413   43431  -43449   43437       4   43413   43431   43449   43467       4
   43410   43398   43407   43422       4   43410   43404   43419   43416      10
   43410   43428  -43440   43422       4   43407   43398   43410   43428       4
   43407   43422  -43440   43428       4   43407   43422   43443   43461       6
   43407   43422   43443   43464       6   43404   43395   43401   43413      11
   43404   43395  -43401   43416      11   43404   43410   43398   43407       4
   43404   43410   43428   43440       4   43404   43419   43416   43437      12
   43401   43395   43404   43410      13   43401   43395  -43404   43419      13
   43401   43413   43431   43449       4   43401   43416  -43419   43404      12
   43401   43416  -43437   43449       4   43398   43392   43395   43401      10
   43398   43392  -43395   43404      10   43398   43407   43422   43440       4
   43398   43407   43422   43443       4   43398   43410   43404   43419       9
   43398   43410  -43428   43440       4   43395   43392   43398   43407      14
   43395   43392  -43398   43410      14   43395   43401   43413   43431       4
   43395   43401  -43416   43419       4   43395   43401   43416   43437       4
   43395   43404  -43410   43398      15   43395   43404   43410   43428      15
   43395   43404  -43419   43416      10   43392   43395   43401   43413       9
   43392   43395   43401   43416       9   43392   43395  -43404   43410      13
   43392   43395   43404   43419      13   43392   43398   43407   43422       4
   43392   43398  -43410   43404       4   43392   43398   43410   43428       4
   43731   43746   43749   43761       3   43722   43731   43746   43749       3
   43713   43722   43731   43746       3   43704   43713   43722   43731       3
   43692   43704   43713   43722       3   43674   43692   43704   43713       3
   43659   43674   43692   43704       3   43656   43635   43653   43662       4
   43656   43668  -43683   43662       4   43653   43635   43656   43668       4
   43653   43662  -43683   43668       4   43641   43659   43674   43692       5
   43635   43653   43662   43683       4   43635   43656  -43668   43683       4
   43632   43614   43635   43653       6   43632   43614   43635   43656       6
   43629   43641   43659   43674       7   43623   43641   43659   43674       7
   43620   43632   43614   43635       4   43614   43635   43653   43662       4
   43614   43635   43656   43668       4   43611   43596   43602   43620       9
   43611   43608   43629   43641       4   43608   43593   43605   43623       4
   43608   43629  -43641   43623       4   43608   43629   43641   43659       4
   43605   43593   43608   43611       4   43605   43593   43608   43629       4
   43605   43623  -43641   43629       4   43605   43623   43641   43659       4
   43602   43590   43599   43614       4   43602   43596   43611   43608      10
   43602   43620  -43632   43614       4   43599   43590   43602   43620       4
   43599   43614  -43632   43620       4   43599   43614   43635   43653       6
   43599   43614   43635   43656       6   43596   43587   43593   43605      11
   43596   43587  -43593   43608      11   43596   43602   43590   43599       4
   43596   43602   43620   43632       4   43596   43611   43608   43629      12
   43593   43587   43596   43602      13   43593   43587  -43596   43611      13
   43593   43605   43623   43641       4   43593   43608  -43611   43596      12
   43593   43608  -43629   43641       4   43590   43584   43587   43593      10
   43590   43584  -43587   43596      10   43590   43599   43614   43632       4
   43590   43599   43614   43635       4   43590   43602   43596   43611       9
   43590   43602  -43620   43632       4   43587   43584   43590   43599      14
   43587   43584  -43590   43602      14   43587   43593   43605   43623       4
   43587   43593  -43608   43611       4   43587   43593   43608   43629       4
   43587   43596  -43602   43590      15   43587   43596   43602   43620      15
   43587   43596  -43611   43608      10   43584   43587   43593   43605       9
   43584   43587   43593   43608       9   43584   43587  -43596   43602      13
   43584   43587   43596   43611      13   43584   43590   43599   43614       4
   43584   43590  -43602   43596       4   43584   43590   43602   43620       4
   43923   43938   43941   43953       3   43914   43923   43938   43941       3
   43905   43914   43923   43938       3   43896   43905   43914   43923       3
   43884   43896   43905   43914       3   43866   43884   43896   43905       3
   43851   43866   43884   43896       3   43848   43827   43845   43854       4
   43848   43860  -43875   43854       4   43845   43827   43848   43860       4
   43845   43854  -43875   43860       4   43833   43851   43866   43884       5
   43827   43845   43854   43875       4   43827   43848  -43860   43875       4
   43824   43806   43827   43845       6   43824   43806   43827   43848       6
   43821   43833   43851   43866       7   43815   43833   43851   43866       7
   43812   43824   43806   43827       4   43806   43827   43845   43854       4
   43806   43827   43848   43860       4   43803   43788   43794   43812       9
   43803   43800   43821   43833       4   43800   43785   43797   43815       4
   43800   43821  -43833   43815       4   43800   43821   43833   43851       4
   43797   43785   43800   43803       4   43797   43785   43800   43821       4
   43797   43815  -43833   43821       4   43797   43815   43833   43851       4
   43794   43782   43791   43806       4   43794   43788   43803   43800      10
   43794   43812  -43824   43806       4   43791   43782   43794   43812       4
   43791   43806  -43824   43812       4   43791   43806   43827   43845       6
   43791   43806   43827   43848       6   43788   43779   43785   43797      11
   43788   43779  -43785   43800      11   43788   43794   43782   43791       4
   43788   43794   43812   43824       4   43788   43803   43800   43821      12
   43785   43779   43788   43794      13   43785   43779  -43788   43803      13
   43785   43797   43815   43833       4   43785   43800  -43803   43788      12
   43785   43800  -43821   43833       4   43782   43776   43779   43785      10
   43782   43776  -43779   43788      10   43782   43791   43806   43824       4
   43782   43791   43806   43827       4   43782   43794   43788   43803       9
   43782   43794  -43812   43824       4   43779   43776   43782   43791      14
   43779   43776  -43782   43794      14   43779   43785   43797   43815       4
   43779   43785  -43800   43803       4   43779   43785   43800   43821       4
   43779   43788  -43794   43782      15   43779   43788   43794   43812      15
   43779   43788  -43803   43800      10   43776   43779   43785   43797       9
   43776   43779   43785   43800       9   43776   43779  -43788   43794      13
   43776   43779   43788   43803      13   43776   43782   43791   43806       4
   43776   43782  -43794   43788       4   43776   43782   43794   43812       4
   44115   44130   44133   44145       3   44106   44115   44130   44133       3
   44097   44106   44115   44130       3   44088   44097   44106   44115       3
   44076   44088   44097   44106       3   44058   44076   44088   44097       3
   44043   44058   44076   44088       3   44040   44019   44037   44046       4
   44040   44052  -44067   44046       4   44037   44019   44040   44052       4
   44037   44046  -44067   44052       4   44025   44043   44058   44076       5
   44019   44037   44046   44067       4   44019   44040  -44052   44067       4
   44016   43998   44019   44037       6   44016   43998   44019   44040       6
   44013   44025   44043   44058       7   44007   44025   44043   44058       7
   44004   44016   43998   44019       4   43998   44019   44037   44046       4
   43998   44019   44040   44052       4   43995   43980   43986   44004       9
   43995   43992   44013   44025       4   43992   43977   43989   44007       4
   43992   44013  -44025   44007       4   43992   44013   44025   44043       4
   43989   43977   43992   43995       4   43989   43977   43992   44013       4
   43989   44007  -44025   44013       4   43989   44007   44025   44043       4
   43986   43974   43983   43998       4   43986   43980   43995   43992      10
   43986   44004  -44016   43998       4   43983   43974   43986   44004       4
   43983   43998  -44016   44004       4   43983   43998   44019   44037       6
   43983   43998   44019   44040       6   43980   43971   43977   43989      11
   43980   43971  -43977   43992      11   43980   43986   43974   43983       4
   43980   43986   44004   44016       4   43980   43995   43992   44013      12
   43977   43971   43980   43986      13   43977   43971  -43980   43995      13
   43977   43989   44007   44025       4   43977   43992  -43995   43980      12
   43977   43992  -44013   44025       4   43974   43968   43971   43977      10
   43974   43968  -43971   43980      10   43974   43983   43998   44016       4
   43974   43983   43998   44019       4   43974   43986   43980   43995       9
   43974   43986  -44004   44016       4   43971   43968   43974   43983      14
   43971   43968  -43974   43986      14   43971   43977   43989   44007       4
   43971   43977  -43992   43995       4   43971   43977   43992   44013       4
   43971   43980  -43986   43974      15   43971   43980   43986   44004      15
   43971   43980  -43995   43992      10   43968   43971   43977   43989       9
   43968   43971   43977   43992       9   43968   43971  -43980   43986      13
   43968   43971   43980   43995      13   43968   43974   43983   43998       4
   43968   43974  -43986   43980       4   43968   43974   43986   44004       4
   44307   44322   44325   44337       3   44298   44307   44322   44325       3
   44289   44298   44307   44322       3   44280   44289   44298   44307       3
   44268   44280   44289   44298       3   44250   44268   44280   44289       3
   44235   44250   44268   44280       3   44232   44211   44229   44238       4
   44232   44244  -44259   44238       4   44229   44211   44232   44244       4
   44229   44238  -44259   44244       4   44217   44235   44250   44268       5
   44211   44229   44238   44259       4   44211   44232  -44244   44259       4
   44208   44190   44211   44229       6   44208   44190   44211   44232       6
   44205   44217   44235   44250       7   44199   44217   44235   44250       7
   44196   44208   44190   44211       4   44190   44211   44229   44238       4
   44190   44211   44232   44244       4   44187   44172   44178   44196       9
   44187   44184   44205   44217       4   44184   44169   44181   44199       4
   44184   44205  -44217   44199       4   44184   44205   44217   44235       4
   44181   44169   44184   44187       4   44181   44169   44184   44205       4
   44181   44199  -44217   44205       4   44181   44199   44217   44235       4
   44178   44166   44175   44190       4   44178   44172   44187   44184      10
   44178   44196  -44208   44190       4   44175   44166   44178   44196       4
   44175   44190  -44208   44196       4   44175   44190   44211   44229       6
   44175   44190   44211   44232       6   44172   44163   44169   44181      11
   44172   44163  -44169   44184      11   44172   44178   44166   44175       4
   44172   44178   44196   44208       4   44172   44187   44184   44205      12
   44169   44163   44172   44178      13   44169   44163  -44172   44187      13
   44169   44181   44199   44217       4   44169   44184  -44187   44172      12
   44169   44184  -44205   44217       4   44166   44160   44163   44169      10
   44166   44160  -44163   44172      10   44166   44175   44190   44208       4
   44166   44175   44190   44211       4   44166   44178   44172   44187       9
   44166   44178  -44196   44208       4   44163   44160   44166   44175      14
   44163   44160  -44166   44178      14   44163   44169   44181   44199       4
   44163   44169  -44184   44187       4   44163   44169   44184   44205       4
   44163   44172  -44178   44166      15   44163   44172   44178   44196      15
   44163   44172  -44187   44184      10   44160   44163   44169   44181       9
   44160   44163   44169   44184       9   44160   44163  -44172   44178      13
   44160   44163   44172   44187      13   44160   44166   44175   44190       4
   44160   44166  -44178   44172       4   44160   44166   44178   44196       4
   44499   44514   44517   44529       3   44490   44499   44514   44517       3
   44481   44490   44499   44514       3   44472   44481   44490   44499       3
   44460   44472   44481   44490       3   44442   44460   44472   44481       3
   44427   44442   44460   44472       3   44424   44403   44421   44430       4
   44424   44436  -44451   44430       4   44421   44403   44424   44436       4
   44421   44430  -44451   44436       4   44409   44427   44442   44460       5
   44403   44421   44430   44451       4   44403   44424  -44436   44451       4
   44400   44382   44403   44421       6   44400   44382   44403   44424       6
   44397   44409   44427   44442       7   44391   44409   44427   44442       7
   44388   44400   44382   44403       4   44382   44403   44421   44430       4
   44382   44403   44424   44436       4   44379   44364   44370   44388       9
   44379   44376   44397   44409       4   44376   44361   44373   44391       4
   44376   44397  -44409   44391       4   44376   44397   44409   44427       4
   44373   44361   44376   44379       4   44373   44361   44376   44397       4
   44373   44391  -44409   44397       4   44373   44391   44409   44427       4
   44370   44358   44367   44382       4   44370   44364   44379   44376      10
   44370   44388  -44400   44382       4   44367   44358   44370   44388       4
   44367   44382  -44400   44388       4   44367   44382   44403   44421       6
   44367   44382   44403   44424       6   44364   44355   44361   44373      11
   44364   44355  -44361   44376      11   44364   44370   44358   44367       4
   44364   44370   44388   44400       4   44364   44379   44376   44397      12
   44361   44355   44364   44370      13   44361   44355  -44364   44379      13
   44361   44373   44391   44409       4   44361   44376  -44379   44364      12
   44361   44376  -44397   44409       4   44358   44352   44355   44361      10
   44358   44352  -44355   44364      10   44358   44367   44382   44400       4
   44358   44367   44382   44403       4   44358   44370   44364   44379       9
   44358   44370  -44388   44400       4   44355   44352   44358   44367      14
   44355   44352  -44358   44370      14   44355   44361   44373   44391       4
   44355   44361  -44376   44379       4   44355   44361   44376   44397       4
   44355   44364  -44370   44358      15   44355   44364   44370   44388      15
   44355   44364  -44379   44376      10   44352   44355   44361   44373       9
   44352   44355   44361   44376       9   44352   44355  -44364   44370      13
   44352   44355   44364   44379      13   44352   44358   44367   44382       4
   44352   44358  -44370   44364       4   44352   44358   44370   44388       4
   44691   44706   44709   44721       3   44682   44691   44706   44709       3
   44673   44682   44691   44706       3   44664   44673   44682   44691       3
   44652   44664   44673   44682       3   44634   44652   44664   44673       3
   44619   44634   44652   44664       3   44616   44595   44613   44622       4
   44616   44628  -44643   44622       4   44613   44595   44616   44628       4
   44613   44622  -44643   44628       4   44601   44619   44634   44652       5
   44595   44613   44622   44643       4   44595   44616  -44628   44643       4
   44592   44574   44595   44613       6   44592   44574   44595   44616       6
   44589   44601   44619   44634       7   44583   44601   44619   44634       7
   44580   44592   44574   44595       4   44574   44595   44613   44622       4
   44574   44595   44616   44628       4   44571   44556   44562   44580       9
   44571   44568   44589   44601       4   44568   44553   44565   44583       4
   44568   44589  -44601   44583       4   44568   44589   44601   44619       4
   44565   44553   44568   44571       4   44565   44553   44568   44589       4
   44565   44583  -44601   44589       4   44565   44583   44601   44619       4
   44562   44550   44559   44574       4   44562   44556   44571   44568      10
   44562   44580  -44592   44574       4   44559   44550   44562   44580       4
   44559   44574  -44592   44580       4   44559   44574   44595   44613       6
   44559   44574   44595   44616       6   44556   44547   44553   44565      11
   44556   44547  -44553   44568      11   44556   44562   44550   44559       4
   44556   44562   44580   44592       4   44556   44571   44568   44589      12
   44553   44547   44556   44562      13   44553   44547  -44556   44571      13
   44553   44565   44583   44601       4   44553   44568  -44571   44556      12
   44553   44568  -44589   44601       4   44550   44544   44547   44553      10
   44550   44544  -44547   44556      10   44550   44559   44574   44592       4
   44550   44559   44574   44595       4   44550   44562   44556   44571       9
   44550   44562  -44580   44592       4   44547   44544   44550   44559      14
   44547   44544  -44550   44562      14   44547   44553   44565   44583       4
   44547   44553  -44568   44571       4   44547   44553   44568   44589       4
   44547   44556  -44562   44550      15   44547   44556   44562   44580      15
   44547   44556  -44571   44568      10   44544   44547   44553   44565       9
   44544   44547   44553   44568       9   44544   44547  -44556   44562      13
   44544   44547   44556   44571      13   44544   44550   44559   44574       4
   44544   44550  -44562   44556       4   44544   44550   44562   44580       4
   44883   44898   44901   44913       3   44874   44883   44898   44901       3
   44865   44874   44883   44898       3   44856   44865   44874   44883       3
   44844   44856   44865   44874       3   44826   44844   44856   44865       3
   44811   44826   44844   44856       3   44808   44787   44805   44814       4
   44808   44820  -44835   44814       4   44805   44787   44808   44820       4
   44805   44814  -44835   44820       4   44793   44811   44826   44844       5
   44787   44805   44814   44835       4   44787   44808  -44820   44835       4
   44784   44766   44787   44805       6   44784   44766   44787   44808       6
   44781   44793   44811   44826       7   44775   44793   44811   44826       7
   44772   44784   44766   44787       4   44766   44787   44805   44814       4
   44766   44787   44808   44820       4   44763   44748   44754   44772       9
   44763   44760   44781   44793       4   44760   44745   44757   44775       4
   44760   44781  -44793   44775       4   44760   44781   44793   44811       4
   44757   44745   44760   44763       4   44757   44745   44760   44781       4
   44757   44775  -44793   44781       4   44757   44775   44793   44811       4
   44754   44742   44751   44766       4   44754   44748   44763   44760      10
   44754   44772  -44784   44766       4   44751   44742   44754   44772       4
   44751   44766  -44784   44772       4   44751   44766   44787   44805       6
   44751   44766   44787   44808       6   44748   44739   44745   44757      11
   44748   44739  -44745   44760      11   44748   44754   44742   44751       4
   44748   44754   44772   44784       4   44748   44763   44760   44781      12
   44745   44739   44748   44754      13   44745   44739  -44748   44763      13
   44745   44757   44775   44793       4   44745   44760  -44763   44748      12
   44745   44760  -44781   44793       4   44742   44736   44739   44745      10
   44742   44736  -44739   44748      10   44742   44751   44766   44784       4
   44742   44751   44766   44787       4   44742   44754   44748   44763       9
   44742   44754  -44772   44784       4   44739   44736   44742   44751      14
   44739   44736  -44742   44754      14   44739   44745   44757   44775       4
   44739   44745  -44760   44763       4   44739   44745   44760   44781       4
   44739   44748  -44754   44742      15   44739   44748   44754   44772      15
   44739   44748  -44763   44760      10   44736   44739   44745   44757       9
   44736   44739   44745   44760       9   44736   44739  -44748   44754      13
   44736   44739   44748   44763      13   44736   44742   44751   44766       4
   44736   44742  -44754   44748       4   44736   44742   44754   44772       4
   45075   45090   45093   45105       3   45066   45075   45090   45093       3
   45057   45066   45075   45090       3   45048   45057   45066   45075       3
   45036   45048   45057   45066       3   45018   45036   45048   45057       3
   45003   45018   45036   45048       3   45000   44979   44997   45006       4
   45000   45012  -45027   45006       4   44997   44979   45000   45012       4
   44997   45006  -45027   45012       4   44985   45003   45018   45036       5
   44979   44997   45006   45027       4   44979   45000  -45012   45027       4
   44976   44958   44979   44997       6   44976   44958   44979   45000       6
   44973   44985   45003   45018       7   44967   44985   45003   45018       7
   44964   44976   44958   44979       4   44958   44979   44997   45006       4
   44958   44979   45000   45012       4   44955   44940   44946   44964       9
   44955   44952   44973   44985       4   44952   44937   44949   44967       4
   44952   44973  -44985   44967       4   44952   44973   44985   45003       4
   44949   44937   44952   44955       4   44949   44937   44952   44973       4
   44949   44967  -44985   44973       4   44949   44967   44985   45003       4
   44946   44934   44943   44958       4   44946   44940   44955   44952      10
   44946   44964  -44976   44958       4   44943   44934   44946   44964       4
   44943   44958  -44976   44964       4   44943   44958   44979   44997       6
   44943   44958   44979   45000       6   44940   44931   44937   44949      11
   44940   44931  -44937   44952      11   44940   44946   44934   44943       4
   44940   44946   44964   44976       4   44940   44955   44952   44973      12
   44937   44931   44940   44946      13   44937   44931  -44940   44955      13
   44937   44949   44967   44985       4   44937   44952  -44955   44940      12
   44937   44952  -44973   44985       4   44934   44928   44931   44937      10
   44934   44928  -44931   44940      10   44934   44943   44958   44976       4
   44934   44943   44958   44979       4   44934   44946   44940   44955       9
   44934   44946  -44964   44976       4   44931   44928   44934   44943      14
   44931   44928  -44934   44946      14   44931   44937   44949   44967       4
   44931   44937  -44952   44955       4   44931   44937   44952   44973       4
   44931   44940  -44946   44934      15   44931   44940   44946   44964      15
   44931   44940  -44955   44952      10   44928   44931   44937   44949       9
   44928   44931   44937   44952       9   44928   44931  -44940   44946      13
   44928   44931   44940   44955      13   44928   44934   44943   44958       4
   44928   44934  -44946   44940       4   44928   44934   44946   44964       4
   45267   45282   45285   45297       3   45258   45267   45282   45285       3
   45249   45258   45267   45282       3   45240   45249   45258   45267       3
   45228   45240   45249   45258       3   45210   45228   45240   45249       3
   45195   45210   45228   45240       3   45192   45171   45189   45198       4
   45192   45204  -45219   45198       4   45189   45171   45192   45204       4
   45189   45198  -45219   45204       4   45177   45195   45210   45228       5
   45171   45189   45198   45219       4   45171   45192  -45204   45219       4
   45168   45150   45171   45189       6   45168   45150   45171   45192       6
   45165   45177   45195   45210       7   45159   45177   45195   45210       7
   45156   45168   45150   45171       4   45150   45171   45189   45198       4
   45150   45171   45192   45204       4   45147   45132   45138   45156       9
   45147   45144   45165   45177       4   45144   45129   45141   45159       4
   45144   45165  -45177   45159       4   45144   45165   45177   45195       4
   45141   45129   45144   45147       4   45141   45129   45144   45165       4
   45141   45159  -45177   45165       4   45141   45159   45177   45195       4
   45138   45126   45135   45150       4   45138   45132   45147   45144      10
   45138   45156  -45168   45150       4   45135   45126   45138   45156       4
   45135   45150  -45168   45156       4   45135   45150   45171   45189       6
   45135   45150   45171   45192       6   45132   45123   45129   45141      11
   45132   45123  -45129   45144      11   45132   45138   45126   45135       4
   45132   45138   45156   45168       4   45132   45147   45144   45165      12
   45129   45123   45132   45138      13   45129   45123  -45132   45147      13
   45129   45141   45159   45177       4   45129   45144  -45147   45132      12
   45129   45144  -45165   45177       4   45126   45120   45123   45129      10
   45126   45120  -45123   45132      10   45126   45135   45150   45168       4
   45126   45135   45150   45171       4   45126   45138   45132   45147       9
   45126   45138  -45156   45168       4   45123   45120   45126   45135      14
   45123   45120  -45126   45138      14   45123   45129   45141   45159       4
   45123   45129  -45144   45147       4   45123   45129   45144   45165       4
   45123   45132  -45138   45126      15   45123   45132   45138   45156      15
   45123   45132  -45147   45144      10   45120   45123   45129   45141       9
   45120   45123   45129   45144       9   45120   45123  -45132   45138      13
   45120   45123   45132   45147      13   45120   45126   45135   45150       4
   45120   45126  -45138   45132       4   45120   45126   45138   45156       4
   45459   45474   45477   45489       3   45450   45459   45474   45477       3
   45441   45450   45459   45474       3   45432   45441   45450   45459       3
   45420   45432   45441   45450       3   45402   45420   45432   45441       3
   45387   45402   45420   45432       3   45384   45363   45381   45390       4
   45384   45396  -45411   45390       4   45381   45363   45384   45396       4
   45381   45390  -45411   45396       4   45369   45387   45402   45420       5
   45363   45381   45390   45411       4   45363   45384  -45396   45411       4
   45360   45342   45363   45381       6   45360   45342   45363   45384       6
   45357   45369   45387   45402       7   45351   45369   45387   45402       7
   45348   45360   45342   45363       4   45342   45363   45381   45390       4
   45342   45363   45384   45396       4   45339   45324   45330   45348       9
   45339   45336   45357   45369       4   45336   45321   45333   45351       4
   45336   45357  -45369   45351       4   45336   45357   45369   45387       4
   45333   45321   45336   45339       4   45333   45321   45336   45357       4
   45333   45351  -45369   45357       4   45333   45351   45369   45387       4
   45330   45318   45327   45342       4   45330   45324   45339   45336      10
   45330   45348  -45360   45342       4   45327   45318   45330   45348       4
   45327   45342  -45360   45348       4   45327   45342   45363   45381       6
   45327   45342   45363   45384       6   45324   45315   45321   45333      11
   45324   45315  -45321   45336      11   45324   45330   45318   45327       4
   45324   45330   45348   45360       4   45324   45339   45336   45357      12
   45321   45315   45324   45330      13   45321   45315  -45324   45339      13
   45321   45333   45351   45369       4   45321   45336  -45339   45324      12
   45321   45336  -45357   45369       4   45318   45312   45315   45321      10
   45318   45312  -45315   45324      10   45318   45327   45342   45360       4
   45318   45327   45342   45363       4   45318   45330   45324   45339       9
   45318   45330  -45348   45360       4   45315   45312   45318   45327      14
   45315   45312  -45318   45330      14   45315   45321   45333   45351       4
   45315   45321  -45336   45339       4   45315   45321   45336   45357       4
   45315   45324  -45330   45318      15   45315   45324   45330   45348      15
   45315   45324  -45339   45336      10   45312   45315   45321   45333       9
   45312   45315   45321   45336       9   45312   45315  -45324   45330      13
   45312   45315   45324   45339      13   45312   45318   45327   45342       4
   45312   45318  -45330   45324       4   45312   45318   45330   45348       4
   45651   45666   45669   45681       3   45642   45651   45666   45669       3
   45633   45642   45651   45666       3   45624   45633   45642   45651       3
   45612   45624   45633   45642       3   45594   45612   45624   45633       3
   45579   45594   45612   45624       3   45576   45555   45573   45582       4
   45576   45588  -45603   45582       4   45573   45555   45576   45588       4
   45573   45582  -45603   45588       4   45561   45579   45594   45612       5
   45555   45573   45582   45603       4   45555   45576  -45588   45603       4
   45552   45534   45555   45573       6   45552   45534   45555   45576       6
   45549   45561   45579   45594       7   45543   45561   45579   45594       7
   45540   45552   45534   45555       4   45534   45555   45573   45582       4
   45534   45555   45576   45588       4   45531   45516   45522   45540       9
   45531   45528   45549   45561       4   45528   45513   45525   45543       4
   45528   45549  -45561   45543       4   45528   45549   45561   45579       4
   45525   45513   45528   45531       4   45525   45513   45528   45549       4
   45525   45543  -45561   45549       4   45525   45543   45561   45579       4
   45522   45510   45519   45534       4   45522   45516   45531   45528      10
   45522   45540  -45552   45534       4   45519   45510   45522   45540       4
   45519   45534  -45552   45540       4   45519   45534   45555   45573       6
   45519   45534   45555   45576       6   45516   45507   45513   45525      11
   45516   45507  -45513   45528      11   45516   45522   45510   45519       4
   45516   45522   45540   45552       4   45516   45531   45528   45549      12
   45513   45507   45516   45522      13   45513   45507  -45516   45531      13
   45513   45525   45543   45561       4   45513   45528  -45531   45516      12
   45513   45528  -45549   45561       4   45510   45504   45507   45513      10
   45510   45504  -45507   45516      10   45510   45519   45534   45552       4
   45510   45519   45534   45555       4   45510   45522   45516   45531       9
   45510   45522  -45540   45552       4   45507   45504   45510   45519      14
   45507   45504  -45510   45522      14   45507   45513   45525   45543       4
   45507   45513  -45528   45531       4   45507   45513   45528   45549       4
   45507   45516  -45522   45510      15   45507   45516   45522   45540      15
   45507   45516  -45531   45528      10   45504   45507   45513   45525       9
   45504   45507   45513   45528       9   45504   45507  -45516   45522      13
   45504   45507   45516   45531      13   45504   45510   45519   45534       4
   45504   45510  -45522   45516       4   45504   45510   45522   45540       4
   45843   45858   45861   45873       3   45834   45843   45858   45861       3
   45825   45834   45843   45858       3   45816   45825   45834   45843       3
   45804   45816   45825   45834       3   45786   45804   45816   45825       3
   45771   45786   45804   45816       3   45768   45747   45765   45774       4
   45768   45780  -45795   45774       4   45765   45747   45768   45780       4
   45765   45774  -45795   45780       4   45753   45771   45786   45804       5
   45747   45765   45774   45795       4   45747   45768  -45780   45795       4
   45744   45726   45747   45765       6   45744   45726   45747   45768       6
   45741   45753   45771   45786       7   45735   45753   45771   45786       7
   45732   45744   45726   45747       4   45726   45747   45765   45774       4
   45726   45747   45768   45780       4   45723   45708   45714   45732       9
   45723   45720   45741   45753       4   45720   45705   45717   45735       4
   45720   45741  -45753   45735       4   45720   45741   45753   45771       4
   45717   45705   45720   45723       4   45717   45705   45720   45741       4
   45717   45735  -45753   45741       4   45717   45735   45753   45771       4
   45714   45702   45711   45726       4   45714   45708   45723   45720      10
   45714   45732  -45744   45726       4   45711   45702   45714   45732       4
   45711   45726  -45744   45732       4   45711   45726   45747   45765       6
   45711   45726   45747   45768       6   45708   45699   45705   45717      11
   45708   45699  -45705   45720      11   45708   45714   45702   45711       4
   45708   45714   45732   45744       4   45708   45723   45720   45741      12
   45705   45699   45708   45714      13   45705   45699  -45708   45723      13
   45705   45717   45735   45753       4   45705   45720  -45723   45708      12
   45705   45720  -45741   45753       4   45702   45696   45699   45705      10
   45702   45696  -45699   45708      10   45702   45711   45726   45744       4
   45702   45711   45726   45747       4   45702   45714   45708   45723       9
   45702   45714  -45732   45744       4   45699   45696   45702   45711      14
   45699   45696  -45702   45714      14   45699   45705   45717   45735       4
   45699   45705  -45720   45723       4   45699   45705   45720   45741       4
   45699   45708  -45714   45702      15   45699   45708   45714   45732      15
   45699   45708  -45723   45720      10   45696   45699   45705   45717       9
   45696   45699   45705   45720       9   45696   45699  -45708   45714      13
   45696   45699   45708   45723      13   45696   45702   45711   45726       4
   45696   45702  -45714   45708       4   45696   45702   45714   45732       4
   46035   46050   46053   46065       3   46026   46035   46050   46053       3
   46017   46026   46035   46050       3   46008   46017   46026   46035       3
   45996   46008   46017   46026       3   45978   45996   46008   46017       3
   45963   45978   45996   46008       3   45960   45939   45957   45966       4
   45960   45972  -45987   45966       4   45957   45939   45960   45972       4
   45957   45966  -45987   45972       4   45945   45963   45978   45996       5
   45939   45957   45966   45987       4   45939   45960  -45972   45987       4
   45936   45918   45939   45957       6   45936   45918   45939   45960       6
   45933   45945   45963   45978       7   45927   45945   45963   45978       7
   45924   45936   45918   45939       4   45918   45939   45957   45966       4
   45918   45939   45960   45972       4   45915   45900   45906   45924       9
   45915   45912   45933   45945       4   45912   45897   45909   45927       4
   45912   45933  -45945   45927       4   45912   45933   45945   45963       4
   45909   45897   45912   45915       4   45909   45897   45912   45933       4
   45909   45927  -45945   45933       4   45909   45927   45945   45963       4
   45906   45894   45903   45918       4   45906   45900   45915   45912      10
   45906   45924  -45936   45918       4   45903   45894   45906   45924       4
   45903   45918  -45936   45924       4   45903   45918   45939   45957       6
   45903   45918   45939   45960       6   45900   45891   45897   45909      11
   45900   45891  -45897   45912      11   45900   45906   45894   45903       4
   45900   45906   45924   45936       4   45900   45915   45912   45933      12
   45897   45891   45900   45906      13   45897   45891  -45900   45915      13
   45897   45909   45927   45945       4   45897   45912  -45915   45900      12
   45897   45912  -45933   45945       4   45894   45888   45891   45897      10
   45894   45888  -45891   45900      10   45894   45903   45918   45936       4
   45894   45903   45918   45939       4   45894   45906   45900   45915       9
   45894   45906  -45924   45936       4   45891   45888   45894   45903      14
   45891   45888  -45894   45906      14   45891   45897   45909   45927       4
   45891   45897  -45912   45915       4   45891   45897   45912   45933       4
   45891   45900  -45906   45894      15   45891   45900   45906   45924      15
   45891   45900  -45915   45912      10   45888   45891   45897   45909       9
   45888   45891   45897   45912       9   45888   45891  -45900   45906      13
   45888   45891   45900   45915      13   45888   45894   45903   45918       4
   45888   45894  -45906   45900       4   45888   45894   45906   45924       4
   46227   46242   46245   46257       3   46218   46227   46242   46245       3
   46209   46218   46227   46242       3   46200   46209   46218   46227       3
   46188   46200   46209   46218       3   46170   46188   46200   46209       3
   46155   46170   46188   46200       3   46152   46131   46149   46158       4
   46152   46164  -46179   46158       4   46149   46131   46152   46164       4
   46149   46158  -46179   46164       4   46137   46155   46170   46188       5
   46131   46149   46158   46179       4   46131   46152  -46164   46179       4
   46128   46110   46131   46149       6   46128   46110   46131   46152       6
   46125   46137   46155   46170       7   46119   46137   46155   46170       7
   46116   46128   46110   46131       4   46110   46131   46149   46158       4
   46110   46131   46152   46164       4   46107   46092   46098   46116       9
   46107   46104   46125   46137       4   46104   46089   46101   46119       4
   46104   46125  -46137   46119       4   46104   46125   46137   46155       4
   46101   46089   46104   46107       4   46101   46089   46104   46125       4
   46101   46119  -46137   46125       4   46101   46119   46137   46155       4
   46098   46086   46095   46110       4   46098   46092   46107   46104      10
   46098   46116  -46128   46110       4   46095   46086   46098   46116       4
   46095   46110  -46128   46116       4   46095   46110   46131   46149       6
   46095   46110   46131   46152       6   46092   46083   46089   46101      11
   46092   46083  -46089   46104      11   46092   46098   46086   46095       4
   46092   46098   46116   46128       4   46092   46107   46104   46125      12
   46089   46083   46092   46098      13   46089   46083  -46092   46107      13
   46089   46101   46119   46137       4   46089   46104  -46107   46092      12
   46089   46104  -46125   46137       4   46086   46080   46083   46089      10
   46086   46080  -46083   46092      10   46086   46095   46110   46128       4
   46086   46095   46110   46131       4   46086   46098   46092   46107       9
   46086   46098  -46116   46128       4   46083   46080   46086   46095      14
   46083   46080  -46086   46098      14   46083   46089   46101   46119       4
   46083   46089  -46104   46107       4   46083   46089   46104   46125       4
   46083   46092  -46098   46086      15   46083   46092   46098   46116      15
   46083   46092  -46107   46104      10   46080   46083   46089   46101       9
   46080   46083   46089   46104       9   46080   46083  -46092   46098      13
   46080   46083   46092   46107      13   46080   46086   46095   46110       4
   46080   46086  -46098   46092       4   46080   46086   46098   46116       4
   46419   46434   46437   46449       3   46410   46419   46434   46437       3
   46401   46410   46419   46434       3   46392   46401   46410   46419       3
   46380   46392   46401   46410       3   46362   46380   46392   46401       3
   46347   46362   46380   46392       3   46344   46323   46341   46350       4
   46344   46356  -46371   46350       4   46341   46323   46344   46356       4
   46341   46350  -46371   46356       4   46329   46347   46362   46380       5
   46323   46341   46350   46371       4   46323   46344  -46356   46371       4
   46320   46302   46323   46341       6   46320   46302   46323   46344       6
   46317   46329   46347   46362       7   46311   46329   46347   46362       7
   46308   46320   46302   46323       4   46302   46323   46341   46350       4
   46302   46323   46344   46356       4   46299   46284   46290   46308       9
   46299   46296   46317   46329       4   46296   46281   46293   46311       4
   46296   46317  -46329   46311       4   46296   46317   46329   46347       4
   46293   46281   46296   46299       4   46293   46281   46296   46317       4
   46293   46311  -46329   46317       4   46293   46311   46329   46347       4
   46290   46278   46287   46302       4   46290   46284   46299   46296      10
   46290   46308  -46320   46302       4   46287   46278   46290   46308       4
   46287   46302  -46320   46308       4   46287   46302   46323   46341       6
   46287   46302   46323   46344       6   46284   46275   46281   46293      11
   46284   46275  -46281   46296      11   46284   46290   46278   46287       4
   46284   46290   46308   46320       4   46284   46299   46296   46317      12
   46281   46275   46284   46290      13   46281   46275  -46284   46299      13
   46281   46293   46311   46329       4   46281   46296  -46299   46284      12
   46281   46296  -46317   46329       4   46278   46272   46275   46281      10
   46278   46272  -46275   46284      10   46278   46287   46302   46320       4
   46278   46287   46302   46323       4   46278   46290   46284   46299       9
   46278   46290  -46308   46320       4   46275   46272   46278   46287      14
   46275   46272  -46278   46290      14   46275   46281   46293   46311       4
   46275   46281  -46296   46299       4   46275   46281   46296   46317       4
   46275   46284  -46290   46278      15   46275   46284   46290   46308      15
   46275   46284  -46299   46296      10   46272   46275   46281   46293       9
   46272   46275   46281   46296       9   46272   46275  -46284   46290      13
   46272   46275   46284   46299      13   46272   46278   46287   46302       4
   46272   46278  -46290   46284       4   46272   46278   46290   46308       4
   46611   46626   46629   46641       3   46602   46611   46626   46629       3
   46593   46602   46611   46626       3   46584   46593   46602   46611       3
   46572   46584   46593   46602       3   46554   46572   46584   46593       3
   46539   46554   46572   46584       3   46536   46515   46533   46542       4
   46536   46548  -46563   46542       4   46533   46515   46536   46548       4
   46533   46542  -46563   46548       4   46521   46539   46554   46572       5
   46515   46533   46542   46563       4   46515   46536  -46548   46563       4
   46512   46494   46515   46533       6   46512   46494   46515   46536       6
   46509   46521   46539   46554       7   46503   46521   46539   46554       7
   46500   46512   46494   46515       4   46494   46515   46533   46542       4
   46494   46515   46536   46548       4   46491   46476   46482   46500       9
   46491   46488   46509   46521       4   46488   46473   46485   46503       4
   46488   46509  -46521   46503       4   46488   46509   46521   46539       4
   46485   46473   46488   46491       4   46485   46473   46488   46509       4
   46485   46503  -46521   46509       4   46485   46503   46521   46539       4
   46482   46470   46479   46494       4   46482   46476   46491   46488      10
   46482   46500  -46512   46494       4   46479   46470   46482   46500       4
   46479   46494  -46512   46500       4   46479   46494   46515   46533       6
   46479   46494   46515   46536       6   46476   46467   46473   46485      11
   46476   46467  -46473   46488      11   46476   46482   46470   46479       4
   46476   46482   46500   46512       4   46476   46491   46488   46509      12
   46473   46467   46476   46482      13   46473   46467  -46476   46491      13
   46473   46485   46503   46521       4   46473   46488  -46491   46476      12
   46473   46488  -46509   46521       4   46470   46464   46467   46473      10
   46470   46464  -46467   46476      10   46470   46479   46494   46512       4
   46470   46479   46494   46515       4   46470   46482   46476   46491       9
   46470   46482  -46500   46512       4   46467   46464   46470   46479      14
   46467   46464  -46470   46482      14   46467   46473   46485   46503       4
   46467   46473  -46488   46491       4   46467   46473   46488   46509       4
   46467   46476  -46482   46470      15   46467   46476   46482   46500      15
   46467   46476  -46491   46488      10   46464   46467   46473   46485       9
   46464   46467   46473   46488       9   46464   46467  -46476   46482      13
   46464   46467   46476   46491      13   46464   46470   46479   46494       4
   46464   46470  -46482   46476       4   46464   46470   46482   46500       4
   46803   46818   46821   46833       3   46794   46803   46818   46821       3
   46785   46794   46803   46818       3   46776   46785   46794   46803       3
   46764   46776   46785   46794       3   46746   46764   46776   46785       3
   46731   46746   46764   46776       3   46728   46707   46725   46734       4
   46728   46740  -46755   46734       4   46725   46707   46728   46740       4
   46725   46734  -46755   46740       4   46713   46731   46746   46764       5
   46707   46725   46734   46755       4   46707   46728  -46740   46755       4
   46704   46686   46707   46725       6   46704   46686   46707   46728       6
   46701   46713   46731   46746       7   46695   46713   46731   46746       7
   46692   46704   46686   46707       4   46686   46707   46725   46734       4
   46686   46707   46728   46740       4   46683   46668   46674   46692       9
   46683   46680   46701   46713       4   46680   46665   46677   46695       4
   46680   46701  -46713   46695       4   46680   46701   46713   46731       4
   46677   46665   46680   46683       4   46677   46665   46680   46701       4
   46677   46695  -46713   46701       4   46677   46695   46713   46731       4
   46674   46662   46671   46686       4   46674   46668   46683   46680      10
   46674   46692  -46704   46686       4   46671   46662   46674   46692       4
   46671   46686  -46704   46692       4   46671   46686   46707   46725       6
   46671   46686   46707   46728       6   46668   46659   46665   46677      11
   46668   46659  -46665   46680      11   46668   46674   46662   46671       4
   46668   46674   46692   46704       4   46668   46683   46680   46701      12
   46665   46659   46668   46674      13   46665   46659  -46668   46683      13
   46665   46677   46695   46713       4   46665   46680  -46683   46668      12
   46665   46680  -46701   46713       4   46662   46656   46659   46665      10
   46662   46656  -46659   46668      10   46662   46671   46686   46704       4
   46662   46671   46686   46707       4   46662   46674   46668   46683       9
   46662   46674  -46692   46704       4   46659   46656   46662   46671      14
   46659   46656  -46662   46674      14   46659   46665   46677   46695       4
   46659   46665  -46680   46683       4   46659   46665   46680   46701       4
   46659   46668  -46674   46662      15   46659   46668   46674   46692      15
   46659   46668  -46683   46680      10   46656   46659   46665   46677       9
   46656   46659   46665   46680       9   46656   46659  -46668   46674      13
   46656   46659   46668   46683      13   46656   46662   46671   46686       4
   46656   46662  -46674   46668       4   46656   46662   46674   46692       4
   46995   47010   47013   47025       3   46986   46995   47010   47013       3
   46977   46986   46995   47010       3   46968   46977   46986   46995       3
   46956   46968   46977   46986       3   46938   46956   46968   46977       3
   46923   46938   46956   46968       3   46920   46899   46917   46926       4
   46920   46932  -46947   46926       4   46917   46899   46920   46932       4
   46917   46926  -46947   46932       4   46905   46923   46938   46956       5
   46899   46917   46926   46947       4   46899   46920  -46932   46947       4
   46896   46878   46899   46917       6   46896   46878   46899   46920       6
   46893   46905   46923   46938       7   46887   46905   46923   46938       7
   46884   46896   46878   46899       4   46878   46899   46917   46926       4
   46878   46899   46920   46932       4   46875   46860   46866   46884       9
   46875   46872   46893   46905       4   46872   46857   46869   46887       4
   46872   46893  -46905   46887       4   46872   46893   46905   46923       4
   46869   46857   46872   46875       4   46869   46857   46872   46893       4
   46869   46887  -46905   46893       4   46869   46887   46905   46923       4
   46866   46854   46863   46878       4   46866   46860   46875   46872      10
   46866   46884  -46896   46878       4   46863   46854   46866   46884       4
   46863   46878  -46896   46884       4   46863   46878   46899   46917       6
   46863   46878   46899   46920       6   46860   46851   46857   46869      11
   46860   46851  -46857   46872      11   46860   46866   46854   46863       4
   46860   46866   46884   46896       4   46860   46875   46872   46893      12
   46857   46851   46860   46866      13   46857   46851  -46860   46875      13
   46857   46869   46887   46905       4   46857   46872  -46875   46860      12
   46857   46872  -46893   46905       4   46854   46848   46851   46857      10
   46854   46848  -46851   46860      10   46854   46863   46878   46896       4
   46854   46863   46878   46899       4   46854   46866   46860   46875       9
   46854   46866  -46884   46896       4   46851   46848   46854   46863      14
   46851   46848  -46854   46866      14   46851   46857   46869   46887       4
   46851   46857  -46872   46875       4   46851   46857   46872   46893       4
   46851   46860  -46866   46854      15   46851   46860   46866   46884      15
   46851   46860  -46875   46872      10   46848   46851   46857   46869       9
   46848   46851   46857   46872       9   46848   46851  -46860   46866      13
   46848   46851   46860   46875      13   46848   46854   46863   46878       4
   46848   46854  -46866   46860       4   46848   46854   46866   46884       4
   47187   47202   47205   47217       3   47178   47187   47202   47205       3
   47169   47178   47187   47202       3   47160   47169   47178   47187       3
   47148   47160   47169   47178       3   47130   47148   47160   47169       3
   47115   47130   47148   47160       3   47112   47091   47109   47118       4
   47112   47124  -47139   47118       4   47109   47091   47112   47124       4
   47109   47118  -47139   47124       4   47097   47115   47130   47148       5
   47091   47109   47118   47139       4   47091   47112  -47124   47139       4
   47088   47070   47091   47109       6   47088   47070   47091   47112       6
   47085   47097   47115   47130       7   47079   47097   47115   47130       7
   47076   47088   47070   47091       4   47070   47091   47109   47118       4
   47070   47091   47112   47124       4   47067   47052   47058   47076       9
   47067   47064   47085   47097       4   47064   47049   47061   47079       4
   47064   47085  -47097   47079       4   47064   47085   47097   47115       4
   47061   47049   47064   47067       4   47061   47049   47064   47085       4
   47061   47079  -47097   47085       4   47061   47079   47097   47115       4
   47058   47046   47055   47070       4   47058   47052   47067   47064      10
   47058   47076  -47088   47070       4   47055   47046   47058   47076       4
   47055   47070  -47088   47076       4   47055   47070   47091   47109       6
   47055   47070   47091   47112       6   47052   47043   47049   47061      11
   47052   47043  -47049   47064      11   47052   47058   47046   47055       4
   47052   47058   47076   47088       4   47052   47067   47064   47085      12
   47049   47043   47052   47058      13   47049   47043  -47052   47067      13
   47049   47061   47079   47097       4   47049   47064  -47067   47052      12
   47049   47064  -47085   47097       4   47046   47040   47043   47049      10
   47046   47040  -47043   47052      10   47046   47055   47070   47088       4
   47046   47055   47070   47091       4   47046   47058   47052   47067       9
   47046   47058  -47076   47088       4   47043   47040   47046   47055      14
   47043   47040  -47046   47058      14   47043   47049   47061   47079       4
   47043   47049  -47064   47067       4   47043   47049   47064   47085       4
   47043   47052  -47058   47046      15   47043   47052   47058   47076      15
   47043   47052  -47067   47064      10   47040   47043   47049   47061       9
   47040   47043   47049   47064       9   47040   47043  -47052   47058      13
   47040   47043   47052   47067      13   47040   47046   47055   47070       4
   47040   47046  -47058   47052       4   47040   47046   47058   47076       4
   47379   47394   47397   47409       3   47370   47379   47394   47397       3
   47361   47370   47379   47394       3   47352   47361   47370   47379       3
   47340   47352   47361   47370       3   47322   47340   47352   47361       3
   47307   47322   47340   47352       3   47304   47283   47301   47310       4
   47304   47316  -47331   47310       4   47301   47283   47304   47316       4
   47301   47310  -47331   47316       4   47289   47307   47322   47340       5
   47283   47301   47310   47331       4   47283   47304  -47316   47331       4
   47280   47262   47283   47301       6   47280   47262   47283   47304       6
   47277   47289   47307   47322       7   47271   47289   47307   47322       7
   47268   47280   47262   47283       4   47262   47283   47301   47310       4
   47262   47283   47304   47316       4   47259   47244   47250   47268       9
   47259   47256   47277   47289       4   47256   47241   47253   47271       4
   47256   47277  -47289   47271       4   47256   47277   47289   47307       4
   47253   47241   47256   47259       4   47253   47241   47256   47277       4
   47253   47271  -47289   47277       4   47253   47271   47289   47307       4
   47250   47238   47247   47262       4   47250   47244   47259   47256      10
   47250   47268  -47280   47262       4   47247   47238   47250   47268       4
   47247   47262  -47280   47268       4   47247   47262   47283   47301       6
   47247   47262   47283   47304       6   47244   47235   47241   47253      11
   47244   47235  -47241   47256      11   47244   47250   47238   47247       4
   47244   47250   47268   47280       4   47244   47259   47256   47277      12
   47241   47235   47244   47250      13   47241   47235  -47244   47259      13
   47241   47253   47271   47289       4   47241   47256  -47259   47244      12
   47241   47256  -47277   47289       4   47238   47232   47235   47241      10
   47238   47232  -47235   47244      10   47238   47247   47262   47280       4
   47238   47247   47262   47283       4   47238   47250   47244   47259       9
   47238   47250  -47268   47280       4   47235   47232   47238   47247      14
   47235   47232  -47238   47250      14   47235   47241   47253   47271       4
   47235   47241  -47256   47259       4   47235   47241   47256   47277       4
   47235   47244  -47250   47238      15   47235   47244   47250   47268      15
   47235   47244  -47259   47256      10   47232   47235   47241   47253       9
   47232   47235   47241   47256       9   47232   47235  -47244   47250      13
   47232   47235   47244   47259      13   47232   47238   47247   47262       4
   47232   47238  -47250   47244       4   47232   47238   47250   47268       4
   47571   47586   47589   47601       3   47562   47571   47586   47589       3
   47553   47562   47571   47586       3   47544   47553   47562   47571       3
   47532   47544   47553   47562       3   47514   47532   47544   47553       3
   47499   47514   47532   47544       3   47496   47475   47493   47502       4
   47496   47508  -47523   47502       4   47493   47475   47496   47508       4
   47493   47502  -47523   47508       4   47481   47499   47514   47532       5
   47475   47493   47502   47523       4   47475   47496  -47508   47523       4
   47472   47454   47475   47493       6   47472   47454   47475   47496       6
   47469   47481   47499   47514       7   47463   47481   47499   47514       7
   47460   47472   47454   47475       4   47454   47475   47493   47502       4
   47454   47475   47496   47508       4   47451   47436   47442   47460       9
   47451   47448   47469   47481       4   47448   47433   47445   47463       4
   47448   47469  -47481   47463       4   47448   47469   47481   47499       4
   47445   47433   47448   47451       4   47445   47433   47448   47469       4
   47445   47463  -47481   47469       4   47445   47463   47481   47499       4
   47442   47430   47439   47454       4   47442   47436   47451   47448      10
   47442   47460  -47472   47454       4   47439   47430   47442   47460       4
   47439   47454  -47472   47460       4   47439   47454   47475   47493       6
   47439   47454   47475   47496       6   47436   47427   47433   47445      11
   47436   47427  -47433   47448      11   47436   47442   47430   47439       4
   47436   47442   47460   47472       4   47436   47451   47448   47469      12
   47433   47427   47436   47442      13   47433   47427  -47436   47451      13
   47433   47445   47463   47481       4   47433   47448  -47451   47436      12
   47433   47448  -47469   47481       4   47430   47424   47427   47433      10
   47430   47424  -47427   47436      10   47430   47439   47454   47472       4
   47430   47439   47454   47475       4   47430   47442   47436   47451       9
   47430   47442  -47460   47472       4   47427   47424   47430   47439      14
   47427   47424  -47430   47442      14   47427   47433   47445   47463       4
   47427   47433  -47448   47451       4   47427   47433   47448   47469       4
   47427   47436  -47442   47430      15   47427   47436   47442   47460      15
   47427   47436  -47451   47448      10   47424   47427   47433   47445       9
   47424   47427   47433   47448       9   47424   47427  -47436   47442      13
   47424   47427   47436   47451      13   47424   47430   47439   47454       4
   47424   47430  -47442   47436       4   47424   47430   47442   47460       4
   47763   47778   47781   47793       3   47754   47763   47778   47781       3
   47745   47754   47763   47778       3   47736   47745   47754   47763       3
   47724   47736   47745   47754       3   47706   47724   47736   47745       3
   47691   47706   47724   47736       3   47688   47667   47685   47694       4
   47688   47700  -47715   47694       4   47685   47667   47688   47700       4
   47685   47694  -47715   47700       4   47673   47691   47706   47724       5
   47667   47685   47694   47715       4   47667   47688  -47700   47715       4
   47664   47646   47667   47685       6   47664   47646   47667   47688       6
   47661   47673   47691   47706       7   47655   47673   47691   47706       7
   47652   47664   47646   47667       4   47646   47667   47685   47694       4
   47646   47667   47688   47700       4   47643   47628   47634   47652       9
   47643   47640   47661   47673       4   47640   47625   47637   47655       4
   47640   47661  -47673   47655       4   47640   47661   47673   47691       4
   47637   47625   47640   47643       4   47637   47625   47640   47661       4
   47637   47655  -47673   47661       4   47637   47655   47673   47691       4
   47634   47622   47631   47646       4   47634   47628   47643   47640      10
   47634   47652  -47664   47646       4   47631   47622   47634   47652       4
   47631   47646  -47664   47652       4   47631   47646   47667   47685       6
   47631   47646   47667   47688       6   47628   47619   47625   47637      11
   47628   47619  -47625   47640      11   47628   47634   47622   47631       4
   47628   47634   47652   47664       4   47628   47643   47640   47661      12
   47625   47619   47628   47634      13   47625   47619  -47628   47643      13
   47625   47637   47655   47673       4   47625   47640  -47643   47628      12
   47625   47640  -47661   47673       4   47622   47616   47619   47625      10
   47622   47616  -47619   47628      10   47622   47631   47646   47664       4
   47622   47631   47646   47667       4   47622   47634   47628   47643       9
   47622   47634  -47652   47664       4   47619   47616   47622   47631      14
   47619   47616  -47622   47634      14   47619   47625   47637   47655       4
   47619   47625  -47640   47643       4   47619   47625   47640   47661       4
   47619   47628  -47634   47622      15   47619   47628   47634   47652      15
   47619   47628  -47643   47640      10   47616   47619   47625   47637       9
   47616   47619   47625   47640       9   47616   47619  -47628   47634      13
   47616   47619   47628   47643      13   47616   47622   47631   47646       4
   47616   47622  -47634   47628       4   47616   47622   47634   47652       4
   47955   47970   47973   47985       3   47946   47955   47970   47973       3
   47937   47946   47955   47970       3   47928   47937   47946   47955       3
   47916   47928   47937   47946       3   47898   47916   47928   47937       3
   47883   47898   47916   47928       3   47880   47859   47877   47886       4
   47880   47892  -47907   47886       4   47877   47859   47880   47892       4
   47877   47886  -47907   47892       4   47865   47883   47898   47916       5
   47859   47877   47886   47907       4   47859   47880  -47892   47907       4
   47856   47838   47859   47877       6   47856   47838   47859   47880       6
   47853   47865   47883   47898       7   47847   47865   47883   47898       7
   47844   47856   47838   47859       4   47838   47859   47877   47886       4
   47838   47859   47880   47892       4   47835   47820   47826   47844       9
   47835   47832   47853   47865       4   47832   47817   47829   47847       4
   47832   47853  -47865   47847       4   47832   47853   47865   47883       4
   47829   47817   47832   47835       4   47829   47817   47832   47853       4
   47829   47847  -47865   47853       4   47829   47847   47865   47883       4
   47826   47814   47823   47838       4   47826   47820   47835   47832      10
   47826   47844  -47856   47838       4   47823   47814   47826   47844       4
   47823   47838  -47856   47844       4   47823   47838   47859   47877       6
   47823   47838   47859   47880       6   47820   47811   47817   47829      11
   47820   47811  -47817   47832      11   47820   47826   47814   47823       4
   47820   47826   47844   47856       4   47820   47835   47832   47853      12
   47817   47811   47820   47826      13   47817   47811  -47820   47835      13
   47817   47829   47847   47865       4   47817   47832  -47835   47820      12
   47817   47832  -47853   47865       4   47814   47808   47811   47817      10
   47814   47808  -47811   47820      10   47814   47823   47838   47856       4
   47814   47823   47838   47859       4   47814   47826   47820   47835       9
   47814   47826  -47844   47856       4   47811   47808   47814   47823      14
   47811   47808  -47814   47826      14   47811   47817   47829   47847       4
   47811   47817  -47832   47835       4   47811   47817   47832   47853       4
   47811   47820  -47826   47814      15   47811   47820   47826   47844      15
   47811   47820  -47835   47832      10   47808   47811   47817   47829       9
   47808   47811   47817   47832       9   47808   47811  -47820   47826      13
   47808   47811   47820   47835      13   47808   47814   47823   47838       4
   47808   47814  -47826   47820       4   47808   47814   47826   47844       4
   48147   48162   48165   48177       3   48138   48147   48162   48165       3
   48129   48138   48147   48162       3   48120   48129   48138   48147       3
   48108   48120   48129   48138       3   48090   48108   48120   48129       3
   48075   48090   48108   48120       3   48072   48051   48069   48078       4
   48072   48084  -48099   48078       4   48069   48051   48072   48084       4
   48069   48078  -48099   48084       4   48057   48075   48090   48108       5
   48051   48069   48078   48099       4   48051   48072  -48084   48099       4
   48048   48030   48051   48069       6   48048   48030   48051   48072       6
   48045   48057   48075   48090       7   48039   48057   48075   48090       7
   48036   48048   48030   48051       4   48030   48051   48069   48078       4
   48030   48051   48072   48084       4   48027   48012   48018   48036       9
   48027   48024   48045   48057       4   48024   48009   48021   48039       4
   48024   48045  -48057   48039       4   48024   48045   48057   48075       4
   48021   48009   48024   48027       4   48021   48009   48024   48045       4
   48021   48039  -48057   48045       4   48021   48039   48057   48075       4
   48018   48006   48015   48030       4   48018   48012   48027   48024      10
   48018   48036  -48048   48030       4   48015   48006   48018   48036       4
   48015   48030  -48048   48036       4   48015   48030   48051   48069       6
   48015   48030   48051   48072       6   48012   48003   48009   48021      11
   48012   48003  -48009   48024      11   48012   48018   48006   48015       4
   48012   48018   48036   48048       4   48012   48027   48024   48045      12
   48009   48003   48012   48018      13   48009   48003  -48012   48027      13
   48009   48021   48039   48057       4   48009   48024  -48027   48012      12
   48009   48024  -48045   48057       4   48006   48000   48003   48009      10
   48006   48000  -48003   48012      10   48006   48015   48030   48048       4
   48006   48015   48030   48051       4   48006   48018   48012   48027       9
   48006   48018  -48036   48048       4   48003   48000   48006   48015      14
   48003   48000  -48006   48018      14   48003   48009   48021   48039       4
   48003   48009  -48024   48027       4   48003   48009   48024   48045       4
   48003   48012  -48018   48006      15   48003   48012   48018   48036      15
   48003   48012  -48027   48024      10   48000   48003   48009   48021       9
   48000   48003   48009   48024       9   48000   48003  -48012   48018      13
   48000   48003   48012   48027      13   48000   48006   48015   48030       4
   48000   48006  -48018   48012       4   48000   48006   48018   48036       4
   48339   48354   48357   48369       3   48330   48339   48354   48357       3
   48321   48330   48339   48354       3   48312   48321   48330   48339       3
   48300   48312   48321   48330       3   48282   48300   48312   48321       3
   48267   48282   48300   48312       3   48264   48243   48261   48270       4
   48264   48276  -48291   48270       4   48261   48243   48264   48276       4
   48261   48270  -48291   48276       4   48249   48267   48282   48300       5
   48243   48261   48270   48291       4   48243   48264  -48276   48291       4
   48240   48222   48243   48261       6   48240   48222   48243   48264       6
   48237   48249   48267   48282       7   48231   48249   48267   48282       7
   48228   48240   48222   48243       4   48222   48243   48261   48270       4
   48222   48243   48264   48276       4   48219   48204   48210   48228       9
   48219   48216   48237   48249       4   48216   48201   48213   48231       4
   48216   48237  -48249   48231       4   48216   48237   48249   48267       4
   48213   48201   48216   48219       4   48213   48201   48216   48237       4
   48213   48231  -48249   48237       4   48213   48231   48249   48267       4
   48210   48198   48207   48222       4   48210   48204   48219   48216      10
   48210   48228  -48240   48222       4   48207   48198   48210   48228       4
   48207   48222  -48240   48228       4   48207   48222   48243   48261       6
   48207   48222   48243   48264       6   48204   48195   48201   48213      11
   48204   48195  -48201   48216      11   48204   48210   48198   48207       4
   48204   48210   48228   48240       4   48204   48219   48216   48237      12
   48201   48195   48204   48210      13   48201   48195  -48204   48219      13
   48201   48213   48231   48249       4   48201   48216  -48219   48204      12
   48201   48216  -48237   48249       4   48198   48192   48195   48201      10
   48198   48192  -48195   48204      10   48198   48207   48222   48240       4
   48198   48207   48222   48243       4   48198   48210   48204   48219       9
   48198   48210  -48228   48240       4   48195   48192   48198   48207      14
   48195   48192  -48198   48210      14   48195   48201   48213   48231       4
   48195   48201  -48216   48219       4   48195   48201   48216   48237       4
   48195   48204  -48210   48198      15   48195   48204   48210   48228      15
   48195   48204  -48219   48216      10   48192   48195   48201   48213       9
   48192   48195   48201   48216       9   48192   48195  -48204   48210      13
   48192   48195   48204   48219      13   48192   48198   48207   48222       4
   48192   48198  -48210   48204       4   48192   48198   48210   48228       4
   48531   48546   48549   48561       3   48522   48531   48546   48549       3
   48513   48522   48531   48546       3   48504   48513   48522   48531       3
   48492   48504   48513   48522       3   48474   48492   48504   48513       3
   48459   48474   48492   48504       3   48456   48435   48453   48462       4
   48456   48468  -48483   48462       4   48453   48435   48456   48468       4
   48453   48462  -48483   48468       4   48441   48459   48474   48492       5
   48435   48453   48462   48483       4   48435   48456  -48468   48483       4
   48432   48414   48435   48453       6   48432   48414   48435   48456       6
   48429   48441   48459   48474       7   48423   48441   48459   48474       7
   48420   48432   48414   48435       4   48414   48435   48453   48462       4
   48414   48435   48456   48468       4   48411   48396   48402   48420       9
   48411   48408   48429   48441       4   48408   48393   48405   48423       4
   48408   48429  -48441   48423       4   48408   48429   48441   48459       4
   48405   48393   48408   48411       4   48405   48393   48408   48429       4
   48405   48423  -48441   48429       4   48405   48423   48441   48459       4
   48402   48390   48399   48414       4   48402   48396   48411   48408      10
   48402   48420  -48432   48414       4   48399   48390   48402   48420       4
   48399   48414  -48432   48420       4   48399   48414   48435   48453       6
   48399   48414   48435   48456       6   48396   48387   48393   48405      11
   48396   48387  -48393   48408      11   48396   48402   48390   48399       4
   48396   48402   48420   48432       4   48396   48411   48408   48429      12
   48393   48387   48396   48402      13   48393   48387  -48396   48411      13
   48393   48405   48423   48441       4   48393   48408  -48411   48396      12
   48393   48408  -48429   48441       4   48390   48384   48387   48393      10
   48390   48384  -48387   48396      10   48390   48399   48414   48432       4
   48390   48399   48414   48435       4   48390   48402   48396   48411       9
   48390   48402  -48420   48432       4   48387   48384   48390   48399      14
   48387   48384  -48390   48402      14   48387   48393   48405   48423       4
   48387   48393  -48408   48411       4   48387   48393   48408   48429       4
   48387   48396  -48402   48390      15   48387   48396   48402   48420      15
   48387   48396  -48411   48408      10   48384   48387   48393   48405       9
   48384   48387   48393   48408       9   48384   48387  -48396   48402      13
   48384   48387   48396   48411      13   48384   48390   48399   48414       4
   48384   48390  -48402   48396       4   48384   48390   48402   48420       4
   48723   48738   48741   48753       3   48714   48723   48738   48741       3
   48705   48714   48723   48738       3   48696   48705   48714   48723       3
   48684   48696   48705   48714       3   48666   48684   48696   48705       3
   48651   48666   48684   48696       3   48648   48627   48645   48654       4
   48648   48660  -48675   48654       4   48645   48627   48648   48660       4
   48645   48654  -48675   48660       4   48633   48651   48666   48684       5
   48627   48645   48654   48675       4   48627   48648  -48660   48675       4
   48624   48606   48627   48645       6   48624   48606   48627   48648       6
   48621   48633   48651   48666       7   48615   48633   48651   48666       7
   48612   48624   48606   48627       4   48606   48627   48645   48654       4
   48606   48627   48648   48660       4   48603   48588   48594   48612       9
   48603   48600   48621   48633       4   48600   48585   48597   48615       4
   48600   48621  -48633   48615       4   48600   48621   48633   48651       4
   48597   48585   48600   48603       4   48597   48585   48600   48621       4
   48597   48615  -48633   48621       4   48597   48615   48633   48651       4
   48594   48582   48591   48606       4   48594   48588   48603   48600      10
   48594   48612  -48624   48606       4   48591   48582   48594   48612       4
   48591   48606  -48624   48612       4   48591   48606   48627   48645       6
   48591   48606   48627   48648       6   48588   48579   48585   48597      11
   48588   48579  -48585   48600      11   48588   48594   48582   48591       4
   48588   48594   48612   48624       4   48588   48603   48600   48621      12
   48585   48579   48588   48594      13   48585   48579  -48588   48603      13
   48585   48597   48615   48633       4   48585   48600  -48603   48588      12
   48585   48600  -48621   48633       4   48582   48576   48579   48585      10
   48582   48576  -48579   48588      10   48582   48591   48606   48624       4
   48582   48591   48606   48627       4   48582   48594   48588   48603       9
   48582   48594  -48612   48624       4   48579   48576   48582   48591      14
   48579   48576  -48582   48594      14   48579   48585   48597   48615       4
   48579   48585  -48600   48603       4   48579   48585   48600   48621       4
   48579   48588  -48594   48582      15   48579   48588   48594   48612      15
   48579   48588  -48603   48600      10   48576   48579   48585   48597       9
   48576   48579   48585   48600       9   48576   48579  -48588   48594      13
   48576   48579   48588   48603      13   48576   48582   48591   48606       4
   48576   48582  -48594   48588       4   48576   48582   48594   48612       4
   48915   48930   48933   48945       3   48906   48915   48930   48933       3
   48897   48906   48915   48930       3   48888   48897   48906   48915       3
   48876   48888   48897   48906       3   48858   48876   48888   48897       3
   48843   48858   48876   48888       3   48840   48819   48837   48846       4
   48840   48852  -48867   48846       4   48837   48819   48840   48852       4
   48837   48846  -48867   48852       4   48825   48843   48858   48876       5
   48819   48837   48846   48867       4   48819   48840  -48852   48867       4
   48816   48798   48819   48837       6   48816   48798   48819   48840       6
   48813   48825   48843   48858       7   48807   48825   48843   48858       7
   48804   48816   48798   48819       4   48798   48819   48837   48846       4
   48798   48819   48840   48852       4   48795   48780   48786   48804       9
   48795   48792   48813   48825       4   48792   48777   48789   48807       4
   48792   48813  -48825   48807       4   48792   48813   48825   48843       4
   48789   48777   48792   48795       4   48789   48777   48792   48813       4
   48789   48807  -48825   48813       4   48789   48807   48825   48843       4
   48786   48774   48783   48798       4   48786   48780   48795   48792      10
   48786   48804  -48816   48798       4   48783   48774   48786   48804       4
   48783   48798  -48816   48804       4   48783   48798   48819   48837       6
   48783   48798   48819   48840       6   48780   48771   48777   48789      11
   48780   48771  -48777   48792      11   48780   48786   48774   48783       4
   48780   48786   48804   48816       4   48780   48795   48792   48813      12
   48777   48771   48780   48786      13   48777   48771  -48780   48795      13
   48777   48789   48807   48825       4   48777   48792  -48795   48780      12
   48777   48792  -48813   48825       4   48774   48768   48771   48777      10
   48774   48768  -48771   48780      10   48774   48783   48798   48816       4
   48774   48783   48798   48819       4   48774   48786   48780   48795       9
   48774   48786  -48804   48816       4   48771   48768   48774   48783      14
   48771   48768  -48774   48786      14   48771   48777   48789   48807       4
   48771   48777  -48792   48795       4   48771   48777   48792   48813       4
   48771   48780  -48786   48774      15   48771   48780   48786   48804      15
   48771   48780  -48795   48792      10   48768   48771   48777   48789       9
   48768   48771   48777   48792       9   48768   48771  -48780   48786      13
   48768   48771   48780   48795      13   48768   48774   48783   48798       4
   48768   48774  -48786   48780       4   48768   48774   48786   48804       4
   49107   49122   49125   49137       3   49098   49107   49122   49125       3
   49089   49098   49107   49122       3   49080   49089   49098   49107       3
   49068   49080   49089   49098       3   49050   49068   49080   49089       3
   49035   49050   49068   49080       3   49032   49011   49029   49038       4
   49032   49044  -49059   49038       4   49029   49011   49032   49044       4
   49029   49038  -49059   49044       4   49017   49035   49050   49068       5
   49011   49029   49038   49059       4   49011   49032  -49044   49059       4
   49008   48990   49011   49029       6   49008   48990   49011   49032       6
   49005   49017   49035   49050       7   48999   49017   49035   49050       7
   48996   49008   48990   49011       4   48990   49011   49029   49038       4
   48990   49011   49032   49044       4   48987   48972   48978   48996       9
   48987   48984   49005   49017       4   48984   48969   48981   48999       4
   48984   49005  -49017   48999       4   48984   49005   49017   49035       4
   48981   48969   48984   48987       4   48981   48969   48984   49005       4
   48981   48999  -49017   49005       4   48981   48999   49017   49035       4
   48978   48966   48975   48990       4   48978   48972   48987   48984      10
   48978   48996  -49008   48990       4   48975   48966   48978   48996       4
   48975   48990  -49008   48996       4   48975   48990   49011   49029       6
   48975   48990   49011   49032       6   48972   48963   48969   48981      11
   48972   48963  -48969   48984      11   48972   48978   48966   48975       4
   48972   48978   48996   49008       4   48972   48987   48984   49005      12
   48969   48963   48972   48978      13   48969   48963  -48972   48987      13
   48969   48981   48999   49017       4   48969   48984  -48987   48972      12
   48969   48984  -49005   49017       4   48966   48960   48963   48969      10
   48966   48960  -48963   48972      10   48966   48975   48990   49008       4
   48966   48975   48990   49011       4   48966   48978   48972   48987       9
   48966   48978  -48996   49008       4   48963   48960   48966   48975      14
   48963   48960  -48966   48978      14   48963   48969   48981   48999       4
   48963   48969  -48984   48987       4   48963   48969   48984   49005       4
   48963   48972  -48978   48966      15   48963   48972   48978   48996      15
   48963   48972  -48987   48984      10   48960   48963   48969   48981       9
   48960   48963   48969   48984       9   48960   48963  -48972   48978      13
   48960   48963   48972   48987      13   48960   48966   48975   48990       4
   48960   48966  -48978   48972       4   48960   48966   48978   48996       4
   49299   49314   49317   49329       3   49290   49299   49314   49317       3
   49281   49290   49299   49314       3   49272   49281   49290   49299       3
   49260   49272   49281   49290       3   49242   49260   49272   49281       3
   49227   49242   49260   49272       3   49224   49203   49221   49230       4
   49224   49236  -49251   49230       4   49221   49203   49224   49236       4
   49221   49230  -49251   49236       4   49209   49227   49242   49260       5
   49203   49221   49230   49251       4   49203   49224  -49236   49251       4
   49200   49182   49203   49221       6   49200   49182   49203   49224       6
   49197   49209   49227   49242       7   49191   49209   49227   49242       7
   49188   49200   49182   49203       4   49182   49203   49221   49230       4
   49182   49203   49224   49236       4   49179   49164   49170   49188       9
   49179   49176   49197   49209       4   49176   49161   49173   49191       4
   49176   49197  -49209   49191       4   49176   49197   49209   49227       4
   49173   49161   49176   49179       4   49173   49161   49176   49197       4
   49173   49191  -49209   49197       4   49173   49191   49209   49227       4
   49170   49158   49167   49182       4   49170   49164   49179   49176      10
   49170   49188  -49200   49182       4   49167   49158   49170   49188       4
   49167   49182  -49200   49188       4   49167   49182   49203   49221       6
   49167   49182   49203   49224       6   49164   49155   49161   49173      11
   49164   49155  -49161   49176      11   49164   49170   49158   49167       4
   49164   49170   49188   49200       4   49164   49179   49176   49197      12
   49161   49155   49164   49170      13   49161   49155  -49164   49179      13
   49161   49173   49191   49209       4   49161   49176  -49179   49164      12
   49161   49176  -49197   49209       4   49158   49152   49155   49161      10
   49158   49152  -49155   49164      10   49158   49167   49182   49200       4
   49158   49167   49182   49203       4   49158   49170   49164   49179       9
   49158   49170  -49188   49200       4   49155   49152   49158   49167      14
   49155   49152  -49158   49170      14   49155   49161   49173   49191       4
   49155   49161  -49176   49179       4   49155   49161   49176   49197       4
   49155   49164  -49170   49158      15   49155   49164   49170   49188      15
   49155   49164  -49179   49176      10   49152   49155   49161   49173       9
   49152   49155   49161   49176       9   49152   49155  -49164   49170      13
   49152   49155   49164   49179      13   49152   49158   49167   49182       4
   49152   49158  -49170   49164       4   49152   49158   49170   49188       4
   49491   49506   49509   49521       3   49482   49491   49506   49509       3
   49473   49482   49491   49506       3   49464   49473   49482   49491       3
   49452   49464   49473   49482       3   49434   49452   49464   49473       3
   49419   49434   49452   49464       3   49416   49395   49413   49422       4
   49416   49428  -49443   49422       4   49413   49395   49416   49428       4
   49413   49422  -49443   49428       4   49401   49419   49434   49452       5
   49395   49413   49422   49443       4   49395   49416  -49428   49443       4
   49392   49374   49395   49413       6   49392   49374   49395   49416       6
   49389   49401   49419   49434       7   49383   49401   49419   49434       7
   49380   49392   49374   49395       4   49374   49395   49413   49422       4
   49374   49395   49416   49428       4   49371   49356   49362   49380       9
   49371   49368   49389   49401       4   49368   49353   49365   49383       4
   49368   49389  -49401   49383       4   49368   49389   49401   49419       4
   49365   49353   49368   49371       4   49365   49353   49368   49389       4
   49365   49383  -49401   49389       4   49365   49383   49401   49419       4
   49362   49350   49359   49374       4   49362   49356   49371   49368      10
   49362   49380  -49392   49374       4   49359   49350   49362   49380       4
   49359   49374  -49392   49380       4   49359   49374   49395   49413       6
   49359   49374   49395   49416       6   49356   49347   49353   49365      11
   49356   49347  -49353   49368      11   49356   49362   49350   49359       4
   49356   49362   49380   49392       4   49356   49371   49368   49389      12
   49353   49347   49356   49362      13   49353   49347  -49356   49371      13
   49353   49365   49383   49401       4   49353   49368  -49371   49356      12
   49353   49368  -49389   49401       4   49350   49344   49347   49353      10
   49350   49344  -49347   49356      10   49350   49359   49374   49392       4
   49350   49359   49374   49395       4   49350   49362   49356   49371       9
   49350   49362  -49380   49392       4   49347   49344   49350   49359      14
   49347   49344  -49350   49362      14   49347   49353   49365   49383       4
   49347   49353  -49368   49371       4   49347   49353   49368   49389       4
   49347   49356  -49362   49350      15   49347   49356   49362   49380      15
   49347   49356  -49371   49368      10   49344   49347   49353   49365       9
   49344   49347   49353   49368       9   49344   49347  -49356   49362      13
   49344   49347   49356   49371      13   49344   49350   49359   49374       4
   49344   49350  -49362   49356       4   49344   49350   49362   49380       4
   49683   49698   49701   49713       3   49674   49683   49698   49701       3
   49665   49674   49683   49698       3   49656   49665   49674   49683       3
   49644   49656   49665   49674       3   49626   49644   49656   49665       3
   49611   49626   49644   49656       3   49608   49587   49605   49614       4
   49608   49620  -49635   49614       4   49605   49587   49608   49620       4
   49605   49614  -49635   49620       4   49593   49611   49626   49644       5
   49587   49605   49614   49635       4   49587   49608  -49620   49635       4
   49584   49566   49587   49605       6   49584   49566   49587   49608       6
   49581   49593   49611   49626       7   49575   49593   49611   49626       7
   49572   49584   49566   49587       4   49566   49587   49605   49614       4
   49566   49587   49608   49620       4   49563   49548   49554   49572       9
   49563   49560   49581   49593       4   49560   49545   49557   49575       4
   49560   49581  -49593   49575       4   49560   49581   49593   49611       4
   49557   49545   49560   49563       4   49557   49545   49560   49581       4
   49557   49575  -49593   49581       4   49557   49575   49593   49611       4
   49554   49542   49551   49566       4   49554   49548   49563   49560      10
   49554   49572  -49584   49566       4   49551   49542   49554   49572       4
   49551   49566  -49584   49572       4   49551   49566   49587   49605       6
   49551   49566   49587   49608       6   49548   49539   49545   49557      11
   49548   49539  -49545   49560      11   49548   49554   49542   49551       4
   49548   49554   49572   49584       4   49548   49563   49560   49581      12
   49545   49539   49548   49554      13   49545   49539  -49548   49563      13
   49545   49557   49575   49593       4   49545   49560  -49563   49548      12
   49545   49560  -49581   49593       4   49542   49536   49539   49545      10
   49542   49536  -49539   49548      10   49542   49551   49566   49584       4
   49542   49551   49566   49587       4   49542   49554   49548   49563       9
   49542   49554  -49572   49584       4   49539   49536   49542   49551      14
   49539   49536  -49542   49554      14   49539   49545   49557   49575       4
   49539   49545  -49560   49563       4   49539   49545   49560   49581       4
   49539   49548  -49554   49542      15   49539   49548   49554   49572      15
   49539   49548  -49563   49560      10   49536   49539   49545   49557       9
   49536   49539   49545   49560       9   49536   49539  -49548   49554      13
   49536   49539   49548   49563      13   49536   49542   49551   49566       4
   49536   49542  -49554   49548       4   49536   49542   49554   49572       4
   49875   49890   49893   49905       3   49866   49875   49890   49893       3
   49857   49866   49875   49890       3   49848   49857   49866   49875       3
   49836   49848   49857   49866       3   49818   49836   49848   49857       3
   49803   49818   49836   49848       3   49800   49779   49797   49806       4
   49800   49812  -49827   49806       4   49797   49779   49800   49812       4
   49797   49806  -49827   49812       4   49785   49803   49818   49836       5
   49779   49797   49806   49827       4   49779   49800  -49812   49827       4
   49776   49758   49779   49797       6   49776   49758   49779   49800       6
   49773   49785   49803   49818       7   49767   49785   49803   49818       7
   49764   49776   49758   49779       4   49758   49779   49797   49806       4
   49758   49779   49800   49812       4   49755   49740   49746   49764       9
   49755   49752   49773   49785       4   49752   49737   49749   49767       4
   49752   49773  -49785   49767       4   49752   49773   49785   49803       4
   49749   49737   49752   49755       4   49749   49737   49752   49773       4
   49749   49767  -49785   49773       4   49749   49767   49785   49803       4
   49746   49734   49743   49758       4   49746   49740   49755   49752      10
   49746   49764  -49776   49758       4   49743   49734   49746   49764       4
   49743   49758  -49776   49764       4   49743   49758   49779   49797       6
   49743   49758   49779   49800       6   49740   49731   49737   49749      11
   49740   49731  -49737   49752      11   49740   49746   49734   49743       4
   49740   49746   49764   49776       4   49740   49755   49752   49773      12
   49737   49731   49740   49746      13   49737   49731  -49740   49755      13
   49737   49749   49767   49785       4   49737   49752  -49755   49740      12
   49737   49752  -49773   49785       4   49734   49728   49731   49737      10
   49734   49728  -49731   49740      10   49734   49743   49758   49776       4
   49734   49743   49758   49779       4   49734   49746   49740   49755       9
   49734   49746  -49764   49776       4   49731   49728   49734   49743      14
   49731   49728  -49734   49746      14   49731   49737   49749   49767       4
   49731   49737  -49752   49755       4   49731   49737   49752   49773       4
   49731   49740  -49746   49734      15   49731   49740   49746   49764      15
   49731   49740  -49755   49752      10   49728   49731   49737   49749       9
   49728   49731   49737   49752       9   49728   49731  -49740   49746      13
   49728   49731   49740   49755      13   49728   49734   49743   49758       4
   49728   49734  -49746   49740       4   49728   49734   49746   49764       4
   50067   50082   50085   50097       3   50058   50067   50082   50085       3
   50049   50058   50067   50082       3   50040   50049   50058   50067       3
   50028   50040   50049   50058       3   50010   50028   50040   50049       3
   49995   50010   50028   50040       3   49992   49971   49989   49998       4
   49992   50004  -50019   49998       4   49989   49971   49992   50004       4
   49989   49998  -50019   50004       4   49977   49995   50010   50028       5
   49971   49989   49998   50019       4   49971   49992  -50004   50019       4
   49968   49950   49971   49989       6   49968   49950   49971   49992       6
   49965   49977   49995   50010       7   49959   49977   49995   50010       7
   49956   49968   49950   49971       4   49950   49971   49989   49998       4
   49950   49971   49992   50004       4   49947   49932   49938   49956       9
   49947   49944   49965   49977       4   49944   49929   49941   49959       4
   49944   49965  -49977   49959       4   49944   49965   49977   49995       4
   49941   49929   49944   49947       4   49941   49929   49944   49965       4
   49941   49959  -49977   49965       4   49941   49959   49977   49995       4
   49938   49926   49935   49950       4   49938   49932   49947   49944      10
   49938   49956  -49968   49950       4   49935   49926   49938   49956       4
   49935   49950  -49968   49956       4   49935   49950   49971   49989       6
   49935   49950   49971   49992       6   49932   49923   49929   49941      11
   49932   49923  -49929   49944      11   49932   49938   49926   49935       4
   49932   49938   49956   49968       4   49932   49947   49944   49965      12
   49929   49923   49932   49938      13   49929   49923  -49932   49947      13
   49929   49941   49959   49977       4   49929   49944  -49947   49932      12
   49929   49944  -49965   49977       4   49926   49920   49923   49929      10
   49926   49920  -49923   49932      10   49926   49935   49950   49968       4
   49926   49935   49950   49971       4   49926   49938   49932   49947       9
   49926   49938  -49956   49968       4   49923   49920   49926   49935      14
   49923   49920  -49926   49938      14   49923   49929   49941   49959       4
   49923   49929  -49944   49947       4   49923   49929   49944   49965       4
   49923   49932  -49938   49926      15   49923   49932   49938   49956      15
   49923   49932  -49947   49944      10   49920   49923   49929   49941       9
   49920   49923   49929   49944       9   49920   49923  -49932   49938      13
   49920   49923   49932   49947      13   49920   49926   49935   49950       4
   49920   49926  -49938   49932       4   49920   49926   49938   49956       4
   50259   50274   50277   50289       3   50250   50259   50274   50277       3
   50241   50250   50259   50274       3   50232   50241   50250   50259       3
   50220   50232   50241   50250       3   50202   50220   50232   50241       3
   50187   50202   50220   50232       3   50184   50163   50181   50190       4
   50184   50196  -50211   50190       4   50181   50163   50184   50196       4
   50181   50190  -50211   50196       4   50169   50187   50202   50220       5
   50163   50181   50190   50211       4   50163   50184  -50196   50211       4
   50160   50142   50163   50181       6   50160   50142   50163   50184       6
   50157   50169   50187   50202       7   50151   50169   50187   50202       7
   50148   50160   50142   50163       4   50142   50163   50181   50190       4
   50142   50163   50184   50196       4   50139   50124   50130   50148       9
   50139   50136   50157   50169       4   50136   50121   50133   50151       4
   50136   50157  -50169   50151       4   50136   50157   50169   50187       4
   50133   50121   50136   50139       4   50133   50121   50136   50157       4
   50133   50151  -50169   50157       4   50133   50151   50169   50187       4
   50130   50118   50127   50142       4   50130   50124   50139   50136      10
   50130   50148  -50160   50142       4   50127   50118   50130   50148       4
   50127   50142  -50160   50148       4   50127   50142   50163   50181       6
   50127   50142   50163   50184       6   50124   50115   50121   50133      11
   50124   50115  -50121   50136      11   50124   50130   50118   50127       4
   50124   50130   50148   50160       4   50124   50139   50136   50157      12
   50121   50115   50124   50130      13   50121   50115  -50124   50139      13
   50121   50133   50151   50169       4   50121   50136  -50139   50124      12
   50121   50136  -50157   50169       4   50118   50112   50115   50121      10
   50118   50112  -50115   50124      10   50118   50127   50142   50160       4
   50118   50127   50142   50163       4   50118   50130   50124   50139       9
   50118   50130  -50148   50160       4   50115   50112   50118   50127      14
   50115   50112  -50118   50130      14   50115   50121   50133   50151       4
   50115   50121  -50136   50139       4   50115   50121   50136   50157       4
   50115   50124  -50130   50118      15   50115   50124   50130   50148      15
   50115   50124  -50139   50136      10   50112   50115   50121   50133       9
   50112   50115   50121   50136       9   50112   50115  -50124   50130      13
   50112   50115   50124   50139      13   50112   50118   50127   50142       4
   50112   50118  -50130   50124       4   50112   50118   50130   50148       4
   50451   50466   50469   50481       3   50442   50451   50466   50469       3
   50433   50442   50451   50466       3   50424   50433   50442   50451       3
   50412   50424   50433   50442       3   50394   50412   50424   50433       3
   50379   50394   50412   50424       3   50376   50355   50373   50382       4
   50376   50388  -50403   50382       4   50373   50355   50376   50388       4
   50373   50382  -50403   50388       4   50361   50379   50394   50412       5
   50355   50373   50382   50403       4   50355   50376  -50388   50403       4
   50352   50334   50355   50373       6   50352   50334   50355   50376       6
   50349   50361   50379   50394       7   50343   50361   50379   50394       7
   50340   50352   50334   50355       4   50334   50355   50373   50382       4
   50334   50355   50376   50388       4   50331   50316   50322   50340       9
   50331   50328   50349   50361       4   50328   50313   50325   50343       4
   50328   50349  -50361   50343       4   50328   50349   50361   50379       4
   50325   50313   50328   50331       4   50325   50313   50328   50349       4
   50325   50343  -50361   50349       4   50325   50343   50361   50379       4
   50322   50310   50319   50334       4   50322   50316   50331   50328      10
   50322   50340  -50352   50334       4   50319   50310   50322   50340       4
   50319   50334  -50352   50340       4   50319   50334   50355   50373       6
   50319   50334   50355   50376       6   50316   50307   50313   50325      11
   50316   50307  -50313   50328      11   50316   50322   50310   50319       4
   50316   50322   50340   50352       4   50316   50331   50328   50349      12
   50313   50307   50316   50322      13   50313   50307  -50316   50331      13
   50313   50325   50343   50361       4   50313   50328  -50331   50316      12
   50313   50328  -50349   50361       4   50310   50304   50307   50313      10
   50310   50304  -50307   50316      10   50310   50319   50334   50352       4
   50310   50319   50334   50355       4   50310   50322   50316   50331       9
   50310   50322  -50340   50352       4   50307   50304   50310   50319      14
   50307   50304  -50310   50322      14   50307   50313   50325   50343       4
   50307   50313  -50328   50331       4   50307   50313   50328   50349       4
   50307   50316  -50322   50310      15   50307   50316   50322   50340      15
   50307   50316  -50331   50328      10   50304   50307   50313   50325       9
   50304   50307   50313   50328       9   50304   50307  -50316   50322      13
   50304   50307   50316   50331      13   50304   50310   50319   50334       4
   50304   50310  -50322   50316       4   50304   50310   50322   50340       4
   50643   50658   50661   50673       3   50634   50643   50658   50661       3
   50625   50634   50643   50658       3   50616   50625   50634   50643       3
   50604   50616   50625   50634       3   50586   50604   50616   50625       3
   50571   50586   50604   50616       3   50568   50547   50565   50574       4
   50568   50580  -50595   50574       4   50565   50547   50568   50580       4
   50565   50574  -50595   50580       4   50553   50571   50586   50604       5
   50547   50565   50574   50595       4   50547   50568  -50580   50595       4
   50544   50526   50547   50565       6   50544   50526   50547   50568       6
   50541   50553   50571   50586       7   50535   50553   50571   50586       7
   50532   50544   50526   50547       4   50526   50547   50565   50574       4
   50526   50547   50568   50580       4   50523   50508   50514   50532       9
   50523   50520   50541   50553       4   50520   50505   50517   50535       4
   50520   50541  -50553   50535       4   50520   50541   50553   50571       4
   50517   50505   50520   50523       4   50517   50505   50520   50541       4
   50517   50535  -50553   50541       4   50517   50535   50553   50571       4
   50514   50502   50511   50526       4   50514   50508   50523   50520      10
   50514   50532  -50544   50526       4   50511   50502   50514   50532       4
   50511   50526  -50544   50532       4   50511   50526   50547   50565       6
   50511   50526   50547   50568       6   50508   50499   50505   50517      11
   50508   50499  -50505   50520      11   50508   50514   50502   50511       4
   50508   50514   50532   50544       4   50508   50523   50520   50541      12
   50505   50499   50508   50514      13   50505   50499  -50508   50523      13
   50505   50517   50535   50553       4   50505   50520  -50523   50508      12
   50505   50520  -50541   50553       4   50502   50496   50499   50505      10
   50502   50496  -50499   50508      10   50502   50511   50526   50544       4
   50502   50511   50526   50547       4   50502   50514   50508   50523       9
   50502   50514  -50532   50544       4   50499   50496   50502   50511      14
   50499   50496  -50502   50514      14   50499   50505   50517   50535       4
   50499   50505  -50520   50523       4   50499   50505   50520   50541       4
   50499   50508  -50514   50502      15   50499   50508   50514   50532      15
   50499   50508  -50523   50520      10   50496   50499   50505   50517       9
   50496   50499   50505   50520       9   50496   50499  -50508   50514      13
   50496   50499   50508   50523      13   50496   50502   50511   50526       4
   50496   50502  -50514   50508       4   50496   50502   50514   50532       4
   50835   50850   50853   50865       3   50826   50835   50850   50853       3
   50817   50826   50835   50850       3   50808   50817   50826   50835       3
   50796   50808   50817   50826       3   50778   50796   50808   50817       3
   50763   50778   50796   50808       3   50760   50739   50757   50766       4
   50760   50772  -50787   50766       4   50757   50739   50760   50772       4
   50757   50766  -50787   50772       4   50745   50763   50778   50796       5
   50739   50757   50766   50787       4   50739   50760  -50772   50787       4
   50736   50718   50739   50757       6   50736   50718   50739   50760       6
   50733   50745   50763   50778       7   50727   50745   50763   50778       7
   50724   50736   50718   50739       4   50718   50739   50757   50766       4
   50718   50739   50760   50772       4   50715   50700   50706   50724       9
   50715   50712   50733   50745       4   50712   50697   50709   50727       4
   50712   50733  -50745   50727       4   50712   50733   50745   50763       4
   50709   50697   50712   50715       4   50709   50697   50712   50733       4
   50709   50727  -50745   50733       4   50709   50727   50745   50763       4
   50706   50694   50703   50718       4   50706   50700   50715   50712      10
   50706   50724  -50736   50718       4   50703   50694   50706   50724       4
   50703   50718  -50736   50724       4   50703   50718   50739   50757       6
   50703   50718   50739   50760       6   50700   50691   50697   50709      11
   50700   50691  -50697   50712      11   50700   50706   50694   50703       4
   50700   50706   50724   50736       4   50700   50715   50712   50733      12
   50697   50691   50700   50706      13   50697   50691  -50700   50715      13
   50697   50709   50727   50745       4   50697   50712  -50715   50700      12
   50697   50712  -50733   50745       4   50694   50688   50691   50697      10
   50694   50688  -50691   50700      10   50694   50703   50718   50736       4
   50694   50703   50718   50739       4   50694   50706   50700   50715       9
   50694   50706  -50724   50736       4   50691   50688   50694   50703      14
   50691   50688  -50694   50706      14   50691   50697   50709   50727       4
   50691   50697  -50712   50715       4   50691   50697   50712   50733       4
   50691   50700  -50706   50694      15   50691   50700   50706   50724      15
   50691   50700  -50715   50712      10   50688   50691   50697   50709       9
   50688   50691   50697   50712       9   50688   50691  -50700   50706      13
   50688   50691   50700   50715      13   50688   50694   50703   50718       4
   50688   50694  -50706   50700       4   50688   50694   50706   50724       4
   51027   51042   51045   51057       3   51018   51027   51042   51045       3
   51009   51018   51027   51042       3   51000   51009   51018   51027       3
   50988   51000   51009   51018       3   50970   50988   51000   51009       3
   50955   50970   50988   51000       3   50952   50931   50949   50958       4
   50952   50964  -50979   50958       4   50949   50931   50952   50964       4
   50949   50958  -50979   50964       4   50937   50955   50970   50988       5
   50931   50949   50958   50979       4   50931   50952  -50964   50979       4
   50928   50910   50931   50949       6   50928   50910   50931   50952       6
   50925   50937   50955   50970       7   50919   50937   50955   50970       7
   50916   50928   50910   50931       4   50910   50931   50949   50958       4
   50910   50931   50952   50964       4   50907   50892   50898   50916       9
   50907   50904   50925   50937       4   50904   50889   50901   50919       4
   50904   50925  -50937   50919       4   50904   50925   50937   50955       4
   50901   50889   50904   50907       4   50901   50889   50904   50925       4
   50901   50919  -50937   50925       4   50901   50919   50937   50955       4
   50898   50886   50895   50910       4   50898   50892   50907   50904      10
   50898   50916  -50928   50910       4   50895   50886   50898   50916       4
   50895   50910  -50928   50916       4   50895   50910   50931   50949       6
   50895   50910   50931   50952       6   50892   50883   50889   50901      11
   50892   50883  -50889   50904      11   50892   50898   50886   50895       4
   50892   50898   50916   50928       4   50892   50907   50904   50925      12
   50889   50883   50892   50898      13   50889   50883  -50892   50907      13
   50889   50901   50919   50937       4   50889   50904  -50907   50892      12
   50889   50904  -50925   50937       4   50886   50880   50883   50889      10
   50886   50880  -50883   50892      10   50886   50895   50910   50928       4
   50886   50895   50910   50931       4   50886   50898   50892   50907       9
   50886   50898  -50916   50928       4   50883   50880   50886   50895      14
   50883   50880  -50886   50898      14   50883   50889   50901   50919       4
   50883   50889  -50904   50907       4   50883   50889   50904   50925       4
   50883   50892  -50898   50886      15   50883   50892   50898   50916      15
   50883   50892  -50907   50904      10   50880   50883   50889   50901       9
   50880   50883   50889   50904       9   50880   50883  -50892   50898      13
   50880   50883   50892   50907      13   50880   50886   50895   50910       4
   50880   50886  -50898   50892       4   50880   50886   50898   50916       4
   51219   51234   51237   51249       3   51210   51219   51234   51237       3
   51201   51210   51219   51234       3   51192   51201   51210   51219       3
   51180   51192   51201   51210       3   51162   51180   51192   51201       3
   51147   51162   51180   51192       3   51144   51123   51141   51150       4
   51144   51156  -51171   51150       4   51141   51123   51144   51156       4
   51141   51150  -51171   51156       4   51129   51147   51162   51180       5
   51123   51141   51150   51171       4   51123   51144  -51156   51171       4
   51120   51102   51123   51141       6   51120   51102   51123   51144       6
   51117   51129   51147   51162       7   51111   51129   51147   51162       7
   51108   51120   51102   51123       4   51102   51123   51141   51150       4
   51102   51123   51144   51156       4   51099   51084   51090   51108       9
   51099   51096   51117   51129       4   51096   51081   51093   51111       4
   51096   51117  -51129   51111       4   51096   51117   51129   51147       4
   51093   51081   51096   51099       4   51093   51081   51096   51117       4
   51093   51111  -51129   51117       4   51093   51111   51129   51147       4
   51090   51078   51087   51102       4   51090   51084   51099   51096      10
   51090   51108  -51120   51102       4   51087   51078   51090   51108       4
   51087   51102  -51120   51108       4   51087   51102   51123   51141       6
   51087   51102   51123   51144       6   51084   51075   51081   51093      11
   51084   51075  -51081   51096      11   51084   51090   51078   51087       4
   51084   51090   51108   51120       4   51084   51099   51096   51117      12
   51081   51075   51084   51090      13   51081   51075  -51084   51099      13
   51081   51093   51111   51129       4   51081   51096  -51099   51084      12
   51081   51096  -51117   51129       4   51078   51072   51075   51081      10
   51078   51072  -51075   51084      10   51078   51087   51102   51120       4
   51078   51087   51102   51123       4   51078   51090   51084   51099       9
   51078   51090  -51108   51120       4   51075   51072   51078   51087      14
   51075   51072  -51078   51090      14   51075   51081   51093   51111       4
   51075   51081  -51096   51099       4   51075   51081   51096   51117       4
   51075   51084  -51090   51078      15   51075   51084   51090   51108      15
   51075   51084  -51099   51096      10   51072   51075   51081   51093       9
   51072   51075   51081   51096       9   51072   51075  -51084   51090      13
   51072   51075   51084   51099      13   51072   51078   51087   51102       4
   51072   51078  -51090   51084       4   51072   51078   51090   51108       4
   51411   51426   51429   51441       3   51402   51411   51426   51429       3
   51393   51402   51411   51426       3   51384   51393   51402   51411       3
   51372   51384   51393   51402       3   51354   51372   51384   51393       3
   51339   51354   51372   51384       3   51336   51315   51333   51342       4
   51336   51348  -51363   51342       4   51333   51315   51336   51348       4
   51333   51342  -51363   51348       4   51321   51339   51354   51372       5
   51315   51333   51342   51363       4   51315   51336  -51348   51363       4
   51312   51294   51315   51333       6   51312   51294   51315   51336       6
   51309   51321   51339   51354       7   51303   51321   51339   51354       7
   51300   51312   51294   51315       4   51294   51315   51333   51342       4
   51294   51315   51336   51348       4   51291   51276   51282   51300       9
   51291   51288   51309   51321       4   51288   51273   51285   51303       4
   51288   51309  -51321   51303       4   51288   51309   51321   51339       4
   51285   51273   51288   51291       4   51285   51273   51288   51309       4
   51285   51303  -51321   51309       4   51285   51303   51321   51339       4
   51282   51270   51279   51294       4   51282   51276   51291   51288      10
   51282   51300  -51312   51294       4   51279   51270   51282   51300       4
   51279   51294  -51312   51300       4   51279   51294   51315   51333       6
   51279   51294   51315   51336       6   51276   51267   51273   51285      11
   51276   51267  -51273   51288      11   51276   51282   51270   51279       4
   51276   51282   51300   51312       4   51276   51291   51288   51309      12
   51273   51267   51276   51282      13   51273   51267  -51276   51291      13
   51273   51285   51303   51321       4   51273   51288  -51291   51276      12
   51273   51288  -51309   51321       4   51270   51264   51267   51273      10
   51270   51264  -51267   51276      10   51270   51279   51294   51312       4
   51270   51279   51294   51315       4   51270   51282   51276   51291       9
   51270   51282  -51300   51312       4   51267   51264   51270   51279      14
   51267   51264  -51270   51282      14   51267   51273   51285   51303       4
   51267   51273  -51288   51291       4   51267   51273   51288   51309       4
   51267   51276  -51282   51270      15   51267   51276   51282   51300      15
   51267   51276  -51291   51288      10   51264   51267   51273   51285       9
   51264   51267   51273   51288       9   51264   51267  -51276   51282      13
   51264   51267   51276   51291      13   51264   51270   51279   51294       4
   51264   51270  -51282   51276       4   51264   51270   51282   51300       4
   51603   51618   51621   51633       3   51594   51603   51618   51621       3
   51585   51594   51603   51618       3   51576   51585   51594   51603       3
   51564   51576   51585   51594       3   51546   51564   51576   51585       3
   51531   51546   51564   51576       3   51528   51507   51525   51534       4
   51528   51540  -51555   51534       4   51525   51507   51528   51540       4
   51525   51534  -51555   51540       4   51513   51531   51546   51564       5
   51507   51525   51534   51555       4   51507   51528  -51540   51555       4
   51504   51486   51507   51525       6   51504   51486   51507   51528       6
   51501   51513   51531   51546       7   51495   51513   51531   51546       7
   51492   51504   51486   51507       4   51486   51507   51525   51534       4
   51486   51507   51528   51540       4   51483   51468   51474   51492       9
   51483   51480   51501   51513       4   51480   51465   51477   51495       4
   51480   51501  -51513   51495       4   51480   51501   51513   51531       4
   51477   51465   51480   51483       4   51477   51465   51480   51501       4
   51477   51495  -51513   51501       4   51477   51495   51513   51531       4
   51474   51462   51471   51486       4   51474   51468   51483   51480      10
   51474   51492  -51504   51486       4   51471   51462   51474   51492       4
   51471   51486  -51504   51492       4   51471   51486   51507   51525       6
   51471   51486   51507   51528       6   51468   51459   51465   51477      11
   51468   51459  -51465   51480      11   51468   51474   51462   51471       4
   51468   51474   51492   51504       4   51468   51483   51480   51501      12
   51465   51459   51468   51474      13   51465   51459  -51468   51483      13
   51465   51477   51495   51513       4   51465   51480  -51483   51468      12
   51465   51480  -51501   51513       4   51462   51456   51459   51465      10
   51462   51456  -51459   51468      10   51462   51471   51486   51504       4
   51462   51471   51486   51507       4   51462   51474   51468   51483       9
   51462   51474  -51492   51504       4   51459   51456   51462   51471      14
   51459   51456  -51462   51474      14   51459   51465   51477   51495       4
   51459   51465  -51480   51483       4   51459   51465   51480   51501       4
   51459   51468  -51474   51462      15   51459   51468   51474   51492      15
   51459   51468  -51483   51480      10   51456   51459   51465   51477       9
   51456   51459   51465   51480       9   51456   51459  -51468   51474      13
   51456   51459   51468   51483      13   51456   51462   51471   51486       4
   51456   51462  -51474   51468       4   51456   51462   51474   51492       4
   51795   51810   51813   51825       3   51786   51795   51810   51813       3
   51777   51786   51795   51810       3   51768   51777   51786   51795       3
   51756   51768   51777   51786       3   51738   51756   51768   51777       3
   51723   51738   51756   51768       3   51720   51699   51717   51726       4
   51720   51732  -51747   51726       4   51717   51699   51720   51732       4
   51717   51726  -51747   51732       4   51705   51723   51738   51756       5
   51699   51717   51726   51747       4   51699   51720  -51732   51747       4
   51696   51678   51699   51717       6   51696   51678   51699   51720       6
   51693   51705   51723   51738       7   51687   51705   51723   51738       7
   51684   51696   51678   51699       4   51678   51699   51717   51726       4
   51678   51699   51720   51732       4   51675   51660   51666   51684       9
   51675   51672   51693   51705       4   51672   51657   51669   51687       4
   51672   51693  -51705   51687       4   51672   51693   51705   51723       4
   51669   51657   51672   51675       4   51669   51657   51672   51693       4
   51669   51687  -51705   51693       4   51669   51687   51705   51723       4
   51666   51654   51663   51678       4   51666   51660   51675   51672      10
   51666   51684  -51696   51678       4   51663   51654   51666   51684       4
   51663   51678  -51696   51684       4   51663   51678   51699   51717       6
   51663   51678   51699   51720       6   51660   51651   51657   51669      11
   51660   51651  -51657   51672      11   51660   51666   51654   51663       4
   51660   51666   51684   51696       4   51660   51675   51672   51693      12
   51657   51651   51660   51666      13   51657   51651  -51660   51675      13
   51657   51669   51687   51705       4   51657   51672  -51675   51660      12
   51657   51672  -51693   51705       4   51654   51648   51651   51657      10
   51654   51648  -51651   51660      10   51654   51663   51678   51696       4
   51654   51663   51678   51699       4   51654   51666   51660   51675       9
   51654   51666  -51684   51696       4   51651   51648   51654   51663      14
   51651   51648  -51654   51666      14   51651   51657   51669   51687       4
   51651   51657  -51672   51675       4   51651   51657   51672   51693       4
   51651   51660  -51666   51654      15   51651   51660   51666   51684      15
   51651   51660  -51675   51672      10   51648   51651   51657   51669       9
   51648   51651   51657   51672       9   51648   51651  -51660   51666      13
   51648   51651   51660   51675      13   51648   51654   51663   51678       4
   51648   51654  -51666   51660       4   51648   51654   51666   51684       4
   51987   52002   52005   52017       3   51978   51987   52002   52005       3
   51969   51978   51987   52002       3   51960   51969   51978   51987       3
   51948   51960   51969   51978       3   51930   51948   51960   51969       3
   51915   51930   51948   51960       3   51912   51891   51909   51918       4
   51912   51924  -51939   51918       4   51909   51891   51912   51924       4
   51909   51918  -51939   51924       4   51897   51915   51930   51948       5
   51891   51909   51918   51939       4   51891   51912  -51924   51939       4
   51888   51870   51891   51909       6   51888   51870   51891   51912       6
   51885   51897   51915   51930       7   51879   51897   51915   51930       7
   51876   51888   51870   51891       4   51870   51891   51909   51918       4
   51870   51891   51912   51924       4   51867   51852   51858   51876       9
   51867   51864   51885   51897       4   51864   51849   51861   51879       4
   51864   51885  -51897   51879       4   51864   51885   51897   51915       4
   51861   51849   51864   51867       4   51861   51849   51864   51885       4
   51861   51879  -51897   51885       4   51861   51879   51897   51915       4
   51858   51846   51855   51870       4   51858   51852   51867   51864      10
   51858   51876  -51888   51870       4   51855   51846   51858   51876       4
   51855   51870  -51888   51876       4   51855   51870   51891   51909       6
   51855   51870   51891   51912       6   51852   51843   51849   51861      11
   51852   51843  -51849   51864      11   51852   51858   51846   51855       4
   51852   51858   51876   51888       4   51852   51867   51864   51885      12
   51849   51843   51852   51858      13   51849   51843  -51852   51867      13
   51849   51861   51879   51897       4   51849   51864  -51867   51852      12
   51849   51864  -51885   51897       4   51846   51840   51843   51849      10
   51846   51840  -51843   51852      10   51846   51855   51870   51888       4
   51846   51855   51870   51891       4   51846   51858   51852   51867       9
   51846   51858  -51876   51888       4   51843   51840   51846   51855      14
   51843   51840  -51846   51858      14   51843   51849   51861   51879       4
   51843   51849  -51864   51867       4   51843   51849   51864   51885       4
   51843   51852  -51858   51846      15   51843   51852   51858   51876      15
   51843   51852  -51867   51864      10   51840   51843   51849   51861       9
   51840   51843   51849   51864       9   51840   51843  -51852   51858      13
   51840   51843   51852   51867      13   51840   51846   51855   51870       4
   51840   51846  -51858   51852       4   51840   51846   51858   51876       4
   52179   52194   52197   52209       3   52170   52179   52194   52197       3
   52161   52170   52179   52194       3   52152   52161   52170   52179       3
   52140   52152   52161   52170       3   52122   52140   52152   52161       3
   52107   52122   52140   52152       3   52104   52083   52101   52110       4
   52104   52116  -52131   52110       4   52101   52083   52104   52116       4
   52101   52110  -52131   52116       4   52089   52107   52122   52140       5
   52083   52101   52110   52131       4   52083   52104  -52116   52131       4
   52080   52062   52083   52101       6   52080   52062   52083   52104       6
   52077   52089   52107   52122       7   52071   52089   52107   52122       7
   52068   52080   52062   52083       4   52062   52083   52101   52110       4
   52062   52083   52104   52116       4   52059   52044   52050   52068       9
   52059   52056   52077   52089       4   52056   52041   52053   52071       4
   52056   52077  -52089   52071       4   52056   52077   52089   52107       4
   52053   52041   52056   52059       4   52053   52041   52056   52077       4
   52053   52071  -52089   52077       4   52053   52071   52089   52107       4
   52050   52038   52047   52062       4   52050   52044   52059   52056      10
   52050   52068  -52080   52062       4   52047   52038   52050   52068       4
   52047   52062  -52080   52068       4   52047   52062   52083   52101       6
   52047   52062   52083   52104       6   52044   52035   52041   52053      11
   52044   52035  -52041   52056      11   52044   52050   52038   52047       4
   52044   52050   52068   52080       4   52044   52059   52056   52077      12
   52041   52035   52044   52050      13   52041   52035  -52044   52059      13
   52041   52053   52071   52089       4   52041   52056  -52059   52044      12
   52041   52056  -52077   52089       4   52038   52032   52035   52041      10
   52038   52032  -52035   52044      10   52038   52047   52062   52080       4
   52038   52047   52062   52083       4   52038   52050   52044   52059       9
   52038   52050  -52068   52080       4   52035   52032   52038   52047      14
   52035   52032  -52038   52050      14   52035   52041   52053   52071       4
   52035   52041  -52056   52059       4   52035   52041   52056   52077       4
   52035   52044  -52050   52038      15   52035   52044   52050   52068      15
   52035   52044  -52059   52056      10   52032   52035   52041   52053       9
   52032   52035   52041   52056       9   52032   52035  -52044   52050      13
   52032   52035   52044   52059      13   52032   52038   52047   52062       4
   52032   52038  -52050   52044       4   52032   52038   52050   52068       4
   52371   52386   52389   52401       3   52362   52371   52386   52389       3
   52353   52362   52371   52386       3   52344   52353   52362   52371       3
   52332   52344   52353   52362       3   52314   52332   52344   52353       3
   52299   52314   52332   52344       3   52296   52275   52293   52302       4
   52296   52308  -52323   52302       4   52293   52275   52296   52308       4
   52293   52302  -52323   52308       4   52281   52299   52314   52332       5
   52275   52293   52302   52323       4   52275   52296  -52308   52323       4
   52272   52254   52275   52293       6   52272   52254   52275   52296       6
   52269   52281   52299   52314       7   52263   52281   52299   52314       7
   52260   52272   52254   52275       4   52254   52275   52293   52302       4
   52254   52275   52296   52308       4   52251   52236   52242   52260       9
   52251   52248   52269   52281       4   52248   52233   52245   52263       4
   52248   52269  -52281   52263       4   52248   52269   52281   52299       4
   52245   52233   52248   52251       4   52245   52233   52248   52269       4
   52245   52263  -52281   52269       4   52245   52263   52281   52299       4
   52242   52230   52239   52254       4   52242   52236   52251   52248      10
   52242   52260  -52272   52254       4   52239   52230   52242   52260       4
   52239   52254  -52272   52260       4   52239   52254   52275   52293       6
   52239   52254   52275   52296       6   52236   52227   52233   52245      11
   52236   52227  -52233   52248      11   52236   52242   52230   52239       4
   52236   52242   52260   52272       4   52236   52251   52248   52269      12
   52233   52227   52236   52242      13   52233   52227  -52236   52251      13
   52233   52245   52263   52281       4   52233   52248  -52251   52236      12
   52233   52248  -52269   52281       4   52230   52224   52227   52233      10
   52230   52224  -52227   52236      10   52230   52239   52254   52272       4
   52230   52239   52254   52275       4   52230   52242   52236   52251       9
   52230   52242  -52260   52272       4   52227   52224   52230   52239      14
   52227   52224  -52230   52242      14   52227   52233   52245   52263       4
   52227   52233  -52248   52251       4   52227   52233   52248   52269       4
   52227   52236  -52242   52230      15   52227   52236   52242   52260      15
   52227   52236  -52251   52248      10   52224   52227   52233   52245       9
   52224   52227   52233   52248       9   52224   52227  -52236   52242      13
   52224   52227   52236   52251      13   52224   52230   52239   52254       4
   52224   52230  -52242   52236       4   52224   52230   52242   52260       4
   52563   52578   52581   52593       3   52554   52563   52578   52581       3
   52545   52554   52563   52578       3   52536   52545   52554   52563       3
   52524   52536   52545   52554       3   52506   52524   52536   52545       3
   52491   52506   52524   52536       3   52488   52467   52485   52494       4
   52488   52500  -52515   52494       4   52485   52467   52488   52500       4
   52485   52494  -52515   52500       4   52473   52491   52506   52524       5
   52467   52485   52494   52515       4   52467   52488  -52500   52515       4
   52464   52446   52467   52485       6   52464   52446   52467   52488       6
   52461   52473   52491   52506       7   52455   52473   52491   52506       7
   52452   52464   52446   52467       4   52446   52467   52485   52494       4
   52446   52467   52488   52500       4   52443   52428   52434   52452       9
   52443   52440   52461   52473       4   52440   52425   52437   52455       4
   52440   52461  -52473   52455       4   52440   52461   52473   52491       4
   52437   52425   52440   52443       4   52437   52425   52440   52461       4
   52437   52455  -52473   52461       4   52437   52455   52473   52491       4
   52434   52422   52431   52446       4   52434   52428   52443   52440      10
   52434   52452  -52464   52446       4   52431   52422   52434   52452       4
   52431   52446  -52464   52452       4   52431   52446   52467   52485       6
   52431   52446   52467   52488       6   52428   52419   52425   52437      11
   52428   52419  -52425   52440      11   52428   52434   52422   52431       4
   52428   52434   52452   52464       4   52428   52443   52440   52461      12
   52425   52419   52428   52434      13   52425   52419  -52428   52443      13
   52425   52437   52455   52473       4   52425   52440  -52443   52428      12
   52425   52440  -52461   52473       4   52422   52416   52419   52425      10
   52422   52416  -52419   52428      10   52422   52431   52446   52464       4
   52422   52431   52446   52467       4   52422   52434   52428   52443       9
   52422   52434  -52452   52464       4   52419   52416   52422   52431      14
   52419   52416  -52422   52434      14   52419   52425   52437   52455       4
   52419   52425  -52440   52443       4   52419   52425   52440   52461       4
   52419   52428  -52434   52422      15   52419   52428   52434   52452      15
   52419   52428  -52443   52440      10   52416   52419   52425   52437       9
   52416   52419   52425   52440       9   52416   52419  -52428   52434      13
   52416   52419   52428   52443      13   52416   52422   52431   52446       4
   52416   52422  -52434   52428       4   52416   52422   52434   52452       4
   52755   52770   52773   52785       3   52746   52755   52770   52773       3
   52737   52746   52755   52770       3   52728   52737   52746   52755       3
   52716   52728   52737   52746       3   52698   52716   52728   52737       3
   52683   52698   52716   52728       3   52680   52659   52677   52686       4
   52680   52692  -52707   52686       4   52677   52659   52680   52692       4
   52677   52686  -52707   52692       4   52665   52683   52698   52716       5
   52659   52677   52686   52707       4   52659   52680  -52692   52707       4
   52656   52638   52659   52677       6   52656   52638   52659   52680       6
   52653   52665   52683   52698       7   52647   52665   52683   52698       7
   52644   52656   52638   52659       4   52638   52659   52677   52686       4
   52638   52659   52680   52692       4   52635   52620   52626   52644       9
   52635   52632   52653   52665       4   52632   52617   52629   52647       4
   52632   52653  -52665   52647       4   52632   52653   52665   52683       4
   52629   52617   52632   52635       4   52629   52617   52632   52653       4
   52629   52647  -52665   52653       4   52629   52647   52665   52683       4
   52626   52614   52623   52638       4   52626   52620   52635   52632      10
   52626   52644  -52656   52638       4   52623   52614   52626   52644       4
   52623   52638  -52656   52644       4   52623   52638   52659   52677       6
   52623   52638   52659   52680       6   52620   52611   52617   52629      11
   52620   52611  -52617   52632      11   52620   52626   52614   52623       4
   52620   52626   52644   52656       4   52620   52635   52632   52653      12
   52617   52611   52620   52626      13   52617   52611  -52620   52635      13
   52617   52629   52647   52665       4   52617   52632  -52635   52620      12
   52617   52632  -52653   52665       4   52614   52608   52611   52617      10
   52614   52608  -52611   52620      10   52614   52623   52638   52656       4
   52614   52623   52638   52659       4   52614   52626   52620   52635       9
   52614   52626  -52644   52656       4   52611   52608   52614   52623      14
   52611   52608  -52614   52626      14   52611   52617   52629   52647       4
   52611   52617  -52632   52635       4   52611   52617   52632   52653       4
   52611   52620  -52626   52614      15   52611   52620   52626   52644      15
   52611   52620  -52635   52632      10   52608   52611   52617   52629       9
   52608   52611   52617   52632       9   52608   52611  -52620   52626      13
   52608   52611   52620   52635      13   52608   52614   52623   52638       4
   52608   52614  -52626   52620       4   52608   52614   52626   52644       4
   52947   52962   52965   52977       3   52938   52947   52962   52965       3
   52929   52938   52947   52962       3   52920   52929   52938   52947       3
   52908   52920   52929   52938       3   52890   52908   52920   52929       3
   52875   52890   52908   52920       3   52872   52851   52869   52878       4
   52872   52884  -52899   52878       4   52869   52851   52872   52884       4
   52869   52878  -52899   52884       4   52857   52875   52890   52908       5
   52851   52869   52878   52899       4   52851   52872  -52884   52899       4
   52848   52830   52851   52869       6   52848   52830   52851   52872       6
   52845   52857   52875   52890       7   52839   52857   52875   52890       7
   52836   52848   52830   52851       4   52830   52851   52869   52878       4
   52830   52851   52872   52884       4   52827   52812   52818   52836       9
   52827   52824   52845   52857       4   52824   52809   52821   52839       4
   52824   52845  -52857   52839       4   52824   52845   52857   52875       4
   52821   52809   52824   52827       4   52821   52809   52824   52845       4
   52821   52839  -52857   52845       4   52821   52839   52857   52875       4
   52818   52806   52815   52830       4   52818   52812   52827   52824      10
   52818   52836  -52848   52830       4   52815   52806   52818   52836       4
   52815   52830  -52848   52836       4   52815   52830   52851   52869       6
   52815   52830   52851   52872       6   52812   52803   52809   52821      11
   52812   52803  -52809   52824      11   52812   52818   52806   52815       4
   52812   52818   52836   52848       4   52812   52827   52824   52845      12
   52809   52803   52812   52818      13   52809   52803  -52812   52827      13
   52809   52821   52839   52857       4   52809   52824  -52827   52812      12
   52809   52824  -52845   52857       4   52806   52800   52803   52809      10
   52806   52800  -52803   52812      10   52806   52815   52830   52848       4
   52806   52815   52830   52851       4   52806   52818   52812   52827       9
   52806   52818  -52836   52848       4   52803   52800   52806   52815      14
   52803   52800  -52806   52818      14   52803   52809   52821   52839       4
   52803   52809  -52824   52827       4   52803   52809   52824   52845       4
   52803   52812  -52818   52806      15   52803   52812   52818   52836      15
   52803   52812  -52827   52824      10   52800   52803   52809   52821       9
   52800   52803   52809   52824       9   52800   52803  -52812   52818      13
   52800   52803   52812   52827      13   52800   52806   52815   52830       4
   52800   52806  -52818   52812       4   52800   52806   52818   52836       4
   53139   53154   53157   53169       3   53130   53139   53154   53157       3
   53121   53130   53139   53154       3   53112   53121   53130   53139       3
   53100   53112   53121   53130       3   53082   53100   53112   53121       3
   53067   53082   53100   53112       3   53064   53043   53061   53070       4
   53064   53076  -53091   53070       4   53061   53043   53064   53076       4
   53061   53070  -53091   53076       4   53049   53067   53082   53100       5
   53043   53061   53070   53091       4   53043   53064  -53076   53091       4
   53040   53022   53043   53061       6   53040   53022   53043   53064       6
   53037   53049   53067   53082       7   53031   53049   53067   53082       7
   53028   53040   53022   53043       4   53022   53043   53061   53070       4
   53022   53043   53064   53076       4   53019   53004   53010   53028       9
   53019   53016   53037   53049       4   53016   53001   53013   53031       4
   53016   53037  -53049   53031       4   53016   53037   53049   53067       4
   53013   53001   53016   53019       4   53013   53001   53016   53037       4
   53013   53031  -53049   53037       4   53013   53031   53049   53067       4
   53010   52998   53007   53022       4   53010   53004   53019   53016      10
   53010   53028  -53040   53022       4   53007   52998   53010   53028       4
   53007   53022  -53040   53028       4   53007   53022   53043   53061       6
   53007   53022   53043   53064       6   53004   52995   53001   53013      11
   53004   52995  -53001   53016      11   53004   53010   52998   53007       4
   53004   53010   53028   53040       4   53004   53019   53016   53037      12
   53001   52995   53004   53010      13   53001   52995  -53004   53019      13
   53001   53013   53031   53049       4   53001   53016  -53019   53004      12
   53001   53016  -53037   53049       4   52998   52992   52995   53001      10
   52998   52992  -52995   53004      10   52998   53007   53022   53040       4
   52998   53007   53022   53043       4   52998   53010   53004   53019       9
   52998   53010  -53028   53040       4   52995   52992   52998   53007      14
   52995   52992  -52998   53010      14   52995   53001   53013   53031       4
   52995   53001  -53016   53019       4   52995   53001   53016   53037       4
   52995   53004  -53010   52998      15   52995   53004   53010   53028      15
   52995   53004  -53019   53016      10   52992   52995   53001   53013       9
   52992   52995   53001   53016       9   52992   52995  -53004   53010      13
   52992   52995   53004   53019      13   52992   52998   53007   53022       4
   52992   52998  -53010   53004       4   52992   52998   53010   53028       4
   53331   53346   53349   53361       3   53322   53331   53346   53349       3
   53313   53322   53331   53346       3   53304   53313   53322   53331       3
   53292   53304   53313   53322       3   53274   53292   53304   53313       3
   53259   53274   53292   53304       3   53256   53235   53253   53262       4
   53256   53268  -53283   53262       4   53253   53235   53256   53268       4
   53253   53262  -53283   53268       4   53241   53259   53274   53292       5
   53235   53253   53262   53283       4   53235   53256  -53268   53283       4
   53232   53214   53235   53253       6   53232   53214   53235   53256       6
   53229   53241   53259   53274       7   53223   53241   53259   53274       7
   53220   53232   53214   53235       4   53214   53235   53253   53262       4
   53214   53235   53256   53268       4   53211   53196   53202   53220       9
   53211   53208   53229   53241       4   53208   53193   53205   53223       4
   53208   53229  -53241   53223       4   53208   53229   53241   53259       4
   53205   53193   53208   53211       4   53205   53193   53208   53229       4
   53205   53223  -53241   53229       4   53205   53223   53241   53259       4
   53202   53190   53199   53214       4   53202   53196   53211   53208      10
   53202   53220  -53232   53214       4   53199   53190   53202   53220       4
   53199   53214  -53232   53220       4   53199   53214   53235   53253       6
   53199   53214   53235   53256       6   53196   53187   53193   53205      11
   53196   53187  -53193   53208      11   53196   53202   53190   53199       4
   53196   53202   53220   53232       4   53196   53211   53208   53229      12
   53193   53187   53196   53202      13   53193   53187  -53196   53211      13
   53193   53205   53223   53241       4   53193   53208  -53211   53196      12
   53193   53208  -53229   53241       4   53190   53184   53187   53193      10
   53190   53184  -53187   53196      10   53190   53199   53214   53232       4
   53190   53199   53214   53235       4   53190   53202   53196   53211       9
   53190   53202  -53220   53232       4   53187   53184   53190   53199      14
   53187   53184  -53190   53202      14   53187   53193   53205   53223       4
   53187   53193  -53208   53211       4   53187   53193   53208   53229       4
   53187   53196  -53202   53190      15   53187   53196   53202   53220      15
   53187   53196  -53211   53208      10   53184   53187   53193   53205       9
   53184   53187   53193   53208       9   53184   53187  -53196   53202      13
   53184   53187   53196   53211      13   53184   53190   53199   53214       4
   53184   53190  -53202   53196       4   53184   53190   53202   53220       4
   53523   53538   53541   53553       3   53514   53523   53538   53541       3
   53505   53514   53523   53538       3   53496   53505   53514   53523       3
   53484   53496   53505   53514       3   53466   53484   53496   53505       3
   53451   53466   53484   53496       3   53448   53427   53445   53454       4
   53448   53460  -53475   53454       4   53445   53427   53448   53460       4
   53445   53454  -53475   53460       4   53433   53451   53466   53484       5
   53427   53445   53454   53475       4   53427   53448  -53460   53475       4
   53424   53406   53427   53445       6   53424   53406   53427   53448       6
   53421   53433   53451   53466       7   53415   53433   53451   53466       7
   53412   53424   53406   53427       4   53406   53427   53445   53454       4
   53406   53427   53448   53460       4   53403   53388   53394   53412       9
   53403   53400   53421   53433       4   53400   53385   53397   53415       4
   53400   53421  -53433   53415       4   53400   53421   53433   53451       4
   53397   53385   53400   53403       4   53397   53385   53400   53421       4
   53397   53415  -53433   53421       4   53397   53415   53433   53451       4
   53394   53382   53391   53406       4   53394   53388   53403   53400      10
   53394   53412  -53424   53406       4   53391   53382   53394   53412       4
   53391   53406  -53424   53412       4   53391   53406   53427   53445       6
   53391   53406   53427   53448       6   53388   53379   53385   53397      11
   53388   53379  -53385   53400      11   53388   53394   53382   53391       4
   53388   53394   53412   53424       4   53388   53403   53400   53421      12
   53385   53379   53388   53394      13   53385   53379  -53388   53403      13
   53385   53397   53415   53433       4   53385   53400  -53403   53388      12
   53385   53400  -53421   53433       4   53382   53376   53379   53385      10
   53382   53376  -53379   53388      10   53382   53391   53406   53424       4
   53382   53391   53406   53427       4   53382   53394   53388   53403       9
   53382   53394  -53412   53424       4   53379   53376   53382   53391      14
   53379   53376  -53382   53394      14   53379   53385   53397   53415       4
   53379   53385  -53400   53403       4   53379   53385   53400   53421       4
   53379   53388  -53394   53382      15   53379   53388   53394   53412      15
   53379   53388  -53403   53400      10   53376   53379   53385   53397       9
   53376   53379   53385   53400       9   53376   53379  -53388   53394      13
   53376   53379   53388   53403      13   53376   53382   53391   53406       4
   53376   53382  -53394   53388       4   53376   53382   53394   53412       4
   53715   53730   53733   53745       3   53706   53715   53730   53733       3
   53697   53706   53715   53730       3   53688   53697   53706   53715       3
   53676   53688   53697   53706       3   53658   53676   53688   53697       3
   53643   53658   53676   53688       3   53640   53619   53637   53646       4
   53640   53652  -53667   53646       4   53637   53619   53640   53652       4
   53637   53646  -53667   53652       4   53625   53643   53658   53676       5
   53619   53637   53646   53667       4   53619   53640  -53652   53667       4
   53616   53598   53619   53637       6   53616   53598   53619   53640       6
   53613   53625   53643   53658       7   53607   53625   53643   53658       7
   53604   53616   53598   53619       4   53598   53619   53637   53646       4
   53598   53619   53640   53652       4   53595   53580   53586   53604       9
   53595   53592   53613   53625       4   53592   53577   53589   53607       4
   53592   53613  -53625   53607       4   53592   53613   53625   53643       4
   53589   53577   53592   53595       4   53589   53577   53592   53613       4
   53589   53607  -53625   53613       4   53589   53607   53625   53643       4
   53586   53574   53583   53598       4   53586   53580   53595   53592      10
   53586   53604  -53616   53598       4   53583   53574   53586   53604       4
   53583   53598  -53616   53604       4   53583   53598   53619   53637       6
   53583   53598   53619   53640       6   53580   53571   53577   53589      11
   53580   53571  -53577   53592      11   53580   53586   53574   53583       4
   53580   53586   53604   53616       4   53580   53595   53592   53613      12
   53577   53571   53580   53586      13   53577   53571  -53580   53595      13
   53577   53589   53607   53625       4   53577   53592  -53595   53580      12
   53577   53592  -53613   53625       4   53574   53568   53571   53577      10
   53574   53568  -53571   53580      10   53574   53583   53598   53616       4
   53574   53583   53598   53619       4   53574   53586   53580   53595       9
   53574   53586  -53604   53616       4   53571   53568   53574   53583      14
   53571   53568  -53574   53586      14   53571   53577   53589   53607       4
   53571   53577  -53592   53595       4   53571   53577   53592   53613       4
   53571   53580  -53586   53574      15   53571   53580   53586   53604      15
   53571   53580  -53595   53592      10   53568   53571   53577   53589       9
   53568   53571   53577   53592       9   53568   53571  -53580   53586      13
   53568   53571   53580   53595      13   53568   53574   53583   53598       4
   53568   53574  -53586   53580       4   53568   53574   53586   53604       4
   53907   53922   53925   53937       3   53898   53907   53922   53925       3
   53889   53898   53907   53922       3   53880   53889   53898   53907       3
   53868   53880   53889   53898       3   53850   53868   53880   53889       3
   53835   53850   53868   53880       3   53832   53811   53829   53838       4
   53832   53844  -53859   53838       4   53829   53811   53832   53844       4
   53829   53838  -53859   53844       4   53817   53835   53850   53868       5
   53811   53829   53838   53859       4   53811   53832  -53844   53859       4
   53808   53790   53811   53829       6   53808   53790   53811   53832       6
   53805   53817   53835   53850       7   53799   53817   53835   53850       7
   53796   53808   53790   53811       4   53790   53811   53829   53838       4
   53790   53811   53832   53844       4   53787   53772   53778   53796       9
   53787   53784   53805   53817       4   53784   53769   53781   53799       4
   53784   53805  -53817   53799       4   53784   53805   53817   53835       4
   53781   53769   53784   53787       4   53781   53769   53784   53805       4
   53781   53799  -53817   53805       4   53781   53799   53817   53835       4
   53778   53766   53775   53790       4   53778   53772   53787   53784      10
   53778   53796  -53808   53790       4   53775   53766   53778   53796       4
   53775   53790  -53808   53796       4   53775   53790   53811   53829       6
   53775   53790   53811   53832       6   53772   53763   53769   53781      11
   53772   53763  -53769   53784      11   53772   53778   53766   53775       4
   53772   53778   53796   53808       4   53772   53787   53784   53805      12
   53769   53763   53772   53778      13   53769   53763  -53772   53787      13
   53769   53781   53799   53817       4   53769   53784  -53787   53772      12
   53769   53784  -53805   53817       4   53766   53760   53763   53769      10
   53766   53760  -53763   53772      10   53766   53775   53790   53808       4
   53766   53775   53790   53811       4   53766   53778   53772   53787       9
   53766   53778  -53796   53808       4   53763   53760   53766   53775      14
   53763   53760  -53766   53778      14   53763   53769   53781   53799       4
   53763   53769  -53784   53787       4   53763   53769   53784   53805       4
   53763   53772  -53778   53766      15   53763   53772   53778   53796      15
   53763   53772  -53787   53784      10   53760   53763   53769   53781       9
   53760   53763   53769   53784       9   53760   53763  -53772   53778      13
   53760   53763   53772   53787      13   53760   53766   53775   53790       4
   53760   53766  -53778   53772       4   53760   53766   53778   53796       4
   54099   54114   54117   54129       3   54090   54099   54114   54117       3
   54081   54090   54099   54114       3   54072   54081   54090   54099       3
   54060   54072   54081   54090       3   54042   54060   54072   54081       3
   54027   54042   54060   54072       3   54024   54003   54021   54030       4
   54024   54036  -54051   54030       4   54021   54003   54024   54036       4
   54021   54030  -54051   54036       4   54009   54027   54042   54060       5
   54003   54021   54030   54051       4   54003   54024  -54036   54051       4
   54000   53982   54003   54021       6   54000   53982   54003   54024       6
   53997   54009   54027   54042       7   53991   54009   54027   54042       7
   53988   54000   53982   54003       4   53982   54003   54021   54030       4
   53982   54003   54024   54036       4   53979   53964   53970   53988       9
   53979   53976   53997   54009       4   53976   53961   53973   53991       4
   53976   53997  -54009   53991       4   53976   53997   54009   54027       4
   53973   53961   53976   53979       4   53973   53961   53976   53997       4
   53973   53991  -54009   53997       4   53973   53991   54009   54027       4
   53970   53958   53967   53982       4   53970   53964   53979   53976      10
   53970   53988  -54000   53982       4   53967   53958   53970   53988       4
   53967   53982  -54000   53988       4   53967   53982   54003   54021       6
   53967   53982   54003   54024       6   53964   53955   53961   53973      11
   53964   53955  -53961   53976      11   53964   53970   53958   53967       4
   53964   53970   53988   54000       4   53964   53979   53976   53997      12
   53961   53955   53964   53970      13   53961   53955  -53964   53979      13
   53961   53973   53991   54009       4   53961   53976  -53979   53964      12
   53961   53976  -53997   54009       4   53958   53952   53955   53961      10
   53958   53952  -53955   53964      10   53958   53967   53982   54000       4
   53958   53967   53982   54003       4   53958   53970   53964   53979       9
   53958   53970  -53988   54000       4   53955   53952   53958   53967      14
   53955   53952  -53958   53970      14   53955   53961   53973   53991       4
   53955   53961  -53976   53979       4   53955   53961   53976   53997       4
   53955   53964  -53970   53958      15   53955   53964   53970   53988      15
   53955   53964  -53979   53976      10   53952   53955   53961   53973       9
   53952   53955   53961   53976       9   53952   53955  -53964   53970      13
   53952   53955   53964   53979      13   53952   53958   53967   53982       4
   53952   53958  -53970   53964       4   53952   53958   53970   53988       4
   54291   54306   54309   54321       3   54282   54291   54306   54309       3
   54273   54282   54291   54306       3   54264   54273   54282   54291       3
   54252   54264   54273   54282       3   54234   54252   54264   54273       3
   54219   54234   54252   54264       3   54216   54195   54213   54222       4
   54216   54228  -54243   54222       4   54213   54195   54216   54228       4
   54213   54222  -54243   54228       4   54201   54219   54234   54252       5
   54195   54213   54222   54243       4   54195   54216  -54228   54243       4
   54192   54174   54195   54213       6   54192   54174   54195   54216       6
   54189   54201   54219   54234       7   54183   54201   54219   54234       7
   54180   54192   54174   54195       4   54174   54195   54213   54222       4
   54174   54195   54216   54228       4   54171   54156   54162   54180       9
   54171   54168   54189   54201       4   54168   54153   54165   54183       4
   54168   54189  -54201   54183       4   54168   54189   54201   54219       4
   54165   54153   54168   54171       4   54165   54153   54168   54189       4
   54165   54183  -54201   54189       4   54165   54183   54201   54219       4
   54162   54150   54159   54174       4   54162   54156   54171   54168      10
   54162   54180  -54192   54174       4   54159   54150   54162   54180       4
   54159   54174  -54192   54180       4   54159   54174   54195   54213       6
   54159   54174   54195   54216       6   54156   54147   54153   54165      11
   54156   54147  -54153   54168      11   54156   54162   54150   54159       4
   54156   54162   54180   54192       4   54156   54171   54168   54189      12
   54153   54147   54156   54162      13   54153   54147  -54156   54171      13
   54153   54165   54183   54201       4   54153   54168  -54171   54156      12
   54153   54168  -54189   54201       4   54150   54144   54147   54153      10
   54150   54144  -54147   54156      10   54150   54159   54174   54192       4
   54150   54159   54174   54195       4   54150   54162   54156   54171       9
   54150   54162  -54180   54192       4   54147   54144   54150   54159      14
   54147   54144  -54150   54162      14   54147   54153   54165   54183       4
   54147   54153  -54168   54171       4   54147   54153   54168   54189       4
   54147   54156  -54162   54150      15   54147   54156   54162   54180      15
   54147   54156  -54171   54168      10   54144   54147   54153   54165       9
   54144   54147   54153   54168       9   54144   54147  -54156   54162      13
   54144   54147   54156   54171      13   54144   54150   54159   54174       4
   54144   54150  -54162   54156       4   54144   54150   54162   54180       4
   54483   54498   54501   54513       3   54474   54483   54498   54501       3
   54465   54474   54483   54498       3   54456   54465   54474   54483       3
   54444   54456   54465   54474       3   54426   54444   54456   54465       3
   54411   54426   54444   54456       3   54408   54387   54405   54414       4
   54408   54420  -54435   54414       4   54405   54387   54408   54420       4
   54405   54414  -54435   54420       4   54393   54411   54426   54444       5
   54387   54405   54414   54435       4   54387   54408  -54420   54435       4
   54384   54366   54387   54405       6   54384   54366   54387   54408       6
   54381   54393   54411   54426       7   54375   54393   54411   54426       7
   54372   54384   54366   54387       4   54366   54387   54405   54414       4
   54366   54387   54408   54420       4   54363   54348   54354   54372       9
   54363   54360   54381   54393       4   54360   54345   54357   54375       4
   54360   54381  -54393   54375       4   54360   54381   54393   54411       4
   54357   54345   54360   54363       4   54357   54345   54360   54381       4
   54357   54375  -54393   54381       4   54357   54375   54393   54411       4
   54354   54342   54351   54366       4   54354   54348   54363   54360      10
   54354   54372  -54384   54366       4   54351   54342   54354   54372       4
   54351   54366  -54384   54372       4   54351   54366   54387   54405       6
   54351   54366   54387   54408       6   54348   54339   54345   54357      11
   54348   54339  -54345   54360      11   54348   54354   54342   54351       4
   54348   54354   54372   54384       4   54348   54363   54360   54381      12
   54345   54339   54348   54354      13   54345   54339  -54348   54363      13
   54345   54357   54375   54393       4   54345   54360  -54363   54348      12
   54345   54360  -54381   54393       4   54342   54336   54339   54345      10
   54342   54336  -54339   54348      10   54342   54351   54366   54384       4
   54342   54351   54366   54387       4   54342   54354   54348   54363       9
   54342   54354  -54372   54384       4   54339   54336   54342   54351      14
   54339   54336  -54342   54354      14   54339   54345   54357   54375       4
   54339   54345  -54360   54363       4   54339   54345   54360   54381       4
   54339   54348  -54354   54342      15   54339   54348   54354   54372      15
   54339   54348  -54363   54360      10   54336   54339   54345   54357       9
   54336   54339   54345   54360       9   54336   54339  -54348   54354      13
   54336   54339   54348   54363      13   54336   54342   54351   54366       4
   54336   54342  -54354   54348       4   54336   54342   54354   54372       4
   54675   54690   54693   54705       3   54666   54675   54690   54693       3
   54657   54666   54675   54690       3   54648   54657   54666   54675       3
   54636   54648   54657   54666       3   54618   54636   54648   54657       3
   54603   54618   54636   54648       3   54600   54579   54597   54606       4
   54600   54612  -54627   54606       4   54597   54579   54600   54612       4
   54597   54606  -54627   54612       4   54585   54603   54618   54636       5
   54579   54597   54606   54627       4   54579   54600  -54612   54627       4
   54576   54558   54579   54597       6   54576   54558   54579   54600       6
   54573   54585   54603   54618       7   54567   54585   54603   54618       7
   54564   54576   54558   54579       4   54558   54579   54597   54606       4
   54558   54579   54600   54612       4   54555   54540   54546   54564       9
   54555   54552   54573   54585       4   54552   54537   54549   54567       4
   54552   54573  -54585   54567       4   54552   54573   54585   54603       4
   54549   54537   54552   54555       4   54549   54537   54552   54573       4
   54549   54567  -54585   54573       4   54549   54567   54585   54603       4
   54546   54534   54543   54558       4   54546   54540   54555   54552      10
   54546   54564  -54576   54558       4   54543   54534   54546   54564       4
   54543   54558  -54576   54564       4   54543   54558   54579   54597       6
   54543   54558   54579   54600       6   54540   54531   54537   54549      11
   54540   54531  -54537   54552      11   54540   54546   54534   54543       4
   54540   54546   54564   54576       4   54540   54555   54552   54573      12
   54537   54531   54540   54546      13   54537   54531  -54540   54555      13
   54537   54549   54567   54585       4   54537   54552  -54555   54540      12
   54537   54552  -54573   54585       4   54534   54528   54531   54537      10
   54534   54528  -54531   54540      10   54534   54543   54558   54576       4
   54534   54543   54558   54579       4   54534   54546   54540   54555       9
   54534   54546  -54564   54576       4   54531   54528   54534   54543      14
   54531   54528  -54534   54546      14   54531   54537   54549   54567       4
   54531   54537  -54552   54555       4   54531   54537   54552   54573       4
   54531   54540  -54546   54534      15   54531   54540   54546   54564      15
   54531   54540  -54555   54552      10   54528   54531   54537   54549       9
   54528   54531   54537   54552       9   54528   54531  -54540   54546      13
   54528   54531   54540   54555      13   54528   54534   54543   54558       4
   54528   54534  -54546   54540       4   54528   54534   54546   54564       4
   54867   54882   54885   54897       3   54858   54867   54882   54885       3
   54849   54858   54867   54882       3   54840   54849   54858   54867       3
   54828   54840   54849   54858       3   54810   54828   54840   54849       3
   54795   54810   54828   54840       3   54792   54771   54789   54798       4
   54792   54804  -54819   54798       4   54789   54771   54792   54804       4
   54789   54798  -54819   54804       4   54777   54795   54810   54828       5
   54771   54789   54798   54819       4   54771   54792  -54804   54819       4
   54768   54750   54771   54789       6   54768   54750   54771   54792       6
   54765   54777   54795   54810       7   54759   54777   54795   54810       7
   54756   54768   54750   54771       4   54750   54771   54789   54798       4
   54750   54771   54792   54804       4   54747   54732   54738   54756       9
   54747   54744   54765   54777       4   54744   54729   54741   54759       4
   54744   54765  -54777   54759       4   54744   54765   54777   54795       4
   54741   54729   54744   54747       4   54741   54729   54744   54765       4
   54741   54759  -54777   54765       4   54741   54759   54777   54795       4
   54738   54726   54735   54750       4   54738   54732   54747   54744      10
   54738   54756  -54768   54750       4   54735   54726   54738   54756       4
   54735   54750  -54768   54756       4   54735   54750   54771   54789       6
   54735   54750   54771   54792       6   54732   54723   54729   54741      11
   54732   54723  -54729   54744      11   54732   54738   54726   54735       4
   54732   54738   54756   54768       4   54732   54747   54744   54765      12
   54729   54723   54732   54738      13   54729   54723  -54732   54747      13
   54729   54741   54759   54777       4   54729   54744  -54747   54732      12
   54729   54744  -54765   54777       4   54726   54720   54723   54729      10
   54726   54720  -54723   54732      10   54726   54735   54750   54768       4
   54726   54735   54750   54771       4   54726   54738   54732   54747       9
   54726   54738  -54756   54768       4   54723   54720   54726   54735      14
   54723   54720  -54726   54738      14   54723   54729   54741   54759       4
   54723   54729  -54744   54747       4   54723   54729   54744   54765       4
   54723   54732  -54738   54726      15   54723   54732   54738   54756      15
   54723   54732  -54747   54744      10   54720   54723   54729   54741       9
   54720   54723   54729   54744       9   54720   54723  -54732   54738      13
   54720   54723   54732   54747      13   54720   54726   54735   54750       4
   54720   54726  -54738   54732       4   54720   54726   54738   54756       4
   55059   55074   55077   55089       3   55050   55059   55074   55077       3
   55041   55050   55059   55074       3   55032   55041   55050   55059       3
   55020   55032   55041   55050       3   55002   55020   55032   55041       3
   54987   55002   55020   55032       3   54984   54963   54981   54990       4
   54984   54996  -55011   54990       4   54981   54963   54984   54996       4
   54981   54990  -55011   54996       4   54969   54987   55002   55020       5
   54963   54981   54990   55011       4   54963   54984  -54996   55011       4
   54960   54942   54963   54981       6   54960   54942   54963   54984       6
   54957   54969   54987   55002       7   54951   54969   54987   55002       7
   54948   54960   54942   54963       4   54942   54963   54981   54990       4
   54942   54963   54984   54996       4   54939   54924   54930   54948       9
   54939   54936   54957   54969       4   54936   54921   54933   54951       4
   54936   54957  -54969   54951       4   54936   54957   54969   54987       4
   54933   54921   54936   54939       4   54933   54921   54936   54957       4
   54933   54951  -54969   54957       4   54933   54951   54969   54987       4
   54930   54918   54927   54942       4   54930   54924   54939   54936      10
   54930   54948  -54960   54942       4   54927   54918   54930   54948       4
   54927   54942  -54960   54948       4   54927   54942   54963   54981       6
   54927   54942   54963   54984       6   54924   54915   54921   54933      11
   54924   54915  -54921   54936      11   54924   54930   54918   54927       4
   54924   54930   54948   54960       4   54924   54939   54936   54957      12
   54921   54915   54924   54930      13   54921   54915  -54924   54939      13
   54921   54933   54951   54969       4   54921   54936  -54939   54924      12
   54921   54936  -54957   54969       4   54918   54912   54915   54921      10
   54918   54912  -54915   54924      10   54918   54927   54942   54960       4
   54918   54927   54942   54963       4   54918   54930   54924   54939       9
   54918   54930  -54948   54960       4   54915   54912   54918   54927      14
   54915   54912  -54918   54930      14   54915   54921   54933   54951       4
   54915   54921  -54936   54939       4   54915   54921   54936   54957       4
   54915   54924  -54930   54918      15   54915   54924   54930   54948      15
   54915   54924  -54939   54936      10   54912   54915   54921   54933       9
   54912   54915   54921   54936       9   54912   54915  -54924   54930      13
   54912   54915   54924   54939      13   54912   54918   54927   54942       4
   54912   54918  -54930   54924       4   54912   54918   54930   54948       4
   55251   55266   55269   55281       3   55242   55251   55266   55269       3
   55233   55242   55251   55266       3   55224   55233   55242   55251       3
   55212   55224   55233   55242       3   55194   55212   55224   55233       3
   55179   55194   55212   55224       3   55176   55155   55173   55182       4
   55176   55188  -55203   55182       4   55173   55155   55176   55188       4
   55173   55182  -55203   55188       4   55161   55179   55194   55212       5
   55155   55173   55182   55203       4   55155   55176  -55188   55203       4
   55152   55134   55155   55173       6   55152   55134   55155   55176       6
   55149   55161   55179   55194       7   55143   55161   55179   55194       7
   55140   55152   55134   55155       4   55134   55155   55173   55182       4
   55134   55155   55176   55188       4   55131   55116   55122   55140       9
   55131   55128   55149   55161       4   55128   55113   55125   55143       4
   55128   55149  -55161   55143       4   55128   55149   55161   55179       4
   55125   55113   55128   55131       4   55125   55113   55128   55149       4
   55125   55143  -55161   55149       4   55125   55143   55161   55179       4
   55122   55110   55119   55134       4   55122   55116   55131   55128      10
   55122   55140  -55152   55134       4   55119   55110   55122   55140       4
   55119   55134  -55152   55140       4   55119   55134   55155   55173       6
   55119   55134   55155   55176       6   55116   55107   55113   55125      11
   55116   55107  -55113   55128      11   55116   55122   55110   55119       4
   55116   55122   55140   55152       4   55116   55131   55128   55149      12
   55113   55107   55116   55122      13   55113   55107  -55116   55131      13
   55113   55125   55143   55161       4   55113   55128  -55131   55116      12
   55113   55128  -55149   55161       4   55110   55104   55107   55113      10
   55110   55104  -55107   55116      10   55110   55119   55134   55152       4
   55110   55119   55134   55155       4   55110   55122   55116   55131       9
   55110   55122  -55140   55152       4   55107   55104   55110   55119      14
   55107   55104  -55110   55122      14   55107   55113   55125   55143       4
   55107   55113  -55128   55131       4   55107   55113   55128   55149       4
   55107   55116  -55122   55110      15   55107   55116   55122   55140      15
   55107   55116  -55131   55128      10   55104   55107   55113   55125       9
   55104   55107   55113   55128       9   55104   55107  -55116   55122      13
   55104   55107   55116   55131      13   55104   55110   55119   55134       4
   55104   55110  -55122   55116       4   55104   55110   55122   55140       4
      39      45     -57     -75      16      69      72     -51     -30      16
      15      48     -30     -51      16       9      45     -24     -27      16
       6      36     -18     -12      16      18       3     -12     -27      16
      21      24      -9      -3      16       0       6     -18     -15      16
       0       3     -12      -9      16     267     231    -249    -237      16
     261     264    -243    -222      16     207     240    -222    -243      16
     201     237    -216    -219      16     198     228    -210    -204      16
     210     195    -204    -219      16     213     216    -201    -195      16
     207     210    -198    -192      16     201     204    -195    -192      16
     459     423    -441    -429      16     453     456    -435    -414      16
     399     432    -414    -435      16     393     429    -408    -411      16
     390     420    -402    -396      16     402     387    -396    -411      16
     405     408    -393    -387      16     399     402    -390    -384      16
     393     396    -387    -384      16     651     615    -633    -621      16
     645     648    -627    -606      16     591     624    -606    -627      16
     585     621    -600    -603      16     582     612    -594    -588      16
     594     579    -588    -603      16     597     600    -585    -579      16
     591     594    -582    -576      16     585     588    -579    -576      16
     843     807    -825    -813      16     837     840    -819    -798      16
     783     816    -798    -819      16     777     813    -792    -795      16
     774     804    -786    -780      16     786     771    -780    -795      16
     789     792    -777    -771      16     783     786    -774    -768      16
     777     780    -771    -768      16    1035     999   -1017   -1005      16
    1029    1032   -1011    -990      16     975    1008    -990   -1011      16
     969    1005    -984    -987      16     966     996    -978    -972      16
     978     963    -972    -987      16     981     984    -969    -963      16
     975     978    -966    -960      16     969     972    -963    -960      16
    1227    1191   -1209   -1197      16    1221    1224   -1203   -1182      16
    1167    1200   -1182   -1203      16    1161    1197   -1176   -1179      16
    1158    1188   -1170   -1164      16    1170    1155   -1164   -1179      16
    1173    1176   -1161   -1155      16    1167    1170   -1158   -1152      16
    1161    1164   -1155   -1152      16    1419    1383   -1401   -1389      16
    1413    1416   -1395   -1374      16    1359    1392   -1374   -1395      16
    1353    1389   -1368   -1371      16    1350    1380   -1362   -1356      16
    1362    1347   -1356   -1371      16    1365    1368   -1353   -1347      16
    1359    1362   -1350   -1344      16    1353    1356   -1347   -1344      16
    1611    1575   -1593   -1581      16    1605    1608   -1587   -1566      16
    1551    1584   -1566   -1587      16    1545    1581   -1560   -1563      16
    1542    1572   -1554   -1548      16    1554    1539   -1548   -1563      16
    1557    1560   -1545   -1539      16    1551    1554   -1542   -1536      16
    1545    1548   -1539   -1536      16    1803    1767   -1785   -1773      16
    1797    1800   -1779   -1758      16    1743    1776   -1758   -1779      16
    1737    1773   -1752   -1755      16    1734    1764   -1746   -1740      16
    1746    1731   -1740   -1755      16    1749    1752   -1737   -1731      16
    1743    1746   -1734   -1728      16    1737    1740   -1731   -1728      16
    1995    1959   -1977   -1965      16    1989    1992   -1971   -1950      16
    1935    1968   -1950   -1971      16    1929    1965   -1944   -1947      16
    1926    1956   -1938   -1932      16    1938    1923   -1932   -1947      16
    1941    1944   -1929   -1923      16    1935    1938   -1926   -1920      16
    1929    1932   -1923   -1920      16    2187    2151   -2169   -2157      16
    2181    2184   -2163   -2142      16    2127    2160   -2142   -2163      16
    2121    2157   -2136   -2139      16    2118    2148   -2130   -2124      16
    2130    2115   -2124   -2139      16    2133    2136   -2121   -2115      16
    2127    2130   -2118   -2112      16    2121    2124   -2115   -2112      16
    2379    2343   -2361   -2349      16    2373    2376   -2355   -2334      16
    2319    2352   -2334   -2355      16    2313    2349   -2328   -2331      16
    2310    2340   -2322   -2316      16    2322    2307   -2316   -2331      16
    2325    2328   -2313   -2307      16    2319    2322   -2310   -2304      16
    2313    2316   -2307   -2304      16    2571    2535   -2553   -2541      16
    2565    2568   -2547   -2526      16    2511    2544   -2526   -2547      16
    2505    2541   -2520   -2523      16    2502    2532   -2514   -2508      16
    2514    2499   -2508   -2523      16    2517    2520   -2505   -2499      16
    2511    2514   -2502   -2496      16    2505    2508   -2499   -2496      16
    2763    2727   -2745   -2733      16    2757    2760   -2739   -2718      16
    2703    2736   -2718   -2739      16    2697    2733   -2712   -2715      16
    2694    2724   -2706   -2700      16    2706    2691   -2700   -2715      16
    2709    2712   -2697   -2691      16    2703    2706   -2694   -2688      16
    2697    2700   -2691   -2688      16    2955    2919   -2937   -2925      16
    2949    2952   -2931   -2910      16    2895    2928   -2910   -2931      16
    2889    2925   -2904   -2907      16    2886    2916   -2898   -2892      16
    2898    2883   -2892   -2907      16    2901    2904   -2889   -2883      16
    2895    2898   -2886   -2880      16    2889    2892   -2883   -2880      16
    3147    3111   -3129   -3117      16    3141    3144   -3123   -3102      16
    3087    3120   -3102   -3123      16    3081    3117   -3096   -3099      16
    3078    3108   -3090   -3084      16    3090    3075   -3084   -3099      16
    3093    3096   -3081   -3075      16    3087    3090   -3078   -3072      16
    3081    3084   -3075   -3072      16    3339    3303   -3321   -3309      16
    3333    3336   -3315   -3294      16    3279    3312   -3294   -3315      16
    3273    3309   -3288   -3291      16    3270    3300   -3282   -3276      16
    3282    3267   -3276   -3291      16    3285    3288   -3273   -3267      16
    3279    3282   -3270   -3264      16    3273    3276   -3267   -3264      16
    3531    3495   -3513   -3501      16    3525    3528   -3507   -3486      16
    3471    3504   -3486   -3507      16    3465    3501   -3480   -3483      16
    3462    3492   -3474   -3468      16    3474    3459   -3468   -3483      16
    3477    3480   -3465   -3459      16    3471    3474   -3462   -3456      16
    3465    3468   -3459   -3456      16    3723    3687   -3705   -3693      16
    3717    3720   -3699   -3678      16    3663    3696   -3678   -3699      16
    3657    3693   -3672   -3675      16    3654    3684   -3666   -3660      16
    3666    3651   -3660   -3675      16    3669    3672   -3657   -3651      16
    3663    3666   -3654   -3648      16    3657    3660   -3651   -3648      16
    3915    3879   -3897   -3885      16    3909    3912   -3891   -3870      16
    3855    3888   -3870   -3891      16    3849    3885   -3864   -3867      16
    3846    3876   -3858   -3852      16    3858    3843   -3852   -3867      16
    3861    3864   -3849   -3843      16    3855    3858   -3846   -3840      16
    3849    3852   -3843   -3840      16    4107    4071   -4089   -4077      16
    4101    4104   -4083   -4062      16    4047    4080   -4062   -4083      16
    4041    4077   -4056   -4059      16    4038    4068   -4050   -4044      16
    4050    4035   -4044   -4059      16    4053    4056   -4041   -4035      16
    4047    4050   -4038   -4032      16    4041    4044   -4035   -4032      16
    4299    4263   -4281   -4269      16    4293    4296   -4275   -4254      16
    4239    4272   -4254   -4275      16    4233    4269   -4248   -4251      16
    4230    4260   -4242   -4236      16    4242    4227   -4236   -4251      16
    4245    4248   -4233   -4227      16    4239    4242   -4230   -4224      16
    4233    4236   -4227   -4224      16    4491    4455   -4473   -4461      16
    4485    4488   -4467   -4446      16    4431    4464   -4446   -4467      16
    4425    4461   -4440   -4443      16    4422    4452   -4434   -4428      16
    4434    4419   -4428   -4443      16    4437    4440   -4425   -4419      16
    4431    4434   -4422   -4416      16    4425    4428   -4419   -4416      16
    4683    4647   -4665   -4653      16    4677    4680   -4659   -4638      16
    4623    4656   -4638   -4659      16    4617    4653   -4632   -4635      16
    4614    4644   -4626   -4620      16    4626    4611   -4620   -4635      16
    4629    4632   -4617   -4611      16    4623    4626   -4614   -4608      16
    4617    4620   -4611   -4608      16    4875    4839   -4857   -4845      16
    4869    4872   -4851   -4830      16    4815    4848   -4830   -4851      16
    4809    4845   -4824   -4827      16    4806    4836   -4818   -4812      16
    4818    4803   -4812   -4827      16    4821    4824   -4809   -4803      16
    4815    4818   -4806   -4800      16    4809    4812   -4803   -4800      16
    5067    5031   -5049   -5037      16    5061    5064   -5043   -5022      16
    5007    5040   -5022   -5043      16    5001    5037   -5016   -5019      16
    4998    5028   -5010   -5004      16    5010    4995   -5004   -5019      16
    5013    5016   -5001   -4995      16    5007    5010   -4998   -4992      16
    5001    5004   -4995   -4992      16    5259    5223   -5241   -5229      16
    5253    5256   -5235   -5214      16    5199    5232   -5214   -5235      16
    5193    5229   -5208   -5211      16    5190    5220   -5202   -5196      16
    5202    5187   -5196   -5211      16    5205    5208   -5193   -5187      16
    5199    5202   -5190   -5184      16    5193    5196   -5187   -5184      16
    5451    5415   -5433   -5421      16    5445    5448   -5427   -5406      16
    5391    5424   -5406   -5427      16    5385    5421   -5400   -5403      16
    5382    5412   -5394   -5388      16    5394    5379   -5388   -5403      16
    5397    5400   -5385   -5379      16    5391    5394   -5382   -5376      16
    5385    5388   -5379   -5376      16    5643    5607   -5625   -5613      16
    5637    5640   -5619   -5598      16    5583    5616   -5598   -5619      16
    5577    5613   -5592   -5595      16    5574    5604   -5586   -5580      16
    5586    5571   -5580   -5595      16    5589    5592   -5577   -5571      16
    5583    5586   -5574   -5568      16    5577    5580   -5571   -5568      16
    5835    5799   -5817   -5805      16    5829    5832   -5811   -5790      16
    5775    5808   -5790   -5811      16    5769    5805   -5784   -5787      16
    5766    5796   -5778   -5772      16    5778    5763   -5772   -5787      16
    5781    5784   -5769   -5763      16    5775    5778   -5766   -5760      16
    5769    5772   -5763   -5760      16    6027    5991   -6009   -5997      16
    6021    6024   -6003   -5982      16    5967    6000   -5982   -6003      16
    5961    5997   -5976   -5979      16    5958    5988   -5970   -5964      16
    5970    5955   -5964   -5979      16    5973    5976   -5961   -5955      16
    5967    5970   -5958   -5952      16    5961    5964   -5955   -5952      16
    6219    6183   -6201   -6189      16    6213    6216   -6195   -6174      16
    6159    6192   -6174   -6195      16    6153    6189   -6168   -6171      16
    6150    6180   -6162   -6156      16    6162    6147   -6156   -6171      16
    6165    6168   -6153   -6147      16    6159    6162   -6150   -6144      16
    6153    6156   -6147   -6144      16    6411    6375   -6393   -6381      16
    6405    6408   -6387   -6366      16    6351    6384   -6366   -6387      16
    6345    6381   -6360   -6363      16    6342    6372   -6354   -6348      16
    6354    6339   -6348   -6363      16    6357    6360   -6345   -6339      16
    6351    6354   -6342   -6336      16    6345    6348   -6339   -6336      16
    6603    6567   -6585   -6573      16    6597    6600   -6579   -6558      16
    6543    6576   -6558   -6579      16    6537    6573   -6552   -6555      16
    6534    6564   -6546   -6540      16    6546    6531   -6540   -6555      16
    6549    6552   -6537   -6531      16    6543    6546   -6534   -6528      16
    6537    6540   -6531   -6528      16    6795    6759   -6777   -6765      16
    6789    6792   -6771   -6750      16    6735    6768   -6750   -6771      16
    6729    6765   -6744   -6747      16    6726    6756   -6738   -6732      16
    6738    6723   -6732   -6747      16    6741    6744   -6729   -6723      16
    6735    6738   -6726   -6720      16    6729    6732   -6723   -6720      16
    6987    6951   -6969   -6957      16    6981    6984   -6963   -6942      16
    6927    6960   -6942   -6963      16    6921    6957   -6936   -6939      16
    6918    6948   -6930   -6924      16    6930    6915   -6924   -6939      16
    6933    6936   -6921   -6915      16    6927    6930   -6918   -6912      16
    6921    6924   -6915   -6912      16    7179    7143   -7161   -7149      16
    7173    7176   -7155   -7134      16    7119    7152   -7134   -7155      16
    7113    7149   -7128   -7131      16    7110    7140   -7122   -7116      16
    7122    7107   -7116   -7131      16    7125    7128   -7113   -7107      16
    7119    7122   -7110   -7104      16    7113    7116   -7107   -7104      16
    7371    7335   -7353   -7341      16    7365    7368   -7347   -7326      16
    7311    7344   -7326   -7347      16    7305    7341   -7320   -7323      16
    7302    7332   -7314   -7308      16    7314    7299   -7308   -7323      16
    7317    7320   -7305   -7299      16    7311    7314   -7302   -7296      16
    7305    7308   -7299   -7296      16    7563    7527   -7545   -7533      16
    7557    7560   -7539   -7518      16    7503    7536   -7518   -7539      16
    7497    7533   -7512   -7515      16    7494    7524   -7506   -7500      16
    7506    7491   -7500   -7515      16    7509    7512   -7497   -7491      16
    7503    7506   -7494   -7488      16    7497    7500   -7491   -7488      16
    7755    7719   -7737   -7725      16    7749    7752   -7731   -7710      16
    7695    7728   -7710   -7731      16    7689    7725   -7704   -7707      16
    7686    7716   -7698   -7692      16    7698    7683   -7692   -7707      16
    7701    7704   -7689   -7683      16    7695    7698   -7686   -7680      16
    7689    7692   -7683   -7680      16    7947    7911   -7929   -7917      16
    7941    7944   -7923   -7902      16    7887    7920   -7902   -7923      16
    7881    7917   -7896   -7899      16    7878    7908   -7890   -7884      16
    7890    7875   -7884   -7899      16    7893    7896   -7881   -7875      16
    7887    7890   -7878   -7872      16    7881    7884   -7875   -7872      16
    8139    8103   -8121   -8109      16    8133    8136   -8115   -8094      16
    8079    8112   -8094   -8115      16    8073    8109   -8088   -8091      16
    8070    8100   -8082   -8076      16    8082    8067   -8076   -8091      16
    8085    8088   -8073   -8067      16    8079    8082   -8070   -8064      16
    8073    8076   -8067   -8064      16    8331    8295   -8313   -8301      16
    8325    8328   -8307   -8286      16    8271    8304   -8286   -8307      16
    8265    8301   -8280   -8283      16    8262    8292   -8274   -8268      16
    8274    8259   -8268   -8283      16    8277    8280   -8265   -8259      16
    8271    8274   -8262   -8256      16    8265    8268   -8259   -8256      16
    8523    8487   -8505   -8493      16    8517    8520   -8499   -8478      16
    8463    8496   -8478   -8499      16    8457    8493   -8472   -8475      16
    8454    8484   -8466   -8460      16    8466    8451   -8460   -8475      16
    8469    8472   -8457   -8451      16    8463    8466   -8454   -8448      16
    8457    8460   -8451   -8448      16    8715    8679   -8697   -8685      16
    8709    8712   -8691   -8670      16    8655    8688   -8670   -8691      16
    8649    8685   -8664   -8667      16    8646    8676   -8658   -8652      16
    8658    8643   -8652   -8667      16    8661    8664   -8649   -8643      16
    8655    8658   -8646   -8640      16    8649    8652   -8643   -8640      16
    8907    8871   -8889   -8877      16    8901    8904   -8883   -8862      16
    8847    8880   -8862   -8883      16    8841    8877   -8856   -8859      16
    8838    8868   -8850   -8844      16    8850    8835   -8844   -8859      16
    8853    8856   -8841   -8835      16    8847    8850   -8838   -8832      16
    8841    8844   -8835   -8832      16    9099    9063   -9081   -9069      16
    9093    9096   -9075   -9054      16    9039    9072   -9054   -9075      16
    9033    9069   -9048   -9051      16    9030    9060   -9042   -9036      16
    9042    9027   -9036   -9051      16    9045    9048   -9033   -9027      16
    9039    9042   -9030   -9024      16    9033    9036   -9027   -9024      16
    9291    9255   -9273   -9261      16    9285    9288   -9267   -9246      16
    9231    9264   -9246   -9267      16    9225    9261   -9240   -9243      16
    9222    9252   -9234   -9228      16    9234    9219   -9228   -9243      16
    9237    9240   -9225   -9219      16    9231    9234   -9222   -9216      16
    9225    9228   -9219   -9216      16    9483    9447   -9465   -9453      16
    9477    9480   -9459   -9438      16    9423    9456   -9438   -9459      16
    9417    9453   -9432   -9435      16    9414    9444   -9426   -9420      16
    9426    9411   -9420   -9435      16    9429    9432   -9417   -9411      16
    9423    9426   -9414   -9408      16    9417    9420   -9411   -9408      16
    9675    9639   -9657   -9645      16    9669    9672   -9651   -9630      16
    9615    9648   -9630   -9651      16    9609    9645   -9624   -9627      16
    9606    9636   -9618   -9612      16    9618    9603   -9612   -9627      16
    9621    9624   -9609   -9603      16    9615    9618   -9606   -9600      16
    9609    9612   -9603   -9600      16    9867    9831   -9849   -9837      16
    9861    9864   -9843   -9822      16    9807    9840   -9822   -9843      16
    9801    9837   -9816   -9819      16    9798    9828   -9810   -9804      16
    9810    9795   -9804   -9819      16    9813    9816   -9801   -9795      16
    9807    9810   -9798   -9792      16    9801    9804   -9795   -9792      16
   10059   10023  -10041  -10029      16   10053   10056  -10035  -10014      16
    9999   10032  -10014  -10035      16    9993   10029  -10008  -10011      16
    9990   10020  -10002   -9996      16   10002    9987   -9996  -10011      16
   10005   10008   -9993   -9987      16    9999   10002   -9990   -9984      16
    9993    9996   -9987   -9984      16   10251   10215  -10233  -10221      16
   10245   10248  -10227  -10206      16   10191   10224  -10206  -10227      16
   10185   10221  -10200  -10203      16   10182   10212  -10194  -10188      16
   10194   10179  -10188  -10203      16   10197   10200  -10185  -10179      16
   10191   10194  -10182  -10176      16   10185   10188  -10179  -10176      16
   10443   10407  -10425  -10413      16   10437   10440  -10419  -10398      16
   10383   10416  -10398  -10419      16   10377   10413  -10392  -10395      16
   10374   10404  -10386  -10380      16   10386   10371  -10380  -10395      16
   10389   10392  -10377  -10371      16   10383   10386  -10374  -10368      16
   10377   10380  -10371  -10368      16   10635   10599  -10617  -10605      16
   10629   10632  -10611  -10590      16   10575   10608  -10590  -10611      16
   10569   10605  -10584  -10587      16   10566   10596  -10578  -10572      16
   10578   10563  -10572  -10587      16   10581   10584  -10569  -10563      16
   10575   10578  -10566  -10560      16   10569   10572  -10563  -10560      16
   10827   10791  -10809  -10797      16   10821   10824  -10803  -10782      16
   10767   10800  -10782  -10803      16   10761   10797  -10776  -10779      16
   10758   10788  -10770  -10764      16   10770   10755  -10764  -10779      16
   10773   10776  -10761  -10755      16   10767   10770  -10758  -10752      16
   10761   10764  -10755  -10752      16   11019   10983  -11001  -10989      16
   11013   11016  -10995  -10974      16   10959   10992  -10974  -10995      16
   10953   10989  -10968  -10971      16   10950   10980  -10962  -10956      16
   10962   10947  -10956  -10971      16   10965   10968  -10953  -10947      16
   10959   10962  -10950  -10944      16   10953   10956  -10947  -10944      16
   11211   11175  -11193  -11181      16   11205   11208  -11187  -11166      16
   11151   11184  -11166  -11187      16   11145   11181  -11160  -11163      16
   11142   11172  -11154  -11148      16   11154   11139  -11148  -11163      16
   11157   11160  -11145  -11139      16   11151   11154  -11142  -11136      16
   11145   11148  -11139  -11136      16   11403   11367  -11385  -11373      16
   11397   11400  -11379  -11358      16   11343   11376  -11358  -11379      16
   11337   11373  -11352  -11355      16   11334   11364  -11346  -11340      16
   11346   11331  -11340  -11355      16   11349   11352  -11337  -11331      16
   11343   11346  -11334  -11328      16   11337   11340  -11331  -11328      16
   11595   11559  -11577  -11565      16   11589   11592  -11571  -11550      16
   11535   11568  -11550  -11571      16   11529   11565  -11544  -11547      16
   11526   11556  -11538  -11532      16   11538   11523  -11532  -11547      16
   11541   11544  -11529  -11523      16   11535   11538  -11526  -11520      16
   11529   11532  -11523  -11520      16   11787   11751  -11769  -11757      16
   11781   11784  -11763  -11742      16   11727   11760  -11742  -11763      16
   11721   11757  -11736  -11739      16   11718   11748  -11730  -11724      16
   11730   11715  -11724  -11739      16   11733   11736  -11721  -11715      16
   11727   11730  -11718  -11712      16   11721   11724  -11715  -11712      16
   11979   11943  -11961  -11949      16   11973   11976  -11955  -11934      16
   11919   11952  -11934  -11955      16   11913   11949  -11928  -11931      16
   11910   11940  -11922  -11916      16   11922   11907  -11916  -11931      16
   11925   11928  -11913  -11907      16   11919   11922  -11910  -11904      16
   11913   11916  -11907  -11904      16   12171   12135  -12153  -12141      16
   12165   12168  -12147  -12126      16   12111   12144  -12126  -12147      16
   12105   12141  -12120  -12123      16   12102   12132  -12114  -12108      16
   12114   12099  -12108  -12123      16   12117   12120  -12105  -12099      16
   12111   12114  -12102  -12096      16   12105   12108  -12099  -12096      16
   12363   12327  -12345  -12333      16   12357   12360  -12339  -12318      16
   12303   12336  -12318  -12339      16   12297   12333  -12312  -12315      16
   12294   12324  -12306  -12300      16   12306   12291  -12300  -12315      16
   12309   12312  -12297  -12291      16   12303   12306  -12294  -12288      16
   12297   12300  -12291  -12288      16   12555   12519  -12537  -12525      16
   12549   12552  -12531  -12510      16   12495   12528  -12510  -12531      16
   12489   12525  -12504  -12507      16   12486   12516  -12498  -12492      16
   12498   12483  -12492  -12507      16   12501   12504  -12489  -12483      16
   12495   12498  -12486  -12480      16   12489   12492  -12483  -12480      16
   12747   12711  -12729  -12717      16   12741   12744  -12723  -12702      16
   12687   12720  -12702  -12723      16   12681   12717  -12696  -12699      16
   12678   12708  -12690  -12684      16   12690   12675  -12684  -12699      16
   12693   12696  -12681  -12675      16   12687   12690  -12678  -12672      16
   12681   12684  -12675  -12672      16   12939   12903  -12921  -12909      16
   12933   12936  -12915  -12894      16   12879   12912  -12894  -12915      16
   12873   12909  -12888  -12891      16   12870   12900  -12882  -12876      16
   12882   12867  -12876  -12891      16   12885   12888  -12873  -12867      16
   12879   12882  -12870  -12864      16   12873   12876  -12867  -12864      16
   13131   13095  -13113  -13101      16   13125   13128  -13107  -13086      16
   13071   13104  -13086  -13107      16   13065   13101  -13080  -13083      16
   13062   13092  -13074  -13068      16   13074   13059  -13068  -13083      16
   13077   13080  -13065  -13059      16   13071   13074  -13062  -13056      16
   13065   13068  -13059  -13056      16   13323   13287  -13305  -13293      16
   13317   13320  -13299  -13278      16   13263   13296  -13278  -13299      16
   13257   13293  -13272  -13275      16   13254   13284  -13266  -13260      16
   13266   13251  -13260  -13275      16   13269   13272  -13257  -13251      16
   13263   13266  -13254  -13248      16   13257   13260  -13251  -13248      16
   13515   13479  -13497  -13485      16   13509   13512  -13491  -13470      16
   13455   13488  -13470  -13491      16   13449   13485  -13464  -13467      16
   13446   13476  -13458  -13452      16   13458   13443  -13452  -13467      16
   13461   13464  -13449  -13443      16   13455   13458  -13446  -13440      16
   13449   13452  -13443  -13440      16   13707   13671  -13689  -13677      16
   13701   13704  -13683  -13662      16   13647   13680  -13662  -13683      16
   13641   13677  -13656  -13659      16   13638   13668  -13650  -13644      16
   13650   13635  -13644  -13659      16   13653   13656  -13641  -13635      16
   13647   13650  -13638  -13632      16   13641   13644  -13635  -13632      16
   13899   13863  -13881  -13869      16   13893   13896  -13875  -13854      16
   13839   13872  -13854  -13875      16   13833   13869  -13848  -13851      16
   13830   13860  -13842  -13836      16   13842   13827  -13836  -13851      16
   13845   13848  -13833  -13827      16   13839   13842  -13830  -13824      16
   13833   13836  -13827  -13824      16   14091   14055  -14073  -14061      16
   14085   14088  -14067  -14046      16   14031   14064  -14046  -14067      16
   14025   14061  -14040  -14043      16   14022   14052  -14034  -14028      16
   14034   14019  -14028  -14043      16   14037   14040  -14025  -14019      16
   14031   14034  -14022  -14016      16   14025   14028  -14019  -14016      16
   14283   14247  -14265  -14253      16   14277   14280  -14259  -14238      16
   14223   14256  -14238  -14259      16   14217   14253  -14232  -14235      16
   14214   14244  -14226  -14220      16   14226   14211  -14220  -14235      16
   14229   14232  -14217  -14211      16   14223   14226  -14214  -14208      16
   14217   14220  -14211  -14208      16   14475   14439  -14457  -14445      16
   14469   14472  -14451  -14430      16   14415   14448  -14430  -14451      16
   14409   14445  -14424  -14427      16   14406   14436  -14418  -14412      16
   14418   14403  -14412  -14427      16   14421   14424  -14409  -14403      16
   14415   14418  -14406  -14400      16   14409   14412  -14403  -14400      16
   14667   14631  -14649  -14637      16   14661   14664  -14643  -14622      16
   14607   14640  -14622  -14643      16   14601   14637  -14616  -14619      16
   14598   14628  -14610  -14604      16   14610   14595  -14604  -14619      16
   14613   14616  -14601  -14595      16   14607   14610  -14598  -14592      16
   14601   14604  -14595  -14592      16   14859   14823  -14841  -14829      16
   14853   14856  -14835  -14814      16   14799   14832  -14814  -14835      16
   14793   14829  -14808  -14811      16   14790   14820  -14802  -14796      16
   14802   14787  -14796  -14811      16   14805   14808  -14793  -14787      16
   14799   14802  -14790  -14784      16   14793   14796  -14787  -14784      16
   15051   15015  -15033  -15021      16   15045   15048  -15027  -15006      16
   14991   15024  -15006  -15027      16   14985   15021  -15000  -15003      16
   14982   15012  -14994  -14988      16   14994   14979  -14988  -15003      16
   14997   15000  -14985  -14979      16   14991   14994  -14982  -14976      16
   14985   14988  -14979  -14976      16   15243   15207  -15225  -15213      16
   15237   15240  -15219  -15198      16   15183   15216  -15198  -15219      16
   15177   15213  -15192  -15195      16   15174   15204  -15186  -15180      16
   15186   15171  -15180  -15195      16   15189   15192  -15177  -15171      16
   15183   15186  -15174  -15168      16   15177   15180  -15171  -15168      16
   15435   15399  -15417  -15405      16   15429   15432  -15411  -15390      16
   15375   15408  -15390  -15411      16   15369   15405  -15384  -15387      16
   15366   15396  -15378  -15372      16   15378   15363  -15372  -15387      16
   15381   15384  -15369  -15363      16   15375   15378  -15366  -15360      16
   15369   15372  -15363  -15360      16   15627   15591  -15609  -15597      16
   15621   15624  -15603  -15582      16   15567   15600  -15582  -15603      16
   15561   15597  -15576  -15579      16   15558   15588  -15570  -15564      16
   15570   15555  -15564  -15579      16   15573   15576  -15561  -15555      16
   15567   15570  -15558  -15552      16   15561   15564  -15555  -15552      16
   15819   15783  -15801  -15789      16   15813   15816  -15795  -15774      16
   15759   15792  -15774  -15795      16   15753   15789  -15768  -15771      16
   15750   15780  -15762  -15756      16   15762   15747  -15756  -15771      16
   15765   15768  -15753  -15747      16   15759   15762  -15750  -15744      16
   15753   15756  -15747  -15744      16   16011   15975  -15993  -15981      16
   16005   16008  -15987  -15966      16   15951   15984  -15966  -15987      16
   15945   15981  -15960  -15963      16   15942   15972  -15954  -15948      16
   15954   15939  -15948  -15963      16   15957   15960  -15945  -15939      16
   15951   15954  -15942  -15936      16   15945   15948  -15939  -15936      16
   16203   16167  -16185  -16173      16   16197   16200  -16179  -16158      16
   16143   16176  -16158  -16179      16   16137   16173  -16152  -16155      16
   16134   16164  -16146  -16140      16   16146   16131  -16140  -16155      16
   16149   16152  -16137  -16131      16   16143   16146  -16134  -16128      16
   16137   16140  -16131  -16128      16   16395   16359  -16377  -16365      16
   16389   16392  -16371  -16350      16   16335   16368  -16350  -16371      16
   16329   16365  -16344  -16347      16   16326   16356  -16338  -16332      16
   16338   16323  -16332  -16347      16   16341   16344  -16329  -16323      16
   16335   16338  -16326  -16320      16   16329   16332  -16323  -16320      16
   16587   16551  -16569  -16557      16   16581   16584  -16563  -16542      16
   16527   16560  -16542  -16563      16   16521   16557  -16536  -16539      16
   16518   16548  -16530  -16524      16   16530   16515  -16524  -16539      16
   16533   16536  -16521  -16515      16   16527   16530  -16518  -16512      16
   16521   16524  -16515  -16512      16   16779   16743  -16761  -16749      16
   16773   16776  -16755  -16734      16   16719   16752  -16734  -16755      16
   16713   16749  -16728  -16731      16   16710   16740  -16722  -16716      16
   16722   16707  -16716  -16731      16   16725   16728  -16713  -16707      16
   16719   16722  -16710  -16704      16   16713   16716  -16707  -16704      16
   16971   16935  -16953  -16941      16   16965   16968  -16947  -16926      16
   16911   16944  -16926  -16947      16   16905   16941  -16920  -16923      16
   16902   16932  -16914  -16908      16   16914   16899  -16908  -16923      16
   16917   16920  -16905  -16899      16   16911   16914  -16902  -16896      16
   16905   16908  -16899  -16896      16   17163   17127  -17145  -17133      16
   17157   17160  -17139  -17118      16   17103   17136  -17118  -17139      16
   17097   17133  -17112  -17115      16   17094   17124  -17106  -17100      16
   17106   17091  -17100  -17115      16   17109   17112  -17097  -17091      16
   17103   17106  -17094  -17088      16   17097   17100  -17091  -17088      16
   17355   17319  -17337  -17325      16   17349   17352  -17331  -17310      16
   17295   17328  -17310  -17331      16   17289   17325  -17304  -17307      16
   17286   17316  -17298  -17292      16   17298   17283  -17292  -17307      16
   17301   17304  -17289  -17283      16   17295   17298  -17286  -17280      16
   17289   17292  -17283  -17280      16   17547   17511  -17529  -17517      16
   17541   17544  -17523  -17502      16   17487   17520  -17502  -17523      16
   17481   17517  -17496  -17499      16   17478   17508  -17490  -17484      16
   17490   17475  -17484  -17499      16   17493   17496  -17481  -17475      16
   17487   17490  -17478  -17472      16   17481   17484  -17475  -17472      16
   17739   17703  -17721  -17709      16   17733   17736  -17715  -17694      16
   17679   17712  -17694  -17715      16   17673   17709  -17688  -17691      16
   17670   17700  -17682  -17676      16   17682   17667  -17676  -17691      16
   17685   17688  -17673  -17667      16   17679   17682  -17670  -17664      16
   17673   17676  -17667  -17664      16   17931   17895  -17913  -17901      16
   17925   17928  -17907  -17886      16   17871   17904  -17886  -17907      16
   17865   17901  -17880  -17883      16   17862   17892  -17874  -17868      16
   17874   17859  -17868  -17883      16   17877   17880  -17865  -17859      16
   17871   17874  -17862  -17856      16   17865   17868  -17859  -17856      16
   18123   18087  -18105  -18093      16   18117   18120  -18099  -18078      16
   18063   18096  -18078  -18099      16   18057   18093  -18072  -18075      16
   18054   18084  -18066  -18060      16   18066   18051  -18060  -18075      16
   18069   18072  -18057  -18051      16   18063   18066  -18054  -18048      16
   18057   18060  -18051  -18048      16   18315   18279  -18297  -18285      16
   18309   18312  -18291  -18270      16   18255   18288  -18270  -18291      16
   18249   18285  -18264  -18267      16   18246   18276  -18258  -18252      16
   18258   18243  -18252  -18267      16   18261   18264  -18249  -18243      16
   18255   18258  -18246  -18240      16   18249   18252  -18243  -18240      16
   18507   18471  -18489  -18477      16   18501   18504  -18483  -18462      16
   18447   18480  -18462  -18483      16   18441   18477  -18456  -18459      16
   18438   18468  -18450  -18444      16   18450   18435  -18444  -18459      16
   18453   18456  -18441  -18435      16   18447   18450  -18438  -18432      16
   18441   18444  -18435  -18432      16   18699   18663  -18681  -18669      16
   18693   18696  -18675  -18654      16   18639   18672  -18654  -18675      16
   18633   18669  -18648  -18651      16   18630   18660  -18642  -18636      16
   18642   18627  -18636  -18651      16   18645   18648  -18633  -18627      16
   18639   18642  -18630  -18624      16   18633   18636  -18627  -18624      16
   18891   18855  -18873  -18861      16   18885   18888  -18867  -18846      16
   18831   18864  -18846  -18867      16   18825   18861  -18840  -18843      16
   18822   18852  -18834  -18828      16   18834   18819  -18828  -18843      16
   18837   18840  -18825  -18819      16   18831   18834  -18822  -18816      16
   18825   18828  -18819  -18816      16   19083   19047  -19065  -19053      16
   19077   19080  -19059  -19038      16   19023   19056  -19038  -19059      16
   19017   19053  -19032  -19035      16   19014   19044  -19026  -19020      16
   19026   19011  -19020  -19035      16   19029   19032  -19017  -19011      16
   19023   19026  -19014  -19008      16   19017   19020  -19011  -19008      16
   19275   19239  -19257  -19245      16   19269   19272  -19251  -19230      16
   19215   19248  -19230  -19251      16   19209   19245  -19224  -19227      16
   19206   19236  -19218  -19212      16   19218   19203  -19212  -19227      16
   19221   19224  -19209  -19203      16   19215   19218  -19206  -19200      16
   19209   19212  -19203  -19200      16   19467   19431  -19449  -19437      16
   19461   19464  -19443  -19422      16   19407   19440  -19422  -19443      16
   19401   19437  -19416  -19419      16   19398   19428  -19410  -19404      16
   19410   19395  -19404  -19419      16   19413   19416  -19401  -19395      16
   19407   19410  -19398  -19392      16   19401   19404  -19395  -19392      16
   19659   19623  -19641  -19629      16   19653   19656  -19635  -19614      16
   19599   19632  -19614  -19635      16   19593   19629  -19608  -19611      16
   19590   19620  -19602  -19596      16   19602   19587  -19596  -19611      16
   19605   19608  -19593  -19587      16   19599   19602  -19590  -19584      16
   19593   19596  -19587  -19584      16   19851   19815  -19833  -19821      16
   19845   19848  -19827  -19806      16   19791   19824  -19806  -19827      16
   19785   19821  -19800  -19803      16   19782   19812  -19794  -19788      16
   19794   19779  -19788  -19803      16   19797   19800  -19785  -19779      16
   19791   19794  -19782  -19776      16   19785   19788  -19779  -19776      16
   20043   20007  -20025  -20013      16   20037   20040  -20019  -19998      16
   19983   20016  -19998  -20019      16   19977   20013  -19992  -19995      16
   19974   20004  -19986  -19980      16   19986   19971  -19980  -19995      16
   19989   19992  -19977  -19971      16   19983   19986  -19974  -19968      16
   19977   19980  -19971  -19968      16   20235   20199  -20217  -20205      16
   20229   20232  -20211  -20190      16   20175   20208  -20190  -20211      16
   20169   20205  -20184  -20187      16   20166   20196  -20178  -20172      16
   20178   20163  -20172  -20187      16   20181   20184  -20169  -20163      16
   20175   20178  -20166  -20160      16   20169   20172  -20163  -20160      16
   20427   20391  -20409  -20397      16   20421   20424  -20403  -20382      16
   20367   20400  -20382  -20403      16   20361   20397  -20376  -20379      16
   20358   20388  -20370  -20364      16   20370   20355  -20364  -20379      16
   20373   20376  -20361  -20355      16   20367   20370  -20358  -20352      16
   20361   20364  -20355  -20352      16   20619   20583  -20601  -20589      16
   20613   20616  -20595  -20574      16   20559   20592  -20574  -20595      16
   20553   20589  -20568  -20571      16   20550   20580  -20562  -20556      16
   20562   20547  -20556  -20571      16   20565   20568  -20553  -20547      16
   20559   20562  -20550  -20544      16   20553   20556  -20547  -20544      16
   20811   20775  -20793  -20781      16   20805   20808  -20787  -20766      16
   20751   20784  -20766  -20787      16   20745   20781  -20760  -20763      16
   20742   20772  -20754  -20748      16   20754   20739  -20748  -20763      16
   20757   20760  -20745  -20739      16   20751   20754  -20742  -20736      16
   20745   20748  -20739  -20736      16   21003   20967  -20985  -20973      16
   20997   21000  -20979  -20958      16   20943   20976  -20958  -20979      16
   20937   20973  -20952  -20955      16   20934   20964  -20946  -20940      16
   20946   20931  -20940  -20955      16   20949   20952  -20937  -20931      16
   20943   20946  -20934  -20928      16   20937   20940  -20931  -20928      16
   21195   21159  -21177  -21165      16   21189   21192  -21171  -21150      16
   21135   21168  -21150  -21171      16   21129   21165  -21144  -21147      16
   21126   21156  -21138  -21132      16   21138   21123  -21132  -21147      16
   21141   21144  -21129  -21123      16   21135   21138  -21126  -21120      16
   21129   21132  -21123  -21120      16   21387   21351  -21369  -21357      16
   21381   21384  -21363  -21342      16   21327   21360  -21342  -21363      16
   21321   21357  -21336  -21339      16   21318   21348  -21330  -21324      16
   21330   21315  -21324  -21339      16   21333   21336  -21321  -21315      16
   21327   21330  -21318  -21312      16   21321   21324  -21315  -21312      16
   21579   21543  -21561  -21549      16   21573   21576  -21555  -21534      16
   21519   21552  -21534  -21555      16   21513   21549  -21528  -21531      16
   21510   21540  -21522  -21516      16   21522   21507  -21516  -21531      16
   21525   21528  -21513  -21507      16   21519   21522  -21510  -21504      16
   21513   21516  -21507  -21504      16   21771   21735  -21753  -21741      16
   21765   21768  -21747  -21726      16   21711   21744  -21726  -21747      16
   21705   21741  -21720  -21723      16   21702   21732  -21714  -21708      16
   21714   21699  -21708  -21723      16   21717   21720  -21705  -21699      16
   21711   21714  -21702  -21696      16   21705   21708  -21699  -21696      16
   21963   21927  -21945  -21933      16   21957   21960  -21939  -21918      16
   21903   21936  -21918  -21939      16   21897   21933  -21912  -21915      16
   21894   21924  -21906  -21900      16   21906   21891  -21900  -21915      16
   21909   21912  -21897  -21891      16   21903   21906  -21894  -21888      16
   21897   21900  -21891  -21888      16   22155   22119  -22137  -22125      16
   22149   22152  -22131  -22110      16   22095   22128  -22110  -22131      16
   22089   22125  -22104  -22107      16   22086   22116  -22098  -22092      16
   22098   22083  -22092  -22107      16   22101   22104  -22089  -22083      16
   22095   22098  -22086  -22080      16   22089   22092  -22083  -22080      16
   22347   22311  -22329  -22317      16   22341   22344  -22323  -22302      16
   22287   22320  -22302  -22323      16   22281   22317  -22296  -22299      16
   22278   22308  -22290  -22284      16   22290   22275  -22284  -22299      16
   22293   22296  -22281  -22275      16   22287   22290  -22278  -22272      16
   22281   22284  -22275  -22272      16   22539   22503  -22521  -22509      16
   22533   22536  -22515  -22494      16   22479   22512  -22494  -22515      16
   22473   22509  -22488  -22491      16   22470   22500  -22482  -22476      16
   22482   22467  -22476  -22491      16   22485   22488  -22473  -22467      16
   22479   22482  -22470  -22464      16   22473   22476  -22467  -22464      16
   22731   22695  -22713  -22701      16   22725   22728  -22707  -22686      16
   22671   22704  -22686  -22707      16   22665   22701  -22680  -22683      16
   22662   22692  -22674  -22668      16   22674   22659  -22668  -22683      16
   22677   22680  -22665  -22659      16   22671   22674  -22662  -22656      16
   22665   22668  -22659  -22656      16   22923   22887  -22905  -22893      16
   22917   22920  -22899  -22878      16   22863   22896  -22878  -22899      16
   22857   22893  -22872  -22875      16   22854   22884  -22866  -22860      16
   22866   22851  -22860  -22875      16   22869   22872  -22857  -22851      16
   22863   22866  -22854  -22848      16   22857   22860  -22851  -22848      16
   23115   23079  -23097  -23085      16   23109   23112  -23091  -23070      16
   23055   23088  -23070  -23091      16   23049   23085  -23064  -23067      16
   23046   23076  -23058  -23052      16   23058   23043  -23052  -23067      16
   23061   23064  -23049  -23043      16   23055   23058  -23046  -23040      16
   23049   23052  -23043  -23040      16   23307   23271  -23289  -23277      16
   23301   23304  -23283  -23262      16   23247   23280  -23262  -23283      16
   23241   23277  -23256  -23259      16   23238   23268  -23250  -23244      16
   23250   23235  -23244  -23259      16   23253   23256  -23241  -23235      16
   23247   23250  -23238  -23232      16   23241   23244  -23235  -23232      16
   23499   23463  -23481  -23469      16   23493   23496  -23475  -23454      16
   23439   23472  -23454  -23475      16   23433   23469  -23448  -23451      16
   23430   23460  -23442  -23436      16   23442   23427  -23436  -23451      16
   23445   23448  -23433  -23427      16   23439   23442  -23430  -23424      16
   23433   23436  -23427  -23424      16   23691   23655  -23673  -23661      16
   23685   23688  -23667  -23646      16   23631   23664  -23646  -23667      16
   23625   23661  -23640  -23643      16   23622   23652  -23634  -23628      16
   23634   23619  -23628  -23643      16   23637   23640  -23625  -23619      16
   23631   23634  -23622  -23616      16   23625   23628  -23619  -23616      16
   23883   23847  -23865  -23853      16   23877   23880  -23859  -23838      16
   23823   23856  -23838  -23859      16   23817   23853  -23832  -23835      16
   23814   23844  -23826  -23820      16   23826   23811  -23820  -23835      16
   23829   23832  -23817  -23811      16   23823   23826  -23814  -23808      16
   23817   23820  -23811  -23808      16   24075   24039  -24057  -24045      16
   24069   24072  -24051  -24030      16   24015   24048  -24030  -24051      16
   24009   24045  -24024  -24027      16   24006   24036  -24018  -24012      16
   24018   24003  -24012  -24027      16   24021   24024  -24009  -24003      16
   24015   24018  -24006  -24000      16   24009   24012  -24003  -24000      16
   24267   24231  -24249  -24237      16   24261   24264  -24243  -24222      16
   24207   24240  -24222  -24243      16   24201   24237  -24216  -24219      16
   24198   24228  -24210  -24204      16   24210   24195  -24204  -24219      16
   24213   24216  -24201  -24195      16   24207   24210  -24198  -24192      16
   24201   24204  -24195  -24192      16   24459   24423  -24441  -24429      16
   24453   24456  -24435  -24414      16   24399   24432  -24414  -24435      16
   24393   24429  -24408  -24411      16   24390   24420  -24402  -24396      16
   24402   24387  -24396  -24411      16   24405   24408  -24393  -24387      16
   24399   24402  -24390  -24384      16   24393   24396  -24387  -24384      16
   24651   24615  -24633  -24621      16   24645   24648  -24627  -24606      16
   24591   24624  -24606  -24627      16   24585   24621  -24600  -24603      16
   24582   24612  -24594  -24588      16   24594   24579  -24588  -24603      16
   24597   24600  -24585  -24579      16   24591   24594  -24582  -24576      16
   24585   24588  -24579  -24576      16   24843   24807  -24825  -24813      16
   24837   24840  -24819  -24798      16   24783   24816  -24798  -24819      16
   24777   24813  -24792  -24795      16   24774   24804  -24786  -24780      16
   24786   24771  -24780  -24795      16   24789   24792  -24777  -24771      16
   24783   24786  -24774  -24768      16   24777   24780  -24771  -24768      16
   25035   24999  -25017  -25005      16   25029   25032  -25011  -24990      16
   24975   25008  -24990  -25011      16   24969   25005  -24984  -24987      16
   24966   24996  -24978  -24972      16   24978   24963  -24972  -24987      16
   24981   24984  -24969  -24963      16   24975   24978  -24966  -24960      16
   24969   24972  -24963  -24960      16   25227   25191  -25209  -25197      16
   25221   25224  -25203  -25182      16   25167   25200  -25182  -25203      16
   25161   25197  -25176  -25179      16   25158   25188  -25170  -25164      16
   25170   25155  -25164  -25179      16   25173   25176  -25161  -25155      16
   25167   25170  -25158  -25152      16   25161   25164  -25155  -25152      16
   25419   25383  -25401  -25389      16   25413   25416  -25395  -25374      16
   25359   25392  -25374  -25395      16   25353   25389  -25368  -25371      16
   25350   25380  -25362  -25356      16   25362   25347  -25356  -25371      16
   25365   25368  -25353  -25347      16   25359   25362  -25350  -25344      16
   25353   25356  -25347  -25344      16   25611   25575  -25593  -25581      16
   25605   25608  -25587  -25566      16   25551   25584  -25566  -25587      16
   25545   25581  -25560  -25563      16   25542   25572  -25554  -25548      16
   25554   25539  -25548  -25563      16   25557   25560  -25545  -25539      16
   25551   25554  -25542  -25536      16   25545   25548  -25539  -25536      16
   25803   25767  -25785  -25773      16   25797   25800  -25779  -25758      16
   25743   25776  -25758  -25779      16   25737   25773  -25752  -25755      16
   25734   25764  -25746  -25740      16   25746   25731  -25740  -25755      16
   25749   25752  -25737  -25731      16   25743   25746  -25734  -25728      16
   25737   25740  -25731  -25728      16   25995   25959  -25977  -25965      16
   25989   25992  -25971  -25950      16   25935   25968  -25950  -25971      16
   25929   25965  -25944  -25947      16   25926   25956  -25938  -25932      16
   25938   25923  -25932  -25947      16   25941   25944  -25929  -25923      16
   25935   25938  -25926  -25920      16   25929   25932  -25923  -25920      16
   26187   26151  -26169  -26157      16   26181   26184  -26163  -26142      16
   26127   26160  -26142  -26163      16   26121   26157  -26136  -26139      16
   26118   26148  -26130  -26124      16   26130   26115  -26124  -26139      16
   26133   26136  -26121  -26115      16   26127   26130  -26118  -26112      16
   26121   26124  -26115  -26112      16   26379   26343  -26361  -26349      16
   26373   26376  -26355  -26334      16   26319   26352  -26334  -26355      16
   26313   26349  -26328  -26331      16   26310   26340  -26322  -26316      16
   26322   26307  -26316  -26331      16   26325   26328  -26313  -26307      16
   26319   26322  -26310  -26304      16   26313   26316  -26307  -26304      16
   26571   26535  -26553  -26541      16   26565   26568  -26547  -26526      16
   26511   26544  -26526  -26547      16   26505   26541  -26520  -26523      16
   26502   26532  -26514  -26508      16   26514   26499  -26508  -26523      16
   26517   26520  -26505  -26499      16   26511   26514  -26502  -26496      16
   26505   26508  -26499  -26496      16   26763   26727  -26745  -26733      16
   26757   26760  -26739  -26718      16   26703   26736  -26718  -26739      16
   26697   26733  -26712  -26715      16   26694   26724  -26706  -26700      16
   26706   26691  -26700  -26715      16   26709   26712  -26697  -26691      16
   26703   26706  -26694  -26688      16   26697   26700  -26691  -26688      16
   26955   26919  -26937  -26925      16   26949   26952  -26931  -26910      16
   26895   26928  -26910  -26931      16   26889   26925  -26904  -26907      16
   26886   26916  -26898  -26892      16   26898   26883  -26892  -26907      16
   26901   26904  -26889  -26883      16   26895   26898  -26886  -26880      16
   26889   26892  -26883  -26880      16   27147   27111  -27129  -27117      16
   27141   27144  -27123  -27102      16   27087   27120  -27102  -27123      16
   27081   27117  -27096  -27099      16   27078   27108  -27090  -27084      16
   27090   27075  -27084  -27099      16   27093   27096  -27081  -27075      16
   27087   27090  -27078  -27072      16   27081   27084  -27075  -27072      16
   27339   27303  -27321  -27309      16   27333   27336  -27315  -27294      16
   27279   27312  -27294  -27315      16   27273   27309  -27288  -27291      16
   27270   27300  -27282  -27276      16   27282   27267  -27276  -27291      16
   27285   27288  -27273  -27267      16   27279   27282  -27270  -27264      16
   27273   27276  -27267  -27264      16   27531   27495  -27513  -27501      16
   27525   27528  -27507  -27486      16   27471   27504  -27486  -27507      16
   27465   27501  -27480  -27483      16   27462   27492  -27474  -27468      16
   27474   27459  -27468  -27483      16   27477   27480  -27465  -27459      16
   27471   27474  -27462  -27456      16   27465   27468  -27459  -27456      16
   27723   27687  -27705  -27693      16   27717   27720  -27699  -27678      16
   27663   27696  -27678  -27699      16   27657   27693  -27672  -27675      16
   27654   27684  -27666  -27660      16   27666   27651  -27660  -27675      16
   27669   27672  -27657  -27651      16   27663   27666  -27654  -27648      16
   27657   27660  -27651  -27648      16   27915   27879  -27897  -27885      16
   27909   27912  -27891  -27870      16   27855   27888  -27870  -27891      16
   27849   27885  -27864  -27867      16   27846   27876  -27858  -27852      16
   27858   27843  -27852  -27867      16   27861   27864  -27849  -27843      16
   27855   27858  -27846  -27840      16   27849   27852  -27843  -27840      16
   28107   28071  -28089  -28077      16   28101   28104  -28083  -28062      16
   28047   28080  -28062  -28083      16   28041   28077  -28056  -28059      16
   28038   28068  -28050  -28044      16   28050   28035  -28044  -28059      16
   28053   28056  -28041  -28035      16   28047   28050  -28038  -28032      16
   28041   28044  -28035  -28032      16   28299   28263  -28281  -28269      16
   28293   28296  -28275  -28254      16   28239   28272  -28254  -28275      16
   28233   28269  -28248  -28251      16   28230   28260  -28242  -28236      16
   28242   28227  -28236  -28251      16   28245   28248  -28233  -28227      16
   28239   28242  -28230  -28224      16   28233   28236  -28227  -28224      16
   28491   28455  -28473  -28461      16   28485   28488  -28467  -28446      16
   28431   28464  -28446  -28467      16   28425   28461  -28440  -28443      16
   28422   28452  -28434  -28428      16   28434   28419  -28428  -28443      16
   28437   28440  -28425  -28419      16   28431   28434  -28422  -28416      16
   28425   28428  -28419  -28416      16   28683   28647  -28665  -28653      16
   28677   28680  -28659  -28638      16   28623   28656  -28638  -28659      16
   28617   28653  -28632  -28635      16   28614   28644  -28626  -28620      16
   28626   28611  -28620  -28635      16   28629   28632  -28617  -28611      16
   28623   28626  -28614  -28608      16   28617   28620  -28611  -28608      16
   28875   28839  -28857  -28845      16   28869   28872  -28851  -28830      16
   28815   28848  -28830  -28851      16   28809   28845  -28824  -28827      16
   28806   28836  -28818  -28812      16   28818   28803  -28812  -28827      16
   28821   28824  -28809  -28803      16   28815   28818  -28806  -28800      16
   28809   28812  -28803  -28800      16   29067   29031  -29049  -29037      16
   29061   29064  -29043  -29022      16   29007   29040  -29022  -29043      16
   29001   29037  -29016  -29019      16   28998   29028  -29010  -29004      16
   29010   28995  -29004  -29019      16   29013   29016  -29001  -28995      16
   29007   29010  -28998  -28992      16   29001   29004  -28995  -28992      16
   29259   29223  -29241  -29229      16   29253   29256  -29235  -29214      16
   29199   29232  -29214  -29235      16   29193   29229  -29208  -29211      16
   29190   29220  -29202  -29196      16   29202   29187  -29196  -29211      16
   29205   29208  -29193  -29187      16   29199   29202  -29190  -29184      16
   29193   29196  -29187  -29184      16   29451   29415  -29433  -29421      16
   29445   29448  -29427  -29406      16   29391   29424  -29406  -29427      16
   29385   29421  -29400  -29403      16   29382   29412  -29394  -29388      16
   29394   29379  -29388  -29403      16   29397   29400  -29385  -29379      16
   29391   29394  -29382  -29376      16   29385   29388  -29379  -29376      16
   29643   29607  -29625  -29613      16   29637   29640  -29619  -29598      16
   29583   29616  -29598  -29619      16   29577   29613  -29592  -29595      16
   29574   29604  -29586  -29580      16   29586   29571  -29580  -29595      16
   29589   29592  -29577  -29571      16   29583   29586  -29574  -29568      16
   29577   29580  -29571  -29568      16   29835   29799  -29817  -29805      16
   29829   29832  -29811  -29790      16   29775   29808  -29790  -29811      16
   29769   29805  -29784  -29787      16   29766   29796  -29778  -29772      16
   29778   29763  -29772  -29787      16   29781   29784  -29769  -29763      16
   29775   29778  -29766  -29760      16   29769   29772  -29763  -29760      16
   30027   29991  -30009  -29997      16   30021   30024  -30003  -29982      16
   29967   30000  -29982  -30003      16   29961   29997  -29976  -29979      16
   29958   29988  -29970  -29964      16   29970   29955  -29964  -29979      16
   29973   29976  -29961  -29955      16   29967   29970  -29958  -29952      16
   29961   29964  -29955  -29952      16   30219   30183  -30201  -30189      16
   30213   30216  -30195  -30174      16   30159   30192  -30174  -30195      16
   30153   30189  -30168  -30171      16   30150   30180  -30162  -30156      16
   30162   30147  -30156  -30171      16   30165   30168  -30153  -30147      16
   30159   30162  -30150  -30144      16   30153   30156  -30147  -30144      16
   30411   30375  -30393  -30381      16   30405   30408  -30387  -30366      16
   30351   30384  -30366  -30387      16   30345   30381  -30360  -30363      16
   30342   30372  -30354  -30348      16   30354   30339  -30348  -30363      16
   30357   30360  -30345  -30339      16   30351   30354  -30342  -30336      16
   30345   30348  -30339  -30336      16   30603   30567  -30585  -30573      16
   30597   30600  -30579  -30558      16   30543   30576  -30558  -30579      16
   30537   30573  -30552  -30555      16   30534   30564  -30546  -30540      16
   30546   30531  -30540  -30555      16   30549   30552  -30537  -30531      16
   30543   30546  -30534  -30528      16   30537   30540  -30531  -30528      16
   30795   30759  -30777  -30765      16   30789   30792  -30771  -30750      16
   30735   30768  -30750  -30771      16   30729   30765  -30744  -30747      16
   30726   30756  -30738  -30732      16   30738   30723  -30732  -30747      16
   30741   30744  -30729  -30723      16   30735   30738  -30726  -30720      16
   30729   30732  -30723  -30720      16   30987   30951  -30969  -30957      16
   30981   30984  -30963  -30942      16   30927   30960  -30942  -30963      16
   30921   30957  -30936  -30939      16   30918   30948  -30930  -30924      16
   30930   30915  -30924  -30939      16   30933   30936  -30921  -30915      16
   30927   30930  -30918  -30912      16   30921   30924  -30915  -30912      16
   31179   31143  -31161  -31149      16   31173   31176  -31155  -31134      16
   31119   31152  -31134  -31155      16   31113   31149  -31128  -31131      16
   31110   31140  -31122  -31116      16   31122   31107  -31116  -31131      16
   31125   31128  -31113  -31107      16   31119   31122  -31110  -31104      16
   31113   31116  -31107  -31104      16   31371   31335  -31353  -31341      16
   31365   31368  -31347  -31326      16   31311   31344  -31326  -31347      16
   31305   31341  -31320  -31323      16   31302   31332  -31314  -31308      16
   31314   31299  -31308  -31323      16   31317   31320  -31305  -31299      16
   31311   31314  -31302  -31296      16   31305   31308  -31299  -31296      16
   31563   31527  -31545  -31533      16   31557   31560  -31539  -31518      16
   31503   31536  -31518  -31539      16   31497   31533  -31512  -31515      16
   31494   31524  -31506  -31500      16   31506   31491  -31500  -31515      16
   31509   31512  -31497  -31491      16   31503   31506  -31494  -31488      16
   31497   31500  -31491  -31488      16   31755   31719  -31737  -31725      16
   31749   31752  -31731  -31710      16   31695   31728  -31710  -31731      16
   31689   31725  -31704  -31707      16   31686   31716  -31698  -31692      16
   31698   31683  -31692  -31707      16   31701   31704  -31689  -31683      16
   31695   31698  -31686  -31680      16   31689   31692  -31683  -31680      16
   31947   31911  -31929  -31917      16   31941   31944  -31923  -31902      16
   31887   31920  -31902  -31923      16   31881   31917  -31896  -31899      16
   31878   31908  -31890  -31884      16   31890   31875  -31884  -31899      16
   31893   31896  -31881  -31875      16   31887   31890  -31878  -31872      16
   31881   31884  -31875  -31872      16   32139   32103  -32121  -32109      16
   32133   32136  -32115  -32094      16   32079   32112  -32094  -32115      16
   32073   32109  -32088  -32091      16   32070   32100  -32082  -32076      16
   32082   32067  -32076  -32091      16   32085   32088  -32073  -32067      16
   32079   32082  -32070  -32064      16   32073   32076  -32067  -32064      16
   32331   32295  -32313  -32301      16   32325   32328  -32307  -32286      16
   32271   32304  -32286  -32307      16   32265   32301  -32280  -32283      16
   32262   32292  -32274  -32268      16   32274   32259  -32268  -32283      16
   32277   32280  -32265  -32259      16   32271   32274  -32262  -32256      16
   32265   32268  -32259  -32256      16   32523   32487  -32505  -32493      16
   32517   32520  -32499  -32478      16   32463   32496  -32478  -32499      16
   32457   32493  -32472  -32475      16   32454   32484  -32466  -32460      16
   32466   32451  -32460  -32475      16   32469   32472  -32457  -32451      16
   32463   32466  -32454  -32448      16   32457   32460  -32451  -32448      16
   32715   32679  -32697  -32685      16   32709   32712  -32691  -32670      16
   32655   32688  -32670  -32691      16   32649   32685  -32664  -32667      16
   32646   32676  -32658  -32652      16   32658   32643  -32652  -32667      16
   32661   32664  -32649  -32643      16   32655   32658  -32646  -32640      16
   32649   32652  -32643  -32640      16   32907   32871  -32889  -32877      16
   32901   32904  -32883  -32862      16   32847   32880  -32862  -32883      16
   32841   32877  -32856  -32859      16   32838   32868  -32850  -32844      16
   32850   32835  -32844  -32859      16   32853   32856  -32841  -32835      16
   32847   32850  -32838  -32832      16   32841   32844  -32835  -32832      16
   33099   33063  -33081  -33069      16   33093   33096  -33075  -33054      16
   33039   33072  -33054  -33075      16   33033   33069  -33048  -33051      16
   33030   33060  -33042  -33036      16   33042   33027  -33036  -33051      16
   33045   33048  -33033  -33027      16   33039   33042  -33030  -33024      16
   33033   33036  -33027  -33024      16   33291   33255  -33273  -33261      16
   33285   33288  -33267  -33246      16   33231   33264  -33246  -33267      16
   33225   33261  -33240  -33243      16   33222   33252  -33234  -33228      16
   33234   33219  -33228  -33243      16   33237   33240  -33225  -33219      16
   33231   33234  -33222  -33216      16   33225   33228  -33219  -33216      16
   33483   33447  -33465  -33453      16   33477   33480  -33459  -33438      16
   33423   33456  -33438  -33459      16   33417   33453  -33432  -33435      16
   33414   33444  -33426  -33420      16   33426   33411  -33420  -33435      16
   33429   33432  -33417  -33411      16   33423   33426  -33414  -33408      16
   33417   33420  -33411  -33408      16   33675   33639  -33657  -33645      16
   33669   33672  -33651  -33630      16   33615   33648  -33630  -33651      16
   33609   33645  -33624  -33627      16   33606   33636  -33618  -33612      16
   33618   33603  -33612  -33627      16   33621   33624  -33609  -33603      16
   33615   33618  -33606  -33600      16   33609   33612  -33603  -33600      16
   33867   33831  -33849  -33837      16   33861   33864  -33843  -33822      16
   33807   33840  -33822  -33843      16   33801   33837  -33816  -33819      16
   33798   33828  -33810  -33804      16   33810   33795  -33804  -33819      16
   33813   33816  -33801  -33795      16   33807   33810  -33798  -33792      16
   33801   33804  -33795  -33792      16   34059   34023  -34041  -34029      16
   34053   34056  -34035  -34014      16   33999   34032  -34014  -34035      16
   33993   34029  -34008  -34011      16   33990   34020  -34002  -33996      16
   34002   33987  -33996  -34011      16   34005   34008  -33993  -33987      16
   33999   34002  -33990  -33984      16   33993   33996  -33987  -33984      16
   34251   34215  -34233  -34221      16   34245   34248  -34227  -34206      16
   34191   34224  -34206  -34227      16   34185   34221  -34200  -34203      16
   34182   34212  -34194  -34188      16   34194   34179  -34188  -34203      16
   34197   34200  -34185  -34179      16   34191   34194  -34182  -34176      16
   34185   34188  -34179  -34176      16   34443   34407  -34425  -34413      16
   34437   34440  -34419  -34398      16   34383   34416  -34398  -34419      16
   34377   34413  -34392  -34395      16   34374   34404  -34386  -34380      16
   34386   34371  -34380  -34395      16   34389   34392  -34377  -34371      16
   34383   34386  -34374  -34368      16   34377   34380  -34371  -34368      16
   34635   34599  -34617  -34605      16   34629   34632  -34611  -34590      16
   34575   34608  -34590  -34611      16   34569   34605  -34584  -34587      16
   34566   34596  -34578  -34572      16   34578   34563  -34572  -34587      16
   34581   34584  -34569  -34563      16   34575   34578  -34566  -34560      16
   34569   34572  -34563  -34560      16   34827   34791  -34809  -34797      16
   34821   34824  -34803  -34782      16   34767   34800  -34782  -34803      16
   34761   34797  -34776  -34779      16   34758   34788  -34770  -34764      16
   34770   34755  -34764  -34779      16   34773   34776  -34761  -34755      16
   34767   34770  -34758  -34752      16   34761   34764  -34755  -34752      16
   35019   34983  -35001  -34989      16   35013   35016  -34995  -34974      16
   34959   34992  -34974  -34995      16   34953   34989  -34968  -34971      16
   34950   34980  -34962  -34956      16   34962   34947  -34956  -34971      16
   34965   34968  -34953  -34947      16   34959   34962  -34950  -34944      16
   34953   34956  -34947  -34944      16   35211   35175  -35193  -35181      16
   35205   35208  -35187  -35166      16   35151   35184  -35166  -35187      16
   35145   35181  -35160  -35163      16   35142   35172  -35154  -35148      16
   35154   35139  -35148  -35163      16   35157   35160  -35145  -35139      16
   35151   35154  -35142  -35136      16   35145   35148  -35139  -35136      16
   35403   35367  -35385  -35373      16   35397   35400  -35379  -35358      16
   35343   35376  -35358  -35379      16   35337   35373  -35352  -35355      16
   35334   35364  -35346  -35340      16   35346   35331  -35340  -35355      16
   35349   35352  -35337  -35331      16   35343   35346  -35334  -35328      16
   35337   35340  -35331  -35328      16   35595   35559  -35577  -35565      16
   35589   35592  -35571  -35550      16   35535   35568  -35550  -35571      16
   35529   35565  -35544  -35547      16   35526   35556  -35538  -35532      16
   35538   35523  -35532  -35547      16   35541   35544  -35529  -35523      16
   35535   35538  -35526  -35520      16   35529   35532  -35523  -35520      16
   35787   35751  -35769  -35757      16   35781   35784  -35763  -35742      16
   35727   35760  -35742  -35763      16   35721   35757  -35736  -35739      16
   35718   35748  -35730  -35724      16   35730   35715  -35724  -35739      16
   35733   35736  -35721  -35715      16   35727   35730  -35718  -35712      16
   35721   35724  -35715  -35712      16   35979   35943  -35961  -35949      16
   35973   35976  -35955  -35934      16   35919   35952  -35934  -35955      16
   35913   35949  -35928  -35931      16   35910   35940  -35922  -35916      16
   35922   35907  -35916  -35931      16   35925   35928  -35913  -35907      16
   35919   35922  -35910  -35904      16   35913   35916  -35907  -35904      16
   36171   36135  -36153  -36141      16   36165   36168  -36147  -36126      16
   36111   36144  -36126  -36147      16   36105   36141  -36120  -36123      16
   36102   36132  -36114  -36108      16   36114   36099  -36108  -36123      16
   36117   36120  -36105  -36099      16   36111   36114  -36102  -36096      16
   36105   36108  -36099  -36096      16   36363   36327  -36345  -36333      16
   36357   36360  -36339  -36318      16   36303   36336  -36318  -36339      16
   36297   36333  -36312  -36315      16   36294   36324  -36306  -36300      16
   36306   36291  -36300  -36315      16   36309   36312  -36297  -36291      16
   36303   36306  -36294  -36288      16   36297   36300  -36291  -36288      16
   36555   36519  -36537  -36525      16   36549   36552  -36531  -36510      16
   36495   36528  -36510  -36531      16   36489   36525  -36504  -36507      16
   36486   36516  -36498  -36492      16   36498   36483  -36492  -36507      16
   36501   36504  -36489  -36483      16   36495   36498  -36486  -36480      16
   36489   36492  -36483  -36480      16   36747   36711  -36729  -36717      16
   36741   36744  -36723  -36702      16   36687   36720  -36702  -36723      16
   36681   36717  -36696  -36699      16   36678   36708  -36690  -36684      16
   36690   36675  -36684  -36699      16   36693   36696  -36681  -36675      16
   36687   36690  -36678  -36672      16   36681   36684  -36675  -36672      16
   36939   36903  -36921  -36909      16   36933   36936  -36915  -36894      16
   36879   36912  -36894  -36915      16   36873   36909  -36888  -36891      16
   36870   36900  -36882  -36876      16   36882   36867  -36876  -36891      16
   36885   36888  -36873  -36867      16   36879   36882  -36870  -36864      16
   36873   36876  -36867  -36864      16   37131   37095  -37113  -37101      16
   37125   37128  -37107  -37086      16   37071   37104  -37086  -37107      16
   37065   37101  -37080  -37083      16   37062   37092  -37074  -37068      16
   37074   37059  -37068  -37083      16   37077   37080  -37065  -37059      16
   37071   37074  -37062  -37056      16   37065   37068  -37059  -37056      16
   37323   37287  -37305  -37293      16   37317   37320  -37299  -37278      16
   37263   37296  -37278  -37299      16   37257   37293  -37272  -37275      16
   37254   37284  -37266  -37260      16   37266   37251  -37260  -37275      16
   37269   37272  -37257  -37251      16   37263   37266  -37254  -37248      16
   37257   37260  -37251  -37248      16   37515   37479  -37497  -37485      16
   37509   37512  -37491  -37470      16   37455   37488  -37470  -37491      16
   37449   37485  -37464  -37467      16   37446   37476  -37458  -37452      16
   37458   37443  -37452  -37467      16   37461   37464  -37449  -37443      16
   37455   37458  -37446  -37440      16   37449   37452  -37443  -37440      16
   37707   37671  -37689  -37677      16   37701   37704  -37683  -37662      16
   37647   37680  -37662  -37683      16   37641   37677  -37656  -37659      16
   37638   37668  -37650  -37644      16   37650   37635  -37644  -37659      16
   37653   37656  -37641  -37635      16   37647   37650  -37638  -37632      16
   37641   37644  -37635  -37632      16   37899   37863  -37881  -37869      16
   37893   37896  -37875  -37854      16   37839   37872  -37854  -37875      16
   37833   37869  -37848  -37851      16   37830   37860  -37842  -37836      16
   37842   37827  -37836  -37851      16   37845   37848  -37833  -37827      16
   37839   37842  -37830  -37824      16   37833   37836  -37827  -37824      16
   38091   38055  -38073  -38061      16   38085   38088  -38067  -38046      16
   38031   38064  -38046  -38067      16   38025   38061  -38040  -38043      16
   38022   38052  -38034  -38028      16   38034   38019  -38028  -38043      16
   38037   38040  -38025  -38019      16   38031   38034  -38022  -38016      16
   38025   38028  -38019  -38016      16   38283   38247  -38265  -38253      16
   38277   38280  -38259  -38238      16   38223   38256  -38238  -38259      16
   38217   38253  -38232  -38235      16   38214   38244  -38226  -38220      16
   38226   38211  -38220  -38235      16   38229   38232  -38217  -38211      16
   38223   38226  -38214  -38208      16   38217   38220  -38211  -38208      16
   38475   38439  -38457  -38445      16   38469   38472  -38451  -38430      16
   38415   38448  -38430  -38451      16   38409   38445  -38424  -38427      16
   38406   38436  -38418  -38412      16   38418   38403  -38412  -38427      16
   38421   38424  -38409  -38403      16   38415   38418  -38406  -38400      16
   38409   38412  -38403  -38400      16   38667   38631  -38649  -38637      16
   38661   38664  -38643  -38622      16   38607   38640  -38622  -38643      16
   38601   38637  -38616  -38619      16   38598   38628  -38610  -38604      16
   38610   38595  -38604  -38619      16   38613   38616  -38601  -38595      16
   38607   38610  -38598  -38592      16   38601   38604  -38595  -38592      16
   38859   38823  -38841  -38829      16   38853   38856  -38835  -38814      16
   38799   38832  -38814  -38835      16   38793   38829  -38808  -38811      16
   38790   38820  -38802  -38796      16   38802   38787  -38796  -38811      16
   38805   38808  -38793  -38787      16   38799   38802  -38790  -38784      16
   38793   38796  -38787  -38784      16   39051   39015  -39033  -39021      16
   39045   39048  -39027  -39006      16   38991   39024  -39006  -39027      16
   38985   39021  -39000  -39003      16   38982   39012  -38994  -38988      16
   38994   38979  -38988  -39003      16   38997   39000  -38985  -38979      16
   38991   38994  -38982  -38976      16   38985   38988  -38979  -38976      16
   39243   39207  -39225  -39213      16   39237   39240  -39219  -39198      16
   39183   39216  -39198  -39219      16   39177   39213  -39192  -39195      16
   39174   39204  -39186  -39180      16   39186   39171  -39180  -39195      16
   39189   39192  -39177  -39171      16   39183   39186  -39174  -39168      16
   39177   39180  -39171  -39168      16   39435   39399  -39417  -39405      16
   39429   39432  -39411  -39390      16   39375   39408  -39390  -39411      16
   39369   39405  -39384  -39387      16   39366   39396  -39378  -39372      16
   39378   39363  -39372  -39387      16   39381   39384  -39369  -39363      16
   39375   39378  -39366  -39360      16   39369   39372  -39363  -39360      16
   39627   39591  -39609  -39597      16   39621   39624  -39603  -39582      16
   39567   39600  -39582  -39603      16   39561   39597  -39576  -39579      16
   39558   39588  -39570  -39564      16   39570   39555  -39564  -39579      16
   39573   39576  -39561  -39555      16   39567   39570  -39558  -39552      16
   39561   39564  -39555  -39552      16   39819   39783  -39801  -39789      16
   39813   39816  -39795  -39774      16   39759   39792  -39774  -39795      16
   39753   39789  -39768  -39771      16   39750   39780  -39762  -39756      16
   39762   39747  -39756  -39771      16   39765   39768  -39753  -39747      16
   39759   39762  -39750  -39744      16   39753   39756  -39747  -39744      16
   40011   39975  -39993  -39981      16   40005   40008  -39987  -39966      16
   39951   39984  -39966  -39987      16   39945   39981  -39960  -39963      16
   39942   39972  -39954  -39948      16   39954   39939  -39948  -39963      16
   39957   39960  -39945  -39939      16   39951   39954  -39942  -39936      16
   39945   39948  -39939  -39936      16   40203   40167  -40185  -40173      16
   40197   40200  -40179  -40158      16   40143   40176  -40158  -40179      16
   40137   40173  -40152  -40155      16   40134   40164  -40146  -40140      16
   40146   40131  -40140  -40155      16   40149   40152  -40137  -40131      16
   40143   40146  -40134  -40128      16   40137   40140  -40131  -40128      16
   40395   40359  -40377  -40365      16   40389   40392  -40371  -40350      16
   40335   40368  -40350  -40371      16   40329   40365  -40344  -40347      16
   40326   40356  -40338  -40332      16   40338   40323  -40332  -40347      16
   40341   40344  -40329  -40323      16   40335   40338  -40326  -40320      16
   40329   40332  -40323  -40320      16   40587   40551  -40569  -40557      16
   40581   40584  -40563  -40542      16   40527   40560  -40542  -40563      16
   40521   40557  -40536  -40539      16   40518   40548  -40530  -40524      16
   40530   40515  -40524  -40539      16   40533   40536  -40521  -40515      16
   40527   40530  -40518  -40512      16   40521   40524  -40515  -40512      16
   40779   40743  -40761  -40749      16   40773   40776  -40755  -40734      16
   40719   40752  -40734  -40755      16   40713   40749  -40728  -40731      16
   40710   40740  -40722  -40716      16   40722   40707  -40716  -40731      16
   40725   40728  -40713  -40707      16   40719   40722  -40710  -40704      16
   40713   40716  -40707  -40704      16   40971   40935  -40953  -40941      16
   40965   40968  -40947  -40926      16   40911   40944  -40926  -40947      16
   40905   40941  -40920  -40923      16   40902   40932  -40914  -40908      16
   40914   40899  -40908  -40923      16   40917   40920  -40905  -40899      16
   40911   40914  -40902  -40896      16   40905   40908  -40899  -40896      16
   41163   41127  -41145  -41133      16   41157   41160  -41139  -41118      16
   41103   41136  -41118  -41139      16   41097   41133  -41112  -41115      16
   41094   41124  -41106  -41100      16   41106   41091  -41100  -41115      16
   41109   41112  -41097  -41091      16   41103   41106  -41094  -41088      16
   41097   41100  -41091  -41088      16   41355   41319  -41337  -41325      16
   41349   41352  -41331  -41310      16   41295   41328  -41310  -41331      16
   41289   41325  -41304  -41307      16   41286   41316  -41298  -41292      16
   41298   41283  -41292  -41307      16   41301   41304  -41289  -41283      16
   41295   41298  -41286  -41280      16   41289   41292  -41283  -41280      16
   41547   41511  -41529  -41517      16   41541   41544  -41523  -41502      16
   41487   41520  -41502  -41523      16   41481   41517  -41496  -41499      16
   41478   41508  -41490  -41484      16   41490   41475  -41484  -41499      16
   41493   41496  -41481  -41475      16   41487   41490  -41478  -41472      16
   41481   41484  -41475  -41472      16   41739   41703  -41721  -41709      16
   41733   41736  -41715  -41694      16   41679   41712  -41694  -41715      16
   41673   41709  -41688  -41691      16   41670   41700  -41682  -41676      16
   41682   41667  -41676  -41691      16   41685   41688  -41673  -41667      16
   41679   41682  -41670  -41664      16   41673   41676  -41667  -41664      16
   41931   41895  -41913  -41901      16   41925   41928  -41907  -41886      16
   41871   41904  -41886  -41907      16   41865   41901  -41880  -41883      16
   41862   41892  -41874  -41868      16   41874   41859  -41868  -41883      16
   41877   41880  -41865  -41859      16   41871   41874  -41862  -41856      16
   41865   41868  -41859  -41856      16   42123   42087  -42105  -42093      16
   42117   42120  -42099  -42078      16   42063   42096  -42078  -42099      16
   42057   42093  -42072  -42075      16   42054   42084  -42066  -42060      16
   42066   42051  -42060  -42075      16   42069   42072  -42057  -42051      16
   42063   42066  -42054  -42048      16   42057   42060  -42051  -42048      16
   42315   42279  -42297  -42285      16   42309   42312  -42291  -42270      16
   42255   42288  -42270  -42291      16   42249   42285  -42264  -42267      16
   42246   42276  -42258  -42252      16   42258   42243  -42252  -42267      16
   42261   42264  -42249  -42243      16   42255   42258  -42246  -42240      16
   42249   42252  -42243  -42240      16   42507   42471  -42489  -42477      16
   42501   42504  -42483  -42462      16   42447   42480  -42462  -42483      16
   42441   42477  -42456  -42459      16   42438   42468  -42450  -42444      16
   42450   42435  -42444  -42459      16   42453   42456  -42441  -42435      16
   42447   42450  -42438  -42432      16   42441   42444  -42435  -42432      16
   42699   42663  -42681  -42669      16   42693   42696  -42675  -42654      16
   42639   42672  -42654  -42675      16   42633   42669  -42648  -42651      16
   42630   42660  -42642  -42636      16   42642   42627  -42636  -42651      16
   42645   42648  -42633  -42627      16   42639   42642  -42630  -42624      16
   42633   42636  -42627  -42624      16   42891   42855  -42873  -42861      16
   42885   42888  -42867  -42846      16   42831   42864  -42846  -42867      16
   42825   42861  -42840  -42843      16   42822   42852  -42834  -42828      16
   42834   42819  -42828  -42843      16   42837   42840  -42825  -42819      16
   42831   42834  -42822  -42816      16   42825   42828  -42819  -42816      16
   43083   43047  -43065  -43053      16   43077   43080  -43059  -43038      16
   43023   43056  -43038  -43059      16   43017   43053  -43032  -43035      16
   43014   43044  -43026  -43020      16   43026   43011  -43020  -43035      16
   43029   43032  -43017  -43011      16   43023   43026  -43014  -43008      16
   43017   43020  -43011  -43008      16   43275   43239  -43257  -43245      16
   43269   43272  -43251  -43230      16   43215   43248  -43230  -43251      16
   43209   43245  -43224  -43227      16   43206   43236  -43218  -43212      16
   43218   43203  -43212  -43227      16   43221   43224  -43209  -43203      16
   43215   43218  -43206  -43200      16   43209   43212  -43203  -43200      16
   43467   43431  -43449  -43437      16   43461   43464  -43443  -43422      16
   43407   43440  -43422  -43443      16   43401   43437  -43416  -43419      16
   43398   43428  -43410  -43404      16   43410   43395  -43404  -43419      16
   43413   43416  -43401  -43395      16   43407   43410  -43398  -43392      16
   43401   43404  -43395  -43392      16   43659   43623  -43641  -43629      16
   43653   43656  -43635  -43614      16   43599   43632  -43614  -43635      16
   43593   43629  -43608  -43611      16   43590   43620  -43602  -43596      16
   43602   43587  -43596  -43611      16   43605   43608  -43593  -43587      16
   43599   43602  -43590  -43584      16   43593   43596  -43587  -43584      16
   43851   43815  -43833  -43821      16   43845   43848  -43827  -43806      16
   43791   43824  -43806  -43827      16   43785   43821  -43800  -43803      16
   43782   43812  -43794  -43788      16   43794   43779  -43788  -43803      16
   43797   43800  -43785  -43779      16   43791   43794  -43782  -43776      16
   43785   43788  -43779  -43776      16   44043   44007  -44025  -44013      16
   44037   44040  -44019  -43998      16   43983   44016  -43998  -44019      16
   43977   44013  -43992  -43995      16   43974   44004  -43986  -43980      16
   43986   43971  -43980  -43995      16   43989   43992  -43977  -43971      16
   43983   43986  -43974  -43968      16   43977   43980  -43971  -43968      16
   44235   44199  -44217  -44205      16   44229   44232  -44211  -44190      16
   44175   44208  -44190  -44211      16   44169   44205  -44184  -44187      16
   44166   44196  -44178  -44172      16   44178   44163  -44172  -44187      16
   44181   44184  -44169  -44163      16   44175   44178  -44166  -44160      16
   44169   44172  -44163  -44160      16   44427   44391  -44409  -44397      16
   44421   44424  -44403  -44382      16   44367   44400  -44382  -44403      16
   44361   44397  -44376  -44379      16   44358   44388  -44370  -44364      16
   44370   44355  -44364  -44379      16   44373   44376  -44361  -44355      16
   44367   44370  -44358  -44352      16   44361   44364  -44355  -44352      16
   44619   44583  -44601  -44589      16   44613   44616  -44595  -44574      16
   44559   44592  -44574  -44595      16   44553   44589  -44568  -44571      16
   44550   44580  -44562  -44556      16   44562   44547  -44556  -44571      16
   44565   44568  -44553  -44547      16   44559   44562  -44550  -44544      16
   44553   44556  -44547  -44544      16   44811   44775  -44793  -44781      16
   44805   44808  -44787  -44766      16   44751   44784  -44766  -44787      16
   44745   44781  -44760  -44763      16   44742   44772  -44754  -44748      16
   44754   44739  -44748  -44763      16   44757   44760  -44745  -44739      16
   44751   44754  -44742  -44736      16   44745   44748  -44739  -44736      16
   45003   44967  -44985  -44973      16   44997   45000  -44979  -44958      16
   44943   44976  -44958  -44979      16   44937   44973  -44952  -44955      16
   44934   44964  -44946  -44940      16   44946   44931  -44940  -44955      16
   44949   44952  -44937  -44931      16   44943   44946  -44934  -44928      16
   44937   44940  -44931  -44928      16   45195   45159  -45177  -45165      16
   45189   45192  -45171  -45150      16   45135   45168  -45150  -45171      16
   45129   45165  -45144  -45147      16   45126   45156  -45138  -45132      16
   45138   45123  -45132  -45147      16   45141   45144  -45129  -45123      16
   45135   45138  -45126  -45120      16   45129   45132  -45123  -45120      16
   45387   45351  -45369  -45357      16   45381   45384  -45363  -45342      16
   45327   45360  -45342  -45363      16   45321   45357  -45336  -45339      16
   45318   45348  -45330  -45324      16   45330   45315  -45324  -45339      16
   45333   45336  -45321  -45315      16   45327   45330  -45318  -45312      16
   45321   45324  -45315  -45312      16   45579   45543  -45561  -45549      16
   45573   45576  -45555  -45534      16   45519   45552  -45534  -45555      16
   45513   45549  -45528  -45531      16   45510   45540  -45522  -45516      16
   45522   45507  -45516  -45531      16   45525   45528  -45513  -45507      16
   45519   45522  -45510  -45504      16   45513   45516  -45507  -45504      16
   45771   45735  -45753  -45741      16   45765   45768  -45747  -45726      16
   45711   45744  -45726  -45747      16   45705   45741  -45720  -45723      16
   45702   45732  -45714  -45708      16   45714   45699  -45708  -45723      16
   45717   45720  -45705  -45699      16   45711   45714  -45702  -45696      16
   45705   45708  -45699  -45696      16   45963   45927  -45945  -45933      16
   45957   45960  -45939  -45918      16   45903   45936  -45918  -45939      16
   45897   45933  -45912  -45915      16   45894   45924  -45906  -45900      16
   45906   45891  -45900  -45915      16   45909   45912  -45897  -45891      16
   45903   45906  -45894  -45888      16   45897   45900  -45891  -45888      16
   46155   46119  -46137  -46125      16   46149   46152  -46131  -46110      16
   46095   46128  -46110  -46131      16   46089   46125  -46104  -46107      16
   46086   46116  -46098  -46092      16   46098   46083  -46092  -46107      16
   46101   46104  -46089  -46083      16   46095   46098  -46086  -46080      16
   46089   46092  -46083  -46080      16   46347   46311  -46329  -46317      16
   46341   46344  -46323  -46302      16   46287   46320  -46302  -46323      16
   46281   46317  -46296  -46299      16   46278   46308  -46290  -46284      16
   46290   46275  -46284  -46299      16   46293   46296  -46281  -46275      16
   46287   46290  -46278  -46272      16   46281   46284  -46275  -46272      16
   46539   46503  -46521  -46509      16   46533   46536  -46515  -46494      16
   46479   46512  -46494  -46515      16   46473   46509  -46488  -46491      16
   46470   46500  -46482  -46476      16   46482   46467  -46476  -46491      16
   46485   46488  -46473  -46467      16   46479   46482  -46470  -46464      16
   46473   46476  -46467  -46464      16   46731   46695  -46713  -46701      16
   46725   46728  -46707  -46686      16   46671   46704  -46686  -46707      16
   46665   46701  -46680  -46683      16   46662   46692  -46674  -46668      16
   46674   46659  -46668  -46683      16   46677   46680  -46665  -46659      16
   46671   46674  -46662  -46656      16   46665   46668  -46659  -46656      16
   46923   46887  -46905  -46893      16   46917   46920  -46899  -46878      16
   46863   46896  -46878  -46899      16   46857   46893  -46872  -46875      16
   46854   46884  -46866  -46860      16   46866   46851  -46860  -46875      16
   46869   46872  -46857  -46851      16   46863   46866  -46854  -46848      16
   46857   46860  -46851  -46848      16   47115   47079  -47097  -47085      16
   47109   47112  -47091  -47070      16   47055   47088  -47070  -47091      16
   47049   47085  -47064  -47067      16   47046   47076  -47058  -47052      16
   47058   47043  -47052  -47067      16   47061   47064  -47049  -47043      16
   47055   47058  -47046  -47040      16   47049   47052  -47043  -47040      16
   47307   47271  -47289  -47277      16   47301   47304  -47283  -47262      16
   47247   47280  -47262  -47283      16   47241   47277  -47256  -47259      16
   47238   47268  -47250  -47244      16   47250   47235  -47244  -47259      16
   47253   47256  -47241  -47235      16   47247   47250  -47238  -47232      16
   47241   47244  -47235  -47232      16   47499   47463  -47481  -47469      16
   47493   47496  -47475  -47454      16   47439   47472  -47454  -47475      16
   47433   47469  -47448  -47451      16   47430   47460  -47442  -47436      16
   47442   47427  -47436  -47451      16   47445   47448  -47433  -47427      16
   47439   47442  -47430  -47424      16   47433   47436  -47427  -47424      16
   47691   47655  -47673  -47661      16   47685   47688  -47667  -47646      16
   47631   47664  -47646  -47667      16   47625   47661  -47640  -47643      16
   47622   47652  -47634  -47628      16   47634   47619  -47628  -47643      16
   47637   47640  -47625  -47619      16   47631   47634  -47622  -47616      16
   47625   47628  -47619  -47616      16   47883   47847  -47865  -47853      16
   47877   47880  -47859  -47838      16   47823   47856  -47838  -47859      16
   47817   47853  -47832  -47835      16   47814   47844  -47826  -47820      16
   47826   47811  -47820  -47835      16   47829   47832  -47817  -47811      16
   47823   47826  -47814  -47808      16   47817   47820  -47811  -47808      16
   48075   48039  -48057  -48045      16   48069   48072  -48051  -48030      16
   48015   48048  -48030  -48051      16   48009   48045  -48024  -48027      16
   48006   48036  -48018  -48012      16   48018   48003  -48012  -48027      16
   48021   48024  -48009  -48003      16   48015   48018  -48006  -48000      16
   48009   48012  -48003  -48000      16   48267   48231  -48249  -48237      16
   48261   48264  -48243  -48222      16   48207   48240  -48222  -48243      16
   48201   48237  -48216  -48219      16   48198   48228  -48210  -48204      16
   48210   48195  -48204  -48219      16   48213   48216  -48201  -48195      16
   48207   48210  -48198  -48192      16   48201   48204  -48195  -48192      16
   48459   48423  -48441  -48429      16   48453   48456  -48435  -48414      16
   48399   48432  -48414  -48435      16   48393   48429  -48408  -48411      16
   48390   48420  -48402  -48396      16   48402   48387  -48396  -48411      16
   48405   48408  -48393  -48387      16   48399   48402  -48390  -48384      16
   48393   48396  -48387  -48384      16   48651   48615  -48633  -48621      16
   48645   48648  -48627  -48606      16   48591   48624  -48606  -48627      16
   48585   48621  -48600  -48603      16   48582   48612  -48594  -48588      16
   48594   48579  -48588  -48603      16   48597   48600  -48585  -48579      16
   48591   48594  -48582  -48576      16   48585   48588  -48579  -48576      16
   48843   48807  -48825  -48813      16   48837   48840  -48819  -48798      16
   48783   48816  -48798  -48819      16   48777   48813  -48792  -48795      16
   48774   48804  -48786  -48780      16   48786   48771  -48780  -48795      16
   48789   48792  -48777  -48771      16   48783   48786  -48774  -48768      16
   48777   48780  -48771  -48768      16   49035   48999  -49017  -49005      16
   49029   49032  -49011  -48990      16   48975   49008  -48990  -49011      16
   48969   49005  -48984  -48987      16   48966   48996  -48978  -48972      16
   48978   48963  -48972  -48987      16   48981   48984  -48969  -48963      16
   48975   48978  -48966  -48960      16   48969   48972  -48963  -48960      16
   49227   49191  -49209  -49197      16   49221   49224  -49203  -49182      16
   49167   49200  -49182  -49203      16   49161   49197  -49176  -49179      16
   49158   49188  -49170  -49164      16   49170   49155  -49164  -49179      16
   49173   49176  -49161  -49155      16   49167   49170  -49158  -49152      16
   49161   49164  -49155  -49152      16   49419   49383  -49401  -49389      16
   49413   49416  -49395  -49374      16   49359   49392  -49374  -49395      16
   49353   49389  -49368  -49371      16   49350   49380  -49362  -49356      16
   49362   49347  -49356  -49371      16   49365   49368  -49353  -49347      16
   49359   49362  -49350  -49344      16   49353   49356  -49347  -49344      16
   49611   49575  -49593  -49581      16   49605   49608  -49587  -49566      16
   49551   49584  -49566  -49587      16   49545   49581  -49560  -49563      16
   49542   49572  -49554  -49548      16   49554   49539  -49548  -49563      16
   49557   49560  -49545  -49539      16   49551   49554  -49542  -49536      16
   49545   49548  -49539  -49536      16   49803   49767  -49785  -49773      16
   49797   49800  -49779  -49758      16   49743   49776  -49758  -49779      16
   49737   49773  -49752  -49755      16   49734   49764  -49746  -49740      16
   49746   49731  -49740  -49755      16   49749   49752  -49737  -49731      16
   49743   49746  -49734  -49728      16   49737   49740  -49731  -49728      16
   49995   49959  -49977  -49965      16   49989   49992  -49971  -49950      16
   49935   49968  -49950  -49971      16   49929   49965  -49944  -49947      16
   49926   49956  -49938  -49932      16   49938   49923  -49932  -49947      16
   49941   49944  -49929  -49923      16   49935   49938  -49926  -49920      16
   49929   49932  -49923  -49920      16   50187   50151  -50169  -50157      16
   50181   50184  -50163  -50142      16   50127   50160  -50142  -50163      16
   50121   50157  -50136  -50139      16   50118   50148  -50130  -50124      16
   50130   50115  -50124  -50139      16   50133   50136  -50121  -50115      16
   50127   50130  -50118  -50112      16   50121   50124  -50115  -50112      16
   50379   50343  -50361  -50349      16   50373   50376  -50355  -50334      16
   50319   50352  -50334  -50355      16   50313   50349  -50328  -50331      16
   50310   50340  -50322  -50316      16   50322   50307  -50316  -50331      16
   50325   50328  -50313  -50307      16   50319   50322  -50310  -50304      16
   50313   50316  -50307  -50304      16   50571   50535  -50553  -50541      16
   50565   50568  -50547  -50526      16   50511   50544  -50526  -50547      16
   50505   50541  -50520  -50523      16   50502   50532  -50514  -50508      16
   50514   50499  -50508  -50523      16   50517   50520  -50505  -50499      16
   50511   50514  -50502  -50496      16   50505   50508  -50499  -50496      16
   50763   50727  -50745  -50733      16   50757   50760  -50739  -50718      16
   50703   50736  -50718  -50739      16   50697   50733  -50712  -50715      16
   50694   50724  -50706  -50700      16   50706   50691  -50700  -50715      16
   50709   50712  -50697  -50691      16   50703   50706  -50694  -50688      16
   50697   50700  -50691  -50688      16   50955   50919  -50937  -50925      16
   50949   50952  -50931  -50910      16   50895   50928  -50910  -50931      16
   50889   50925  -50904  -50907      16   50886   50916  -50898  -50892      16
   50898   50883  -50892  -50907      16   50901   50904  -50889  -50883      16
   50895   50898  -50886  -50880      16   50889   50892  -50883  -50880      16
   51147   51111  -51129  -51117      16   51141   51144  -51123  -51102      16
   51087   51120  -51102  -51123      16   51081   51117  -51096  -51099      16
   51078   51108  -51090  -51084      16   51090   51075  -51084  -51099      16
   51093   51096  -51081  -51075      16   51087   51090  -51078  -51072      16
   51081   51084  -51075  -51072      16   51339   51303  -51321  -51309      16
   51333   51336  -51315  -51294      16   51279   51312  -51294  -51315      16
   51273   51309  -51288  -51291      16   51270   51300  -51282  -51276      16
   51282   51267  -51276  -51291      16   51285   51288  -51273  -51267      16
   51279   51282  -51270  -51264      16   51273   51276  -51267  -51264      16
   51531   51495  -51513  -51501      16   51525   51528  -51507  -51486      16
   51471   51504  -51486  -51507      16   51465   51501  -51480  -51483      16
   51462   51492  -51474  -51468      16   51474   51459  -51468  -51483      16
   51477   51480  -51465  -51459      16   51471   51474  -51462  -51456      16
   51465   51468  -51459  -51456      16   51723   51687  -51705  -51693      16
   51717   51720  -51699  -51678      16   51663   51696  -51678  -51699      16
   51657   51693  -51672  -51675      16   51654   51684  -51666  -51660      16
   51666   51651  -51660  -51675      16   51669   51672  -51657  -51651      16
   51663   51666  -51654  -51648      16   51657   51660  -51651  -51648      16
   51915   51879  -51897  -51885      16   51909   51912  -51891  -51870      16
   51855   51888  -51870  -51891      16   51849   51885  -51864  -51867      16
   51846   51876  -51858  -51852      16   51858   51843  -51852  -51867      16
   51861   51864  -51849  -51843      16   51855   51858  -51846  -51840      16
   51849   51852  -51843  -51840      16   52107   52071  -52089  -52077      16
   52101   52104  -52083  -52062      16   52047   52080  -52062  -52083      16
   52041   52077  -52056  -52059      16   52038   52068  -52050  -52044      16
   52050   52035  -52044  -52059      16   52053   52056  -52041  -52035      16
   52047   52050  -52038  -52032      16   52041   52044  -52035  -52032      16
   52299   52263  -52281  -52269      16   52293   52296  -52275  -52254      16
   52239   52272  -52254  -52275      16   52233   52269  -52248  -52251      16
   52230   52260  -52242  -52236      16   52242   52227  -52236  -52251      16
   52245   52248  -52233  -52227      16   52239   52242  -52230  -52224      16
   52233   52236  -52227  -52224      16   52491   52455  -52473  -52461      16
   52485   52488  -52467  -52446      16   52431   52464  -52446  -52467      16
   52425   52461  -52440  -52443      16   52422   52452  -52434  -52428      16
   52434   52419  -52428  -52443      16   52437   52440  -52425  -52419      16
   52431   52434  -52422  -52416      16   52425   52428  -52419  -52416      16
   52683   52647  -52665  -52653      16   52677   52680  -52659  -52638      16
   52623   52656  -52638  -52659      16   52617   52653  -52632  -52635      16
   52614   52644  -52626  -52620      16   52626   52611  -52620  -52635      16
   52629   52632  -52617  -52611      16   52623   52626  -52614  -52608      16
   52617   52620  -52611  -52608      16   52875   52839  -52857  -52845      16
   52869   52872  -52851  -52830      16   52815   52848  -52830  -52851      16
   52809   52845  -52824  -52827      16   52806   52836  -52818  -52812      16
   52818   52803  -52812  -52827      16   52821   52824  -52809  -52803      16
   52815   52818  -52806  -52800      16   52809   52812  -52803  -52800      16
   53067   53031  -53049  -53037      16   53061   53064  -53043  -53022      16
   53007   53040  -53022  -53043      16   53001   53037  -53016  -53019      16
   52998   53028  -53010  -53004      16   53010   52995  -53004  -53019      16
   53013   53016  -53001  -52995      16   53007   53010  -52998  -52992      16
   53001   53004  -52995  -52992      16   53259   53223  -53241  -53229      16
   53253   53256  -53235  -53214      16   53199   53232  -53214  -53235      16
   53193   53229  -53208  -53211      16   53190   53220  -53202  -53196      16
   53202   53187  -53196  -53211      16   53205   53208  -53193  -53187      16
   53199   53202  -53190  -53184      16   53193   53196  -53187  -53184      16
   53451   53415  -53433  -53421      16   53445   53448  -53427  -53406      16
   53391   53424  -53406  -53427      16   53385   53421  -53400  -53403      16
   53382   53412  -53394  -53388      16   53394   53379  -53388  -53403      16
   53397   53400  -53385  -53379      16   53391   53394  -53382  -53376      16
   53385   53388  -53379  -53376      16   53643   53607  -53625  -53613      16
   53637   53640  -53619  -53598      16   53583   53616  -53598  -53619      16
   53577   53613  -53592  -53595      16   53574   53604  -53586  -53580      16
   53586   53571  -53580  -53595      16   53589   53592  -53577  -53571      16
   53583   53586  -53574  -53568      16   53577   53580  -53571  -53568      16
   53835   53799  -53817  -53805      16   53829   53832  -53811  -53790      16
   53775   53808  -53790  -53811      16   53769   53805  -53784  -53787      16
   53766   53796  -53778  -53772      16   53778   53763  -53772  -53787      16
   53781   53784  -53769  -53763      16   53775   53778  -53766  -53760      16
   53769   53772  -53763  -53760      16   54027   53991  -54009  -53997      16
   54021   54024  -54003  -53982      16   53967   54000  -53982  -54003      16
   53961   53997  -53976  -53979      16   53958   53988  -53970  -53964      16
   53970   53955  -53964  -53979      16   53973   53976  -53961  -53955      16
   53967   53970  -53958  -53952      16   53961   53964  -53955  -53952      16
   54219   54183  -54201  -54189      16   54213   54216  -54195  -54174      16
   54159   54192  -54174  -54195      16   54153   54189  -54168  -54171      16
   54150   54180  -54162  -54156      16   54162   54147  -54156  -54171      16
   54165   54168  -54153  -54147      16   54159   54162  -54150  -54144      16
   54153   54156  -54147  -54144      16   54411   54375  -54393  -54381      16
   54405   54408  -54387  -54366      16   54351   54384  -54366  -54387      16
   54345   54381  -54360  -54363      16   54342   54372  -54354  -54348      16
   54354   54339  -54348  -54363      16   54357   54360  -54345  -54339      16
   54351   54354  -54342  -54336      16   54345   54348  -54339  -54336      16
   54603   54567  -54585  -54573      16   54597   54600  -54579  -54558      16
   54543   54576  -54558  -54579      16   54537   54573  -54552  -54555      16
   54534   54564  -54546  -54540      16   54546   54531  -54540  -54555      16
   54549   54552  -54537  -54531      16   54543   54546  -54534  -54528      16
   54537   54540  -54531  -54528      16   54795   54759  -54777  -54765      16
   54789   54792  -54771  -54750      16   54735   54768  -54750  -54771      16
   54729   54765  -54744  -54747      16   54726   54756  -54738  -54732      16
   54738   54723  -54732  -54747      16   54741   54744  -54729  -54723      16
   54735   54738  -54726  -54720      16   54729   54732  -54723  -54720      16
   54987   54951  -54969  -54957      16   54981   54984  -54963  -54942      16
   54927   54960  -54942  -54963      16   54921   54957  -54936  -54939      16
   54918   54948  -54930  -54924      16   54930   54915  -54924  -54939      16
   54933   54936  -54921  -54915      16   54927   54930  -54918  -54912      16
   54921   54924  -54915  -54912      16   55179   55143  -55161  -55149      16
   55173   55176  -55155  -55134      16   55119   55152  -55134  -55155      16
   55113   55149  -55128  -55131      16   55110   55140  -55122  -55116      16
   55122   55107  -55116  -55131      16   55125   55128  -55113  -55107      16
   55119   55122  -55110  -55104      16   55113   55116  -55107  -55104      16
%FLAG EXCLUDED_ATOMS_LIST                                                       
%FORMAT(10I8)                                                                   
       2       3       4       5       6       7       8       9      10      11
      12      13       3       4       5       6       7       8       9      10
      13      14      15      16       4       5       6       7      10      11
      12      13      17      18      19       5       7       8       9      10
      14      15      16      20      21      22       6       7       8       9
      10      13      16      17      19       7      11      12      13      17
      18      23      24      25       9      10      11      12      13      17
      19      23       9      10      14      15      16      20      21      26
      10      14      15      16      20      22      26      13      16      20
      22      12      13      17      18      19      23      24      25      27
      28      29      30      17      18      17      18      19      23      15
      16      20      21      22      26      31      32      33      20      21
      20      21      22      26      31      32      33      18      19      23
      24      25      23      24      25      27      28      29      30      34
      35      36      23      21      22      26      31      32      33      37
      38      39      26      26       0      25      27      28      29      30
      34      35      40      27      28      29      30      34      36      40
      31      32      33      37      38      39      41      42      43      28
      29      34      35      36      40      34      35      30      34      35
      36      40      34      36      32      33      37      38      39      41
      42      43      44      45      46      33      37      38      39      37
      38      39      35      36      40      40      40      38      39      41
      42      43      44      45      46      47      48      49      39      41
      42      43      41      42      43       0      42      43      44      45
      46      47      48      49      50      51      52      43      44      45
      46      44      45      46      45      46      47      48      49      50
      51      52      53      54      55      46      47      48      49      47
      48      49      48      49      50      51      52      53      54      55
      56      57      58      49      50      51      52      50      51      52
      51      52      53      54      55      56      57      58      59      60
      61      52      53      54      55      53      54      55      54      55
      56      57      58      55      56      57      58      56      57      58
      59      60      61      62      63      64      57      58      59      60
      61      62      63      64      58      59      60      61      59      60
      61      60      61      62      63      64      61      62      63      64
      62      63      64      63      64      64       0      66      67      68
      69      70      71      72      73      74      75      76      77      67
      68      69      70      71      72      73      74      77      78      79
      80      68      69      70      71      74      75      76      77      81
      82      83      69      71      72      73      74      78      79      80
      84      85      86      70      71      72      73      74      77      80
      81      83      71      75      76      77      81      82      87      88
      89      73      74      75      76      77      81      83      87      73
      74      78      79      80      84      85      90      74      78      79
      80      84      86      90      77      80      84      86      76      77
      81      82      83      87      88      89      91      92      93      94
      81      82      81      82      83      87      79      80      84      85
      86      90      95      96      97      84      85      84      85      86
      90      95      96      97      82      83      87      88      89      87
      88      89      91      92      93      94      98      99     100      87
      85      86      90      95      96      97     101     102     103      90
      90       0      89      91      92      93      94      98      99     104
      91      92      93      94      98     100     104      95      96      97
     101     102     103     105     106     107      92      93      98      99
     100     104      98      99      94      98      99     100     104      98
     100      96      97     101     102     103     105     106     107     108
     109     110      97     101     102     103     101     102     103      99
     100     104     104     104     102     103     105     106     107     108
     109     110     111     112     113     103     105     106     107     105
     106     107       0     106     107     108     109     110     111     112
     113     114     115     116     107     108     109     110     108     109
     110     109     110     111     112     113     114     115     116     117
     118     119     110     111     112     113     111     112     113     112
     113     114     115     116     117     118     119     120     121     122
     113     114     115     116     114     115     116     115     116     117
     118     119     120     121     122     123     124     125     116     117
     118     119     117     118     119     118     119     120     121     122
     119     120     121     122     120     121     122     123     124     125
     126     127     128     121     122     123     124     125     126     127
     128     122     123     124     125     123     124     125     124     125
     126     127     128     125     126     127     128     126     127     128
     127     128     128       0     130     131     132     133     134     135
     136     137     138     139     140     141     131     132     133     134
     135     136     137     138     141     142     143     144     132     133
     134     135     138     139     140     141     145     146     147     133
     135     136     137     138     142     143     144     148     149     150
     134     135     136     137     138     141     144     145     147     135
     139     140     141     145     146     151     152     153     137     138
     139     140     141     145     147     151     137     138     142     143
     144     148     149     154     138     142     143     144     148     150
     154     141     144     148     150     140     141     145     146     147
     151     152     153     155     156     157     158     145     146     145
     146     147     151     143     144     148     149     150     154     159
     160     161     148     149     148     149     150     154     159     160
     161     146     147     151     152     153     151     152     153     155
     156     157     158     162     163     164     151     149     150     154
     159     160     161     165     166     167     154     154       0     153
     155     156     157     158     162     163     168     155     156     157
     158     162     164     168     159     160     161     165     166     167
     169     170     171     156     157     162     163     164     168     162
     163     158     162     163     164     168     162     164     160     161
     165     166     167     169     170     171     172     173     174     161
     165     166     167     165     166     167     163     164     168     168
     168     166     167     169     170     171     172     173     174     175
     176     177     167     169     170     171     169     170     171       0
     170     171     172     173     174     175     176     177     178     179
     180     171     172     173     174     172     173     174     173     174
     175     176     177     178     179     180     181     182     183     174
     175     176     177     175     176     177     176     177     178     179
     180     181     182     183     184     185     186     177     178     179
     180     178     179     180     179     180     181     182     183     184
     185     186     187     188     189     180     181     182     183     181
     182     183     182     183     184     185     186     183     184     185
     186     184     185     186     187     188     189     190     191     192
     185     186     187     188     189     190     191     192     186     187
     188     189     187     188     189     188     189     190     191     192
     189     190     191     192     190     191     192     191     192     192
       0     194     195     196     197     198     199     200     201     202
     203     204     205     195     196     197     198     199     200     201
     202     205     206     207     208     196     197     198     199     202
     203     204     205     209     210     211     197     199     200     201
     202     206     207     208     212     213     214     198     199     200
     201     202     205     208     209     211     199     203     204     205
     209     210     215     216     217     201     202     203     204     205
     209     211     215     201     202     206     207     208     212     213
     218     202     206     207     208     212     214     218     205     208
     212     214     204     205     209     210     211     215     216     217
     219     220     221     222     209     210     209     210     211     215
     207     208     212     213     214     218     223     224     225     212
     213     212     213     214     218     223     224     225     210     211
     215     216     217     215     216     217     219     220     221     222
     226     227     228     215     213     214     218     223     224     225
     229     230     231     218     218       0     217     219     220     221
     222     226     227     232     219     220     221     222     226     228
     232     223     224     225     229     230     231     233     234     235
     220     221     226     227     228     232     226     227     222     226
     227     228     232     226     228     224     225     229     230     231
     233     234     235     236     237     238     225     229     230     231
     229     230     231     227     228     232     232     232     230     231
     233     234     235     236     237     238     239     240     241     231
     233     234     235     233     234     235       0     234     235     236
     237     238     239     240     241     242     243     244     235     236
     237     238     236     237     238     237     238     239     240     241
     242     243     244     245     246     247     238     239     240     241
     239     240     241     240     241     242     243     244     245     246
     247     248     249     250     241     242     243     244     242     243
     244     243     244     245     246     247     248     249     250     251
     252     253     244     245     246     247     245     246     247     246
     247     248     249     250     247     248     249     250     248     249
     250     251     252     253     254     255     256     249     250     251
     252     253     254     255     256     250     251     252     253     251
     252     253     252     253     254     255     256     253     254     255
     256     254     255     256     255     256     256       0     258     259
     260     261     262     263     264     265     266     267     268     269
     259     260     261     262     263     264     265     266     269     270
     271     272     260     261     262     263     266     267     268     269
     273     274     275     261     263     264     265     266     270     271
     272     276     277     278     262     263     264     265     266     269
     272     273     275     263     267     268     269     273     274     279
     280     281     265     266     267     268     269     273     275     279
     265     266     270     271     272     276     277     282     266     270
     271     272     276     278     282     269     272     276     278     268
     269     273     274     275     279     280     281     283     284     285
     286     273     274     273     274     275     279     271     272     276
     277     278     282     287     288     289     276     277     276     277
     278     282     287     288     289     274     275     279     280     281
     279     280     281     283     284     285     286     290     291     292
     279     277     278     282     287     288     289     293     294     295
     282     282       0     281     283     284     285     286     290     291
     296     283     284     285     286     290     292     296     287     288
     289     293     294     295     297     298     299     284     285     290
     291     292     296     290     291     286     290     291     292     296
     290     292     288     289     293     294     295     297     298     299
     300     301     302     289     293     294     295     293     294     295
     291     292     296     296     296     294     295     297     298     299
     300     301     302     303     304     305     295     297     298     299
     297     298     299       0     298     299     300     301     302     303
     304     305     306     307     308     299     300     301     302     300
     301     302     301     302     303     304     305     306     307     308
     309     310     311     302     303     304     305     303     304     305
     304     305     306     307     308     309     310     311     312     313
     314     305     306     307     308     306     307     308     307     308
     309     310     311     312     313     314     315     316     317     308
     309     310     311     309     310     311     310     311     312     313
     314     311     312     313     314     312     313     314     315     316
     317     318     319     320     313     314     315     316     317     318
     319     320     314     315     316     317     315     316     317     316
     317     318     319     320     317     318     319     320     318     319
     320     319     320     320       0     322     323     324     325     326
     327     328     329     330     331     332     333     323     324     325
     326     327     328     329     330     333     334     335     336     324
     325     326     327     330     331     332     333     337     338     339
     325     327     328     329     330     334     335     336     340     341
     342     326     327     328     329     330     333     336     337     339
     327     331     332     333     337     338     343     344     345     329
     330     331     332     333     337     339     343     329     330     334
     335     336     340     341     346     330     334     335     336     340
     342     346     333     336     340     342     332     333     337     338
     339     343     344     345     347     348     349     350     337     338
     337     338     339     343     335     336     340     341     342     346
     351     352     353     340     341     340     341     342     346     351
     352     353     338     339     343     344     345     343     344     345
     347     348     349     350     354     355     356     343     341     342
     346     351     352     353     357     358     359     346     346       0
     345     347     348     349     350     354     355     360     347     348
     349     350     354     356     360     351     352     353     357     358
     359     361     362     363     348     349     354     355     356     360
     354     355     350     354     355     356     360     354     356     352
     353     357     358     359     361     362     363     364     365     366
     353     357     358     359     357     358     359     355     356     360
     360     360     358     359     361     362     363     364     365     366
     367     368     369     359     361     362     363     361     362     363
       0     362     363     364     365     366     367     368     369     370
     371     372     363     364     365     366     364     365     366     365
     366     367     368     369     370     371     372     373     374     375
     366     367     368     369     367     368     369     368     369     370
     371     372     373     374     375     376     377     378     369     370
     371     372     370     371     372     371     372     373     374     375
     376     377     378     379     380     381     372     373     374     375
     373     374     375     374     375     376     377     378     375     376
     377     378     376     377     378     379     380     381     382     383
     384     377     378     379     380     381     382     383     384     378
     379     380     381     379     380     381     380     381     382     383
     384     381     382     383     384     382     383     384     383     384
     384       0     386     387     388     389     390     391     392     393
     394     395     396     397     387     388     389     390     391     392
     393     394     397     398     399     400     388     389     390     391
     394     395     396     397     401     402     403     389     391     392
     393     394     398     399     400     404     405     406     390     391
     392     393     394     397     400     401     403     391     395     396
     397     401     402     407     408     409     393     394     395     396
     397     401     403     407     393     394     398     399     400     404
     405     410     394     398     399     400     404     406     410     397
     400     404     406     396     397     401     402     403     407     408
     409     411     412     413     414     401     402     401     402     403
     407     399     400     404     405     406     410     415     416     417
     404     405     404     405     406     410     415     416     417     402
     403     407     408     409     407     408     409     411     412     413
     414     418     419     420     407     405     406     410     415     416
     417     421     422     423     410     410       0     409     411     412
     413     414     418     419     424     411     412     413     414     418
     420     424     415     416     417     421     422     423     425     426
     427     412     413     418     419     420     424     418     419     414
     418     419     420     424     418     420     416     417     421     422
     423     425     426     427     428     429     430     417     421     422
     423     421     422     423     419     420     424     424     424     422
     423     425     426     427     428     429     430     431     432     433
     423     425     426     427     425     426     427       0     426     427
     428     429     430     431     432     433     434     435     436     427
     428     429     430     428     429     430     429     430     431     432
     433     434     435     436     437     438     439     430     431     432
     433     431     432     433     432     433     434     435     436     437
     438     439     440     441     442     433     434     435     436     434
     435     436     435     436     437     438     439     440     441     442
     443     444     445     436     437     438     439     437     438     439
     438     439     440     441     442     439     440     441     442     440
     441     442     443     444     445     446     447     448     441     442
     443     444     445     446     447     448     442     443     444     445
     443     444     445     444     445     446     447     448     445     446
     447     448     446     447     448     447     448     448       0     450
     451     452     453     454     455     456     457     458     459     460
     461     451     452     453     454     455     456     457     458     461
     462     463     464     452     453     454     455     458     459     460
     461     465     466     467     453     455     456     457     458     462
     463     464     468     469     470     454     455     456     457     458
     461     464     465     467     455     459     460     461     465     466
     471     472     473     457     458     459     460     461     465     467
     471     457     458     462     463     464     468     469     474     458
     462     463     464     468     470     474     461     464     468     470
     460     461     465     466     467     471     472     473     475     476
     477     478     465     466     465     466     467     471     463     464
     468     469     470     474     479     480     481     468     469     468
     469     470     474     479     480     481     466     467     471     472
     473     471     472     473     475     476     477     478     482     483
     484     471     469     470     474     479     480     481     485     486
     487     474     474       0     473     475     476     477     478     482
     483     488     475     476     477     478     482     484     488     479
     480     481     485     486     487     489     490     491     476     477
     482     483     484     488     482     483     478     482     483     484
     488     482     484     480     481     485     486     487     489     490
     491     492     493     494     481     485     486     487     485     486
     487     483     484     488     488     488     486     487     489     490
     491     492     493     494     495     496     497     487     489     490
     491     489     490     491       0     490     491     492     493     494
     495     496     497     498     499     500     491     492     493     494
     492     493     494     493     494     495     496     497     498     499
     500     501     502     503     494     495     496     497     495     496
     497     496     497     498     499     500     501     502     503     504
     505     506     497     498     499     500     498     499     500     499
     500     501     502     503     504     505     506     507     508     509
     500     501     502     503     501     502     503     502     503     504
     505     506     503     504     505     506     504     505     506     507
     508     509     510     511     512     505     506     507     508     509
     510     511     512     506     507     508     509     507     508     509
     508     509     510     511     512     509     510     511     512     510
     511     512     511     512     512       0     514     515     516     517
     518     519     520     521     522     523     524     525     515     516
     517     518     519     520     521     522     525     526     527     528
     516     517     518     519     522     523     524     525     529     530
     531     517     519     520     521     522     526     527     528     532
     533     534     518     519     520     521     522     525     528     529
     531     519     523     524     525     529     530     535     536     537
     521     522     523     524     525     529     531     535     521     522
     526     527     528     532     533     538     522     526     527     528
     532     534     538     525     528     532     534     524     525     529
     530     531     535     536     537     539     540     541     542     529
     530     529     530     531     535     527     528     532     533     534
     538     543     544     545     532     533     532     533     534     538
     543     544     545     530     531     535     536     537     535     536
     537     539     540     541     542     546     547     548     535     533
     534     538     543     544     545     549     550     551     538     538
       0     537     539     540     541     542     546     547     552     539
     540     541     542     546     548     552     543     544     545     549
     550     551     553     554     555     540     541     546     547     548
     552     546     547     542     546     547     548     552     546     548
     544     545     549     550     551     553     554     555     556     557
     558     545     549     550     551     549     550     551     547     548
     552     552     552     550     551     553     554     555     556     557
     558     559     560     561     551     553     554     555     553     554
     555       0     554     555     556     557     558     559     560     561
     562     563     564     555     556     557     558     556     557     558
     557     558     559     560     561     562     563     564     565     566
     567     558     559     560     561     559     560     561     560     561
     562     563     564     565     566     567     568     569     570     561
     562     563     564     562     563     564     563     564     565     566
     567     568     569     570     571     572     573     564     565     566
     567     565     566     567     566     567     568     569     570     567
     568     569     570     568     569     570     571     572     573     574
     575     576     569     570     571     572     573     574     575     576
     570     571     572     573     571     572     573     572     573     574
     575     576     573     574     575     576     574     575     576     575
     576     576       0     578     579     580     581     582     583     584
     585     586     587     588     589     579     580     581     582     583
     584     585     586     589     590     591     592     580     581     582
     583     586     587     588     589     593     594     595     581     583
     584     585     586     590     591     592     596     597     598     582
     583     584     585     586     589     592     593     595     583     587
     588     589     593     594     599     600     601     585     586     587
     588     589     593     595     599     585     586     590     591     592
     596     597     602     586     590     591     592     596     598     602
     589     592     596     598     588     589     593     594     595     599
     600     601     603     604     605     606     593     594     593     594
     595     599     591     592     596     597     598     602     607     608
     609     596     597     596     597     598     602     607     608     609
     594     595     599     600     601     599     600     601     603     604
     605     606     610     611     612     599     597     598     602     607
     608     609     613     614     615     602     602       0     601     603
     604     605     606     610     611     616     603     604     605     606
     610     612     616     607     608     609     613     614     615     617
     618     619     604     605     610     611     612     616     610     611
     606     610     611     612     616     610     612     608     609     613
     614     615     617     618     619     620     621     622     609     613
     614     615     613     614     615     611     612     616     616     616
     614     615     617     618     619     620     621     622     623     624
     625     615     617     618     619     617     618     619       0     618
     619     620     621     622     623     624     625     626     627     628
     619     620     621     622     620     621     622     621     622     623
     624     625     626     627     628     629     630     631     622     623
     624     625     623     624     625     624     625     626     627     628
     629     630     631     632     633     634     625     626     627     628
     626     627     628     627     628     629     630     631     632     633
     634     635     636     637     628     629     630     631     629     630
     631     630     631     632     633     634     631     632     633     634
     632     633     634     635     636     637     638     639     640     633
     634     635     636     637     638     639     640     634     635     636
     637     635     636     637     636     637     638     639     640     637
     638     639     640     638     639     640     639     640     640       0
     642     643     644     645     646     647     648     649     650     651
     652     653     643     644     645     646     647     648     649     650
     653     654     655     656     644     645     646     647     650     651
     652     653     657     658     659     645     647     648     649     650
     654     655     656     660     661     662     646     647     648     649
     650     653     656     657     659     647     651     652     653     657
     658     663     664     665     649     650     651     652     653     657
     659     663     649     650     654     655     656     660     661     666
     650     654     655     656     660     662     666     653     656     660
     662     652     653     657     658     659     663     664     665     667
     668     669     670     657     658     657     658     659     663     655
     656     660     661     662     666     671     672     673     660     661
     660     661     662     666     671     672     673     658     659     663
     664     665     663     664     665     667     668     669     670     674
     675     676     663     661     662     666     671     672     673     677
     678     679     666     666       0     665     667     668     669     670
     674     675     680     667     668     669     670     674     676     680
     671     672     673     677     678     679     681     682     683     668
     669     674     675     676     680     674     675     670     674     675
     676     680     674     676     672     673     677     678     679     681
     682     683     684     685     686     673     677     678     679     677
     678     679     675     676     680     680     680     678     679     681
     682     683     684     685     686     687     688     689     679     681
     682     683     681     682     683       0     682     683     684     685
     686     687     688     689     690     691     692     683     684     685
     686     684     685     686     685     686     687     688     689     690
     691     692     693     694     695     686     687     688     689     687
     688     689     688     689     690     691     692     693     694     695
     696     697     698     689     690     691     692     690     691     692
     691     692     693     694     695     696     697     698     699     700
     701     692     693     694     695     693     694     695     694     695
     696     697     698     695     696     697     698     696     697     698
     699     700     701     702     703     704     697     698     699     700
     701     702     703     704     698     699     700     701     699     700
     701     700     701     702     703     704     701     702     703     704
     702     703     704     703     704     704       0     706     707     708
     709     710     711     712     713     714     715     716     717     707
     708     709     710     711     712     713     714     717     718     719
     720     708     709     710     711     714     715     716     717     721
     722     723     709     711     712     713     714     718     719     720
     724     725     726     710     711     712     713     714     717     720
     721     723     711     715     716     717     721     722     727     728
     729     713     714     715     716     717     721     723     727     713
     714     718     719     720     724     725     730     714     718     719
     720     724     726     730     717     720     724     726     716     717
     721     722     723     727     728     729     731     732     733     734
     721     722     721     722     723     727     719     720     724     725
     726     730     735     736     737     724     725     724     725     726
     730     735     736     737     722     723     727     728     729     727
     728     729     731     732     733     734     738     739     740     727
     725     726     730     735     736     737     741     742     743     730
     730       0     729     731     732     733     734     738     739     744
     731     732     733     734     738     740     744     735     736     737
     741     742     743     745     746     747     732     733     738     739
     740     744     738     739     734     738     739     740     744     738
     740     736     737     741     742     743     745     746     747     748
     749     750     737     741     742     743     741     742     743     739
     740     744     744     744     742     743     745     746     747     748
     749     750     751     752     753     743     745     746     747     745
     746     747       0     746     747     748     749     750     751     752
     753     754     755     756     747     748     749     750     748     749
     750     749     750     751     752     753     754     755     756     757
     758     759     750     751     752     753     751     752     753     752
     753     754     755     756     757     758     759     760     761     762
     753     754     755     756     754     755     756     755     756     757
     758     759     760     761     762     763     764     765     756     757
     758     759     757     758     759     758     759     760     761     762
     759     760     761     762     760     761     762     763     764     765
     766     767     768     761     762     763     764     765     766     767
     768     762     763     764     765     763     764     765     764     765
     766     767     768     765     766     767     768     766     767     768
     767     768     768       0     770     771     772     773     774     775
     776     777     778     779     780     781     771     772     773     774
     775     776     777     778     781     782     783     784     772     773
     774     775     778     779     780     781     785     786     787     773
     775     776     777     778     782     783     784     788     789     790
     774     775     776     777     778     781     784     785     787     775
     779     780     781     785     786     791     792     793     777     778
     779     780     781     785     787     791     777     778     782     783
     784     788     789     794     778     782     783     784     788     790
     794     781     784     788     790     780     781     785     786     787
     791     792     793     795     796     797     798     785     786     785
     786     787     791     783     784     788     789     790     794     799
     800     801     788     789     788     789     790     794     799     800
     801     786     787     791     792     793     791     792     793     795
     796     797     798     802     803     804     791     789     790     794
     799     800     801     805     806     807     794     794       0     793
     795     796     797     798     802     803     808     795     796     797
     798     802     804     808     799     800     801     805     806     807
     809     810     811     796     797     802     803     804     808     802
     803     798     802     803     804     808     802     804     800     801
     805     806     807     809     810     811     812     813     814     801
     805     806     807     805     806     807     803     804     808     808
     808     806     807     809     810     811     812     813     814     815
     816     817     807     809     810     811     809     810     811       0
     810     811     812     813     814     815     816     817     818     819
     820     811     812     813     814     812     813     814     813     814
     815     816     817     818     819     820     821     822     823     814
     815     816     817     815     816     817     816     817     818     819
     820     821     822     823     824     825     826     817     818     819
     820     818     819     820     819     820     821     822     823     824
     825     826     827     828     829     820     821     822     823     821
     822     823     822     823     824     825     826     823     824     825
     826     824     825     826     827     828     829     830     831     832
     825     826     827     828     829     830     831     832     826     827
     828     829     827     828     829     828     829     830     831     832
     829     830     831     832     830     831     832     831     832     832
       0     834     835     836     837     838     839     840     841     842
     843     844     845     835     836     837     838     839     840     841
     842     845     846     847     848     836     837     838     839     842
     843     844     845     849     850     851     837     839     840     841
     842     846     847     848     852     853     854     838     839     840
     841     842     845     848     849     851     839     843     844     845
     849     850     855     856     857     841     842     843     844     845
     849     851     855     841     842     846     847     848     852     853
     858     842     846     847     848     852     854     858     845     848
     852     854     844     845     849     850     851     855     856     857
     859     860     861     862     849     850     849     850     851     855
     847     848     852     853     854     858     863     864     865     852
     853     852     853     854     858     863     864     865     850     851
     855     856     857     855     856     857     859     860     861     862
     866     867     868     855     853     854     858     863     864     865
     869     870     871     858     858       0     857     859     860     861
     862     866     867     872     859     860     861     862     866     868
     872     863     864     865     869     870     871     873     874     875
     860     861     866     867     868     872     866     867     862     866
     867     868     872     866     868     864     865     869     870     871
     873     874     875     876     877     878     865     869     870     871
     869     870     871     867     868     872     872     872     870     871
     873     874     875     876     877     878     879     880     881     871
     873     874     875     873     874     875       0     874     875     876
     877     878     879     880     881     882     883     884     875     876
     877     878     876     877     878     877     878     879     880     881
     882     883     884     885     886     887     878     879     880     881
     879     880     881     880     881     882     883     884     885     886
     887     888     889     890     881     882     883     884     882     883
     884     883     884     885     886     887     888     889     890     891
     892     893     884     885     886     887     885     886     887     886
     887     888     889     890     887     888     889     890     888     889
     890     891     892     893     894     895     896     889     890     891
     892     893     894     895     896     890     891     892     893     891
     892     893     892     893     894     895     896     893     894     895
     896     894     895     896     895     896     896       0     898     899
     900     901     902     903     904     905     906     907     908     909
     899     900     901     902     903     904     905     906     909     910
     911     912     900     901     902     903     906     907     908     909
     913     914     915     901     903     904     905     906     910     911
     912     916     917     918     902     903     904     905     906     909
     912     913     915     903     907     908     909     913     914     919
     920     921     905     906     907     908     909     913     915     919
     905     906     910     911     912     916     917     922     906     910
     911     912     916     918     922     909     912     916     918     908
     909     913     914     915     919     920     921     923     924     925
     926     913     914     913     914     915     919     911     912     916
     917     918     922     927     928     929     916     917     916     917
     918     922     927     928     929     914     915     919     920     921
     919     920     921     923     924     925     926     930     931     932
     919     917     918     922     927     928     929     933     934     935
     922     922       0     921     923     924     925     926     930     931
     936     923     924     925     926     930     932     936     927     928
     929     933     934     935     937     938     939     924     925     930
     931     932     936     930     931     926     930     931     932     936
     930     932     928     929     933     934     935     937     938     939
     940     941     942     929     933     934     935     933     934     935
     931     932     936     936     936     934     935     937     938     939
     940     941     942     943     944     945     935     937     938     939
     937     938     939       0     938     939     940     941     942     943
     944     945     946     947     948     939     940     941     942     940
     941     942     941     942     943     944     945     946     947     948
     949     950     951     942     943     944     945     943     944     945
     944     945     946     947     948     949     950     951     952     953
     954     945     946     947     948     946     947     948     947     948
     949     950     951     952     953     954     955     956     957     948
     949     950     951     949     950     951     950     951     952     953
     954     951     952     953     954     952     953     954     955     956
     957     958     959     960     953     954     955     956     957     958
     959     960     954     955     956     957     955     956     957     956
     957     958     959     960     957     958     959     960     958     959
     960     959     960     960       0     962     963     964     965     966
     967     968     969     970     971     972     973     963     964     965
     966     967     968     969     970     973     974     975     976     964
     965     966     967     970     971     972     973     977     978     979
     965     967     968     969     970     974     975     976     980     981
     982     966     967     968     969     970     973     976     977     979
     967     971     972     973     977     978     983     984     985     969
     970     971     972     973     977     979     983     969     970     974
     975     976     980     981     986     970     974     975     976     980
     982     986     973     976     980     982     972     973     977     978
     979     983     984     985     987     988     989     990     977     978
     977     978     979     983     975     976     980     981     982     986
     991     992     993     980     981     980     981     982     986     991
     992     993     978     979     983     984     985     983     984     985
     987     988     989     990     994     995     996     983     981     982
     986     991     992     993     997     998     999     986     986       0
     985     987     988     989     990     994     995    1000     987     988
     989     990     994     996    1000     991     992     993     997     998
     999    1001    1002    1003     988     989     994     995     996    1000
     994     995     990     994     995     996    1000     994     996     992
     993     997     998     999    1001    1002    1003    1004    1005    1006
     993     997     998     999     997     998     999     995     996    1000
    1000    1000     998     999    1001    1002    1003    1004    1005    1006
    1007    1008    1009     999    1001    1002    1003    1001    1002    1003
       0    1002    1003    1004    1005    1006    1007    1008    1009    1010
    1011    1012    1003    1004    1005    1006    1004    1005    1006    1005
    1006    1007    1008    1009    1010    1011    1012    1013    1014    1015
    1006    1007    1008    1009    1007    1008    1009    1008    1009    1010
    1011    1012    1013    1014    1015    1016    1017    1018    1009    1010
    1011    1012    1010    1011    1012    1011    1012    1013    1014    1015
    1016    1017    1018    1019    1020    1021    1012    1013    1014    1015
    1013    1014    1015    1014    1015    1016    1017    1018    1015    1016
    1017    1018    1016    1017    1018    1019    1020    1021    1022    1023
    1024    1017    1018    1019    1020    1021    1022    1023    1024    1018
    1019    1020    1021    1019    1020    1021    1020    1021    1022    1023
    1024    1021    1022    1023    1024    1022    1023    1024    1023    1024
    1024       0    1026    1027    1028    1029    1030    1031    1032    1033
    1034    1035    1036    1037    1027    1028    1029    1030    1031    1032
    1033    1034    1037    1038    1039    1040    1028    1029    1030    1031
    1034    1035    1036    1037    1041    1042    1043    1029    1031    1032
    1033    1034    1038    1039    1040    1044    1045    1046    1030    1031
    1032    1033    1034    1037    1040    1041    1043    1031    1035    1036
    1037    1041    1042    1047    1048    1049    1033    1034    1035    1036
    1037    1041    1043    1047    1033    1034    1038    1039    1040    1044
    1045    1050    1034    1038    1039    1040    1044    1046    1050    1037
    1040    1044    1046    1036    1037    1041    1042    1043    1047    1048
    1049    1051    1052    1053    1054    1041    1042    1041    1042    1043
    1047    1039    1040    1044    1045    1046    1050    1055    1056    1057
    1044    1045    1044    1045    1046    1050    1055    1056    1057    1042
    1043    1047    1048    1049    1047    1048    1049    1051    1052    1053
    1054    1058    1059    1060    1047    1045    1046    1050    1055    1056
    1057    1061    1062    1063    1050    1050       0    1049    1051    1052
    1053    1054    1058    1059    1064    1051    1052    1053    1054    1058
    1060    1064    1055    1056    1057    1061    1062    1063    1065    1066
    1067    1052    1053    1058    1059    1060    1064    1058    1059    1054
    1058    1059    1060    1064    1058    1060    1056    1057    1061    1062
    1063    1065    1066    1067    1068    1069    1070    1057    1061    1062
    1063    1061    1062    1063    1059    1060    1064    1064    1064    1062
    1063    1065    1066    1067    1068    1069    1070    1071    1072    1073
    1063    1065    1066    1067    1065    1066    1067       0    1066    1067
    1068    1069    1070    1071    1072    1073    1074    1075    1076    1067
    1068    1069    1070    1068    1069    1070    1069    1070    1071    1072
    1073    1074    1075    1076    1077    1078    1079    1070    1071    1072
    1073    1071    1072    1073    1072    1073    1074    1075    1076    1077
    1078    1079    1080    1081    1082    1073    1074    1075    1076    1074
    1075    1076    1075    1076    1077    1078    1079    1080    1081    1082
    1083    1084    1085    1076    1077    1078    1079    1077    1078    1079
    1078    1079    1080    1081    1082    1079    1080    1081    1082    1080
    1081    1082    1083    1084    1085    1086    1087    1088    1081    1082
    1083    1084    1085    1086    1087    1088    1082    1083    1084    1085
    1083    1084    1085    1084    1085    1086    1087    1088    1085    1086
    1087    1088    1086    1087    1088    1087    1088    1088       0    1090
    1091    1092    1093    1094    1095    1096    1097    1098    1099    1100
    1101    1091    1092    1093    1094    1095    1096    1097    1098    1101
    1102    1103    1104    1092    1093    1094    1095    1098    1099    1100
    1101    1105    1106    1107    1093    1095    1096    1097    1098    1102
    1103    1104    1108    1109    1110    1094    1095    1096    1097    1098
    1101    1104    1105    1107    1095    1099    1100    1101    1105    1106
    1111    1112    1113    1097    1098    1099    1100    1101    1105    1107
    1111    1097    1098    1102    1103    1104    1108    1109    1114    1098
    1102    1103    1104    1108    1110    1114    1101    1104    1108    1110
    1100    1101    1105    1106    1107    1111    1112    1113    1115    1116
    1117    1118    1105    1106    1105    1106    1107    1111    1103    1104
    1108    1109    1110    1114    1119    1120    1121    1108    1109    1108
    1109    1110    1114    1119    1120    1121    1106    1107    1111    1112
    1113    1111    1112    1113    1115    1116    1117    1118    1122    1123
    1124    1111    1109    1110    1114    1119    1120    1121    1125    1126
    1127    1114    1114       0    1113    1115    1116    1117    1118    1122
    1123    1128    1115    1116    1117    1118    1122    1124    1128    1119
    1120    1121    1125    1126    1127    1129    1130    1131    1116    1117
    1122    1123    1124    1128    1122    1123    1118    1122    1123    1124
    1128    1122    1124    1120    1121    1125    1126    1127    1129    1130
    1131    1132    1133    1134    1121    1125    1126    1127    1125    1126
    1127    1123    1124    1128    1128    1128    1126    1127    1129    1130
    1131    1132    1133    1134    1135    1136    1137    1127    1129    1130
    1131    1129    1130    1131       0    1130    1131    1132    1133    1134
    1135    1136    1137    1138    1139    1140    1131    1132    1133    1134
    1132    1133    1134    1133    1134    1135    1136    1137    1138    1139
    1140    1141    1142    1143    1134    1135    1136    1137    1135    1136
    1137    1136    1137    1138    1139    1140    1141    1142    1143    1144
    1145    1146    1137    1138    1139    1140    1138    1139    1140    1139
    1140    1141    1142    1143    1144    1145    1146    1147    1148    1149
    1140    1141    1142    1143    1141    1142    1143    1142    1143    1144
    1145    1146    1143    1144    1145    1146    1144    1145    1146    1147
    1148    1149    1150    1151    1152    1145    1146    1147    1148    1149
    1150    1151    1152    1146    1147    1148    1149    1147    1148    1149
    1148    1149    1150    1151    1152    1149    1150    1151    1152    1150
    1151    1152    1151    1152    1152       0    1154    1155    1156    1157
    1158    1159    1160    1161    1162    1163    1164    1165    1155    1156
    1157    1158    1159    1160    1161    1162    1165    1166    1167    1168
    1156    1157    1158    1159    1162    1163    1164    1165    1169    1170
    1171    1157    1159    1160    1161    1162    1166    1167    1168    1172
    1173    1174    1158    1159    1160    1161    1162    1165    1168    1169
    1171    1159    1163    1164    1165    1169    1170    1175    1176    1177
    1161    1162    1163    1164    1165    1169    1171    1175    1161    1162
    1166    1167    1168    1172    1173    1178    1162    1166    1167    1168
    1172    1174    1178    1165    1168    1172    1174    1164    1165    1169
    1170    1171    1175    1176    1177    1179    1180    1181    1182    1169
    1170    1169    1170    1171    1175    1167    1168    1172    1173    1174
    1178    1183    1184    1185    1172    1173    1172    1173    1174    1178
    1183    1184    1185    1170    1171    1175    1176    1177    1175    1176
    1177    1179    1180    1181    1182    1186    1187    1188    1175    1173
    1174    1178    1183    1184    1185    1189    1190    1191    1178    1178
       0    1177    1179    1180    1181    1182    1186    1187    1192    1179
    1180    1181    1182    1186    1188    1192    1183    1184    1185    1189
    1190    1191    1193    1194    1195    1180    1181    1186    1187    1188
    1192    1186    1187    1182    1186    1187    1188    1192    1186    1188
    1184    1185    1189    1190    1191    1193    1194    1195    1196    1197
    1198    1185    1189    1190    1191    1189    1190    1191    1187    1188
    1192    1192    1192    1190    1191    1193    1194    1195    1196    1197
    1198    1199    1200    1201    1191    1193    1194    1195    1193    1194
    1195       0    1194    1195    1196    1197    1198    1199    1200    1201
    1202    1203    1204    1195    1196    1197    1198    1196    1197    1198
    1197    1198    1199    1200    1201    1202    1203    1204    1205    1206
    1207    1198    1199    1200    1201    1199    1200    1201    1200    1201
    1202    1203    1204    1205    1206    1207    1208    1209    1210    1201
    1202    1203    1204    1202    1203    1204    1203    1204    1205    1206
    1207    1208    1209    1210    1211    1212    1213    1204    1205    1206
    1207    1205    1206    1207    1206    1207    1208    1209    1210    1207
    1208    1209    1210    1208    1209    1210    1211    1212    1213    1214
    1215    1216    1209    1210    1211    1212    1213    1214    1215    1216
    1210    1211    1212    1213    1211    1212    1213    1212    1213    1214
    1215    1216    1213    1214    1215    1216    1214    1215    1216    1215
    1216    1216       0    1218    1219    1220    1221    1222    1223    1224
    1225    1226    1227    1228    1229    1219    1220    1221    1222    1223
    1224    1225    1226    1229    1230    1231    1232    1220    1221    1222
    1223    1226    1227    1228    1229    1233    1234    1235    1221    1223
    1224    1225    1226    1230    1231    1232    1236    1237    1238    1222
    1223    1224    1225    1226    1229    1232    1233    1235    1223    1227
    1228    1229    1233    1234    1239    1240    1241    1225    1226    1227
    1228    1229    1233    1235    1239    1225    1226    1230    1231    1232
    1236    1237    1242    1226    1230    1231    1232    1236    1238    1242
    1229    1232    1236    1238    1228    1229    1233    1234    1235    1239
    1240    1241    1243    1244    1245    1246    1233    1234    1233    1234
    1235    1239    1231    1232    1236    1237    1238    1242    1247    1248
    1249    1236    1237    1236    1237    1238    1242    1247    1248    1249
    1234    1235    1239    1240    1241    1239    1240    1241    1243    1244
    1245    1246    1250    1251    1252    1239    1237    1238    1242    1247
    1248    1249    1253    1254    1255    1242    1242       0    1241    1243
    1244    1245    1246    1250    1251    1256    1243    1244    1245    1246
    1250    1252    1256    1247    1248    1249    1253    1254    1255    1257
    1258    1259    1244    1245    1250    1251    1252    1256    1250    1251
    1246    1250    1251    1252    1256    1250    1252    1248    1249    1253
    1254    1255    1257    1258    1259    1260    1261    1262    1249    1253
    1254    1255    1253    1254    1255    1251    1252    1256    1256    1256
    1254    1255    1257    1258    1259    1260    1261    1262    1263    1264
    1265    1255    1257    1258    1259    1257    1258    1259       0    1258
    1259    1260    1261    1262    1263    1264    1265    1266    1267    1268
    1259    1260    1261    1262    1260    1261    1262    1261    1262    1263
    1264    1265    1266    1267    1268    1269    1270    1271    1262    1263
    1264    1265    1263    1264    1265    1264    1265    1266    1267    1268
    1269    1270    1271    1272    1273    1274    1265    1266    1267    1268
    1266    1267    1268    1267    1268    1269    1270    1271    1272    1273
    1274    1275    1276    1277    1268    1269    1270    1271    1269    1270
    1271    1270    1271    1272    1273    1274    1271    1272    1273    1274
    1272    1273    1274    1275    1276    1277    1278    1279    1280    1273
    1274    1275    1276    1277    1278    1279    1280    1274    1275    1276
    1277    1275    1276    1277    1276    1277    1278    1279    1280    1277
    1278    1279    1280    1278    1279    1280    1279    1280    1280       0
    1282    1283    1284    1285    1286    1287    1288    1289    1290    1291
    1292    1293    1283    1284    1285    1286    1287    1288    1289    1290
    1293    1294    1295    1296    1284    1285    1286    1287    1290    1291
    1292    1293    1297    1298    1299    1285    1287    1288    1289    1290
    1294    1295    1296    1300    1301    1302    1286    1287    1288    1289
    1290    1293    1296    1297    1299    1287    1291    1292    1293    1297
    1298    1303    1304    1305    1289    1290    1291    1292    1293    1297
    1299    1303    1289    1290    1294    1295    1296    1300    1301    1306
    1290    1294    1295    1296    1300    1302    1306    1293    1296    1300
    1302    1292    1293    1297    1298    1299    1303    1304    1305    1307
    1308    1309    1310    1297    1298    1297    1298    1299    1303    1295
    1296    1300    1301    1302    1306    1311    1312    1313    1300    1301
    1300    1301    1302    1306    1311    1312    1313    1298    1299    1303
    1304    1305    1303    1304    1305    1307    1308    1309    1310    1314
    1315    1316    1303    1301    1302    1306    1311    1312    1313    1317
    1318    1319    1306    1306       0    1305    1307    1308    1309    1310
    1314    1315    1320    1307    1308    1309    1310    1314    1316    1320
    1311    1312    1313    1317    1318    1319    1321    1322    1323    1308
    1309    1314    1315    1316    1320    1314    1315    1310    1314    1315
    1316    1320    1314    1316    1312    1313    1317    1318    1319    1321
    1322    1323    1324    1325    1326    1313    1317    1318    1319    1317
    1318    1319    1315    1316    1320    1320    1320    1318    1319    1321
    1322    1323    1324    1325    1326    1327    1328    1329    1319    1321
    1322    1323    1321    1322    1323       0    1322    1323    1324    1325
    1326    1327    1328    1329    1330    1331    1332    1323    1324    1325
    1326    1324    1325    1326    1325    1326    1327    1328    1329    1330
    1331    1332    1333    1334    1335    1326    1327    1328    1329    1327
    1328    1329    1328    1329    1330    1331    1332    1333    1334    1335
    1336    1337    1338    1329    1330    1331    1332    1330    1331    1332
    1331    1332    1333    1334    1335    1336    1337    1338    1339    1340
    1341    1332    1333    1334    1335    1333    1334    1335    1334    1335
    1336    1337    1338    1335    1336    1337    1338    1336    1337    1338
    1339    1340    1341    1342    1343    1344    1337    1338    1339    1340
    1341    1342    1343    1344    1338    1339    1340    1341    1339    1340
    1341    1340    1341    1342    1343    1344    1341    1342    1343    1344
    1342    1343    1344    1343    1344    1344       0    1346    1347    1348
    1349    1350    1351    1352    1353    1354    1355    1356    1357    1347
    1348    1349    1350    1351    1352    1353    1354    1357    1358    1359
    1360    1348    1349    1350    1351    1354    1355    1356    1357    1361
    1362    1363    1349    1351    1352    1353    1354    1358    1359    1360
    1364    1365    1366    1350    1351    1352    1353    1354    1357    1360
    1361    1363    1351    1355    1356    1357    1361    1362    1367    1368
    1369    1353    1354    1355    1356    1357    1361    1363    1367    1353
    1354    1358    1359    1360    1364    1365    1370    1354    1358    1359
    1360    1364    1366    1370    1357    1360    1364    1366    1356    1357
    1361    1362    1363    1367    1368    1369    1371    1372    1373    1374
    1361    1362    1361    1362    1363    1367    1359    1360    1364    1365
    1366    1370    1375    1376    1377    1364    1365    1364    1365    1366
    1370    1375    1376    1377    1362    1363    1367    1368    1369    1367
    1368    1369    1371    1372    1373    1374    1378    1379    1380    1367
    1365    1366    1370    1375    1376    1377    1381    1382    1383    1370
    1370       0    1369    1371    1372    1373    1374    1378    1379    1384
    1371    1372    1373    1374    1378    1380    1384    1375    1376    1377
    1381    1382    1383    1385    1386    1387    1372    1373    1378    1379
    1380    1384    1378    1379    1374    1378    1379    1380    1384    1378
    1380    1376    1377    1381    1382    1383    1385    1386    1387    1388
    1389    1390    1377    1381    1382    1383    1381    1382    1383    1379
    1380    1384    1384    1384    1382    1383    1385    1386    1387    1388
    1389    1390    1391    1392    1393    1383    1385    1386    1387    1385
    1386    1387       0    1386    1387    1388    1389    1390    1391    1392
    1393    1394    1395    1396    1387    1388    1389    1390    1388    1389
    1390    1389    1390    1391    1392    1393    1394    1395    1396    1397
    1398    1399    1390    1391    1392    1393    1391    1392    1393    1392
    1393    1394    1395    1396    1397    1398    1399    1400    1401    1402
    1393    1394    1395    1396    1394    1395    1396    1395    1396    1397
    1398    1399    1400    1401    1402    1403    1404    1405    1396    1397
    1398    1399    1397    1398    1399    1398    1399    1400    1401    1402
    1399    1400    1401    1402    1400    1401    1402    1403    1404    1405
    1406    1407    1408    1401    1402    1403    1404    1405    1406    1407
    1408    1402    1403    1404    1405    1403    1404    1405    1404    1405
    1406    1407    1408    1405    1406    1407    1408    1406    1407    1408
    1407    1408    1408       0    1410    1411    1412    1413    1414    1415
    1416    1417    1418    1419    1420    1421    1411    1412    1413    1414
    1415    1416    1417    1418    1421    1422    1423    1424    1412    1413
    1414    1415    1418    1419    1420    1421    1425    1426    1427    1413
    1415    1416    1417    1418    1422    1423    1424    1428    1429    1430
    1414    1415    1416    1417    1418    1421    1424    1425    1427    1415
    1419    1420    1421    1425    1426    1431    1432    1433    1417    1418
    1419    1420    1421    1425    1427    1431    1417    1418    1422    1423
    1424    1428    1429    1434    1418    1422    1423    1424    1428    1430
    1434    1421    1424    1428    1430    1420    1421    1425    1426    1427
    1431    1432    1433    1435    1436    1437    1438    1425    1426    1425
    1426    1427    1431    1423    1424    1428    1429    1430    1434    1439
    1440    1441    1428    1429    1428    1429    1430    1434    1439    1440
    1441    1426    1427    1431    1432    1433    1431    1432    1433    1435
    1436    1437    1438    1442    1443    1444    1431    1429    1430    1434
    1439    1440    1441    1445    1446    1447    1434    1434       0    1433
    1435    1436    1437    1438    1442    1443    1448    1435    1436    1437
    1438    1442    1444    1448    1439    1440    1441    1445    1446    1447
    1449    1450    1451    1436    1437    1442    1443    1444    1448    1442
    1443    1438    1442    1443    1444    1448    1442    1444    1440    1441
    1445    1446    1447    1449    1450    1451    1452    1453    1454    1441
    1445    1446    1447    1445    1446    1447    1443    1444    1448    1448
    1448    1446    1447    1449    1450    1451    1452    1453    1454    1455
    1456    1457    1447    1449    1450    1451    1449    1450    1451       0
    1450    1451    1452    1453    1454    1455    1456    1457    1458    1459
    1460    1451    1452    1453    1454    1452    1453    1454    1453    1454
    1455    1456    1457    1458    1459    1460    1461    1462    1463    1454
    1455    1456    1457    1455    1456    1457    1456    1457    1458    1459
    1460    1461    1462    1463    1464    1465    1466    1457    1458    1459
    1460    1458    1459    1460    1459    1460    1461    1462    1463    1464
    1465    1466    1467    1468    1469    1460    1461    1462    1463    1461
    1462    1463    1462    1463    1464    1465    1466    1463    1464    1465
    1466    1464    1465    1466    1467    1468    1469    1470    1471    1472
    1465    1466    1467    1468    1469    1470    1471    1472    1466    1467
    1468    1469    1467    1468    1469    1468    1469    1470    1471    1472
    1469    1470    1471    1472    1470    1471    1472    1471    1472    1472
       0    1474    1475    1476    1477    1478    1479    1480    1481    1482
    1483    1484    1485    1475    1476    1477    1478    1479    1480    1481
    1482    1485    1486    1487    1488    1476    1477    1478    1479    1482
    1483    1484    1485    1489    1490    1491    1477    1479    1480    1481
    1482    1486    1487    1488    1492    1493    1494    1478    1479    1480
    1481    1482    1485    1488    1489    1491    1479    1483    1484    1485
    1489    1490    1495    1496    1497    1481    1482    1483    1484    1485
    1489    1491    1495    1481    1482    1486    1487    1488    1492    1493
    1498    1482    1486    1487    1488    1492    1494    1498    1485    1488
    1492    1494    1484    1485    1489    1490    1491    1495    1496    1497
    1499    1500    1501    1502    1489    1490    1489    1490    1491    1495
    1487    1488    1492    1493    1494    1498    1503    1504    1505    1492
    1493    1492    1493    1494    1498    1503    1504    1505    1490    1491
    1495    1496    1497    1495    1496    1497    1499    1500    1501    1502
    1506    1507    1508    1495    1493    1494    1498    1503    1504    1505
    1509    1510    1511    1498    1498       0    1497    1499    1500    1501
    1502    1506    1507    1512    1499    1500    1501    1502    1506    1508
    1512    1503    1504    1505    1509    1510    1511    1513    1514    1515
    1500    1501    1506    1507    1508    1512    1506    1507    1502    1506
    1507    1508    1512    1506    1508    1504    1505    1509    1510    1511
    1513    1514    1515    1516    1517    1518    1505    1509    1510    1511
    1509    1510    1511    1507    1508    1512    1512    1512    1510    1511
    1513    1514    1515    1516    1517    1518    1519    1520    1521    1511
    1513    1514    1515    1513    1514    1515       0    1514    1515    1516
    1517    1518    1519    1520    1521    1522    1523    1524    1515    1516
    1517    1518    1516    1517    1518    1517    1518    1519    1520    1521
    1522    1523    1524    1525    1526    1527    1518    1519    1520    1521
    1519    1520    1521    1520    1521    1522    1523    1524    1525    1526
    1527    1528    1529    1530    1521    1522    1523    1524    1522    1523
    1524    1523    1524    1525    1526    1527    1528    1529    1530    1531
    1532    1533    1524    1525    1526    1527    1525    1526    1527    1526
    1527    1528    1529    1530    1527    1528    1529    1530    1528    1529
    1530    1531    1532    1533    1534    1535    1536    1529    1530    1531
    1532    1533    1534    1535    1536    1530    1531    1532    1533    1531
    1532    1533    1532    1533    1534    1535    1536    1533    1534    1535
    1536    1534    1535    1536    1535    1536    1536       0    1538    1539
    1540    1541    1542    1543    1544    1545    1546    1547    1548    1549
    1539    1540    1541    1542    1543    1544    1545    1546    1549    1550
    1551    1552    1540    1541    1542    1543    1546    1547    1548    1549
    1553    1554    1555    1541    1543    1544    1545    1546    1550    1551
    1552    1556    1557    1558    1542    1543    1544    1545    1546    1549
    1552    1553    1555    1543    1547    1548    1549    1553    1554    1559
    1560    1561    1545    1546    1547    1548    1549    1553    1555    1559
    1545    1546    1550    1551    1552    1556    1557    1562    1546    1550
    1551    1552    1556    1558    1562    1549    1552    1556    1558    1548
    1549    1553    1554    1555    1559    1560    1561    1563    1564    1565
    1566    1553    1554    1553    1554    1555    1559    1551    1552    1556
    1557    1558    1562    1567    1568    1569    1556    1557    1556    1557
    1558    1562    1567    1568    1569    1554    1555    1559    1560    1561
    1559    1560    1561    1563    1564    1565    1566    1570    1571    1572
    1559    1557    1558    1562    1567    1568    1569    1573    1574    1575
    1562    1562       0    1561    1563    1564    1565    1566    1570    1571
    1576    1563    1564    1565    1566    1570    1572    1576    1567    1568
    1569    1573    1574    1575    1577    1578    1579    1564    1565    1570
    1571    1572    1576    1570    1571    1566    1570    1571    1572    1576
    1570    1572    1568    1569    1573    1574    1575    1577    1578    1579
    1580    1581    1582    1569    1573    1574    1575    1573    1574    1575
    1571    1572    1576    1576    1576    1574    1575    1577    1578    1579
    1580    1581    1582    1583    1584    1585    1575    1577    1578    1579
    1577    1578    1579       0    1578    1579    1580    1581    1582    1583
    1584    1585    1586    1587    1588    1579    1580    1581    1582    1580
    1581    1582    1581    1582    1583    1584    1585    1586    1587    1588
    1589    1590    1591    1582    1583    1584    1585    1583    1584    1585
    1584    1585    1586    1587    1588    1589    1590    1591    1592    1593
    1594    1585    1586    1587    1588    1586    1587    1588    1587    1588
    1589    1590    1591    1592    1593    1594    1595    1596    1597    1588
    1589    1590    1591    1589    1590    1591    1590    1591    1592    1593
    1594    1591    1592    1593    1594    1592    1593    1594    1595    1596
    1597    1598    1599    1600    1593    1594    1595    1596    1597    1598
    1599    1600    1594    1595    1596    1597    1595    1596    1597    1596
    1597    1598    1599    1600    1597    1598    1599    1600    1598    1599
    1600    1599    1600    1600       0    1602    1603    1604    1605    1606
    1607    1608    1609    1610    1611    1612    1613    1603    1604    1605
    1606    1607    1608    1609    1610    1613    1614    1615    1616    1604
    1605    1606    1607    1610    1611    1612    1613    1617    1618    1619
    1605    1607    1608    1609    1610    1614    1615    1616    1620    1621
    1622    1606    1607    1608    1609    1610    1613    1616    1617    1619
    1607    1611    1612    1613    1617    1618    1623    1624    1625    1609
    1610    1611    1612    1613    1617    1619    1623    1609    1610    1614
    1615    1616    1620    1621    1626    1610    1614    1615    1616    1620
    1622    1626    1613    1616    1620    1622    1612    1613    1617    1618
    1619    1623    1624    1625    1627    1628    1629    1630    1617    1618
    1617    1618    1619    1623    1615    1616    1620    1621    1622    1626
    1631    1632    1633    1620    1621    1620    1621    1622    1626    1631
    1632    1633    1618    1619    1623    1624    1625    1623    1624    1625
    1627    1628    1629    1630    1634    1635    1636    1623    1621    1622
    1626    1631    1632    1633    1637    1638    1639    1626    1626       0
    1625    1627    1628    1629    1630    1634    1635    1640    1627    1628
    1629    1630    1634    1636    1640    1631    1632    1633    1637    1638
    1639    1641    1642    1643    1628    1629    1634    1635    1636    1640
    1634    1635    1630    1634    1635    1636    1640    1634    1636    1632
    1633    1637    1638    1639    1641    1642    1643    1644    1645    1646
    1633    1637    1638    1639    1637    1638    1639    1635    1636    1640
    1640    1640    1638    1639    1641    1642    1643    1644    1645    1646
    1647    1648    1649    1639    1641    1642    1643    1641    1642    1643
       0    1642    1643    1644    1645    1646    1647    1648    1649    1650
    1651    1652    1643    1644    1645    1646    1644    1645    1646    1645
    1646    1647    1648    1649    1650    1651    1652    1653    1654    1655
    1646    1647    1648    1649    1647    1648    1649    1648    1649    1650
    1651    1652    1653    1654    1655    1656    1657    1658    1649    1650
    1651    1652    1650    1651    1652    1651    1652    1653    1654    1655
    1656    1657    1658    1659    1660    1661    1652    1653    1654    1655
    1653    1654    1655    1654    1655    1656    1657    1658    1655    1656
    1657    1658    1656    1657    1658    1659    1660    1661    1662    1663
    1664    1657    1658    1659    1660    1661    1662    1663    1664    1658
    1659    1660    1661    1659    1660    1661    1660    1661    1662    1663
    1664    1661    1662    1663    1664    1662    1663    1664    1663    1664
    1664       0    1666    1667    1668    1669    1670    1671    1672    1673
    1674    1675    1676    1677    1667    1668    1669    1670    1671    1672
    1673    1674    1677    1678    1679    1680    1668    1669    1670    1671
    1674    1675    1676    1677    1681    1682    1683    1669    1671    1672
    1673    1674    1678    1679    1680    1684    1685    1686    1670    1671
    1672    1673    1674    1677    1680    1681    1683    1671    1675    1676
    1677    1681    1682    1687    1688    1689    1673    1674    1675    1676
    1677    1681    1683    1687    1673    1674    1678    1679    1680    1684
    1685    1690    1674    1678    1679    1680    1684    1686    1690    1677
    1680    1684    1686    1676    1677    1681    1682    1683    1687    1688
    1689    1691    1692    1693    1694    1681    1682    1681    1682    1683
    1687    1679    1680    1684    1685    1686    1690    1695    1696    1697
    1684    1685    1684    1685    1686    1690    1695    1696    1697    1682
    1683    1687    1688    1689    1687    1688    1689    1691    1692    1693
    1694    1698    1699    1700    1687    1685    1686    1690    1695    1696
    1697    1701    1702    1703    1690    1690       0    1689    1691    1692
    1693    1694    1698    1699    1704    1691    1692    1693    1694    1698
    1700    1704    1695    1696    1697    1701    1702    1703    1705    1706
    1707    1692    1693    1698    1699    1700    1704    1698    1699    1694
    1698    1699    1700    1704    1698    1700    1696    1697    1701    1702
    1703    1705    1706    1707    1708    1709    1710    1697    1701    1702
    1703    1701    1702    1703    1699    1700    1704    1704    1704    1702
    1703    1705    1706    1707    1708    1709    1710    1711    1712    1713
    1703    1705    1706    1707    1705    1706    1707       0    1706    1707
    1708    1709    1710    1711    1712    1713    1714    1715    1716    1707
    1708    1709    1710    1708    1709    1710    1709    1710    1711    1712
    1713    1714    1715    1716    1717    1718    1719    1710    1711    1712
    1713    1711    1712    1713    1712    1713    1714    1715    1716    1717
    1718    1719    1720    1721    1722    1713    1714    1715    1716    1714
    1715    1716    1715    1716    1717    1718    1719    1720    1721    1722
    1723    1724    1725    1716    1717    1718    1719    1717    1718    1719
    1718    1719    1720    1721    1722    1719    1720    1721    1722    1720
    1721    1722    1723    1724    1725    1726    1727    1728    1721    1722
    1723    1724    1725    1726    1727    1728    1722    1723    1724    1725
    1723    1724    1725    1724    1725    1726    1727    1728    1725    1726
    1727    1728    1726    1727    1728    1727    1728    1728       0    1730
    1731    1732    1733    1734    1735    1736    1737    1738    1739    1740
    1741    1731    1732    1733    1734    1735    1736    1737    1738    1741
    1742    1743    1744    1732    1733    1734    1735    1738    1739    1740
    1741    1745    1746    1747    1733    1735    1736    1737    1738    1742
    1743    1744    1748    1749    1750    1734    1735    1736    1737    1738
    1741    1744    1745    1747    1735    1739    1740    1741    1745    1746
    1751    1752    1753    1737    1738    1739    1740    1741    1745    1747
    1751    1737    1738    1742    1743    1744    1748    1749    1754    1738
    1742    1743    1744    1748    1750    1754    1741    1744    1748    1750
    1740    1741    1745    1746    1747    1751    1752    1753    1755    1756
    1757    1758    1745    1746    1745    1746    1747    1751    1743    1744
    1748    1749    1750    1754    1759    1760    1761    1748    1749    1748
    1749    1750    1754    1759    1760    1761    1746    1747    1751    1752
    1753    1751    1752    1753    1755    1756    1757    1758    1762    1763
    1764    1751    1749    1750    1754    1759    1760    1761    1765    1766
    1767    1754    1754       0    1753    1755    1756    1757    1758    1762
    1763    1768    1755    1756    1757    1758    1762    1764    1768    1759
    1760    1761    1765    1766    1767    1769    1770    1771    1756    1757
    1762    1763    1764    1768    1762    1763    1758    1762    1763    1764
    1768    1762    1764    1760    1761    1765    1766    1767    1769    1770
    1771    1772    1773    1774    1761    1765    1766    1767    1765    1766
    1767    1763    1764    1768    1768    1768    1766    1767    1769    1770
    1771    1772    1773    1774    1775    1776    1777    1767    1769    1770
    1771    1769    1770    1771       0    1770    1771    1772    1773    1774
    1775    1776    1777    1778    1779    1780    1771    1772    1773    1774
    1772    1773    1774    1773    1774    1775    1776    1777    1778    1779
    1780    1781    1782    1783    1774    1775    1776    1777    1775    1776
    1777    1776    1777    1778    1779    1780    1781    1782    1783    1784
    1785    1786    1777    1778    1779    1780    1778    1779    1780    1779
    1780    1781    1782    1783    1784    1785    1786    1787    1788    1789
    1780    1781    1782    1783    1781    1782    1783    1782    1783    1784
    1785    1786    1783    1784    1785    1786    1784    1785    1786    1787
    1788    1789    1790    1791    1792    1785    1786    1787    1788    1789
    1790    1791    1792    1786    1787    1788    1789    1787    1788    1789
    1788    1789    1790    1791    1792    1789    1790    1791    1792    1790
    1791    1792    1791    1792    1792       0    1794    1795    1796    1797
    1798    1799    1800    1801    1802    1803    1804    1805    1795    1796
    1797    1798    1799    1800    1801    1802    1805    1806    1807    1808
    1796    1797    1798    1799    1802    1803    1804    1805    1809    1810
    1811    1797    1799    1800    1801    1802    1806    1807    1808    1812
    1813    1814    1798    1799    1800    1801    1802    1805    1808    1809
    1811    1799    1803    1804    1805    1809    1810    1815    1816    1817
    1801    1802    1803    1804    1805    1809    1811    1815    1801    1802
    1806    1807    1808    1812    1813    1818    1802    1806    1807    1808
    1812    1814    1818    1805    1808    1812    1814    1804    1805    1809
    1810    1811    1815    1816    1817    1819    1820    1821    1822    1809
    1810    1809    1810    1811    1815    1807    1808    1812    1813    1814
    1818    1823    1824    1825    1812    1813    1812    1813    1814    1818
    1823    1824    1825    1810    1811    1815    1816    1817    1815    1816
    1817    1819    1820    1821    1822    1826    1827    1828    1815    1813
    1814    1818    1823    1824    1825    1829    1830    1831    1818    1818
       0    1817    1819    1820    1821    1822    1826    1827    1832    1819
    1820    1821    1822    1826    1828    1832    1823    1824    1825    1829
    1830    1831    1833    1834    1835    1820    1821    1826    1827    1828
    1832    1826    1827    1822    1826    1827    1828    1832    1826    1828
    1824    1825    1829    1830    1831    1833    1834    1835    1836    1837
    1838    1825    1829    1830    1831    1829    1830    1831    1827    1828
    1832    1832    1832    1830    1831    1833    1834    1835    1836    1837
    1838    1839    1840    1841    1831    1833    1834    1835    1833    1834
    1835       0    1834    1835    1836    1837    1838    1839    1840    1841
    1842    1843    1844    1835    1836    1837    1838    1836    1837    1838
    1837    1838    1839    1840    1841    1842    1843    1844    1845    1846
    1847    1838    1839    1840    1841    1839    1840    1841    1840    1841
    1842    1843    1844    1845    1846    1847    1848    1849    1850    1841
    1842    1843    1844    1842    1843    1844    1843    1844    1845    1846
    1847    1848    1849    1850    1851    1852    1853    1844    1845    1846
    1847    1845    1846    1847    1846    1847    1848    1849    1850    1847
    1848    1849    1850    1848    1849    1850    1851    1852    1853    1854
    1855    1856    1849    1850    1851    1852    1853    1854    1855    1856
    1850    1851    1852    1853    1851    1852    1853    1852    1853    1854
    1855    1856    1853    1854    1855    1856    1854    1855    1856    1855
    1856    1856       0    1858    1859    1860    1861    1862    1863    1864
    1865    1866    1867    1868    1869    1859    1860    1861    1862    1863
    1864    1865    1866    1869    1870    1871    1872    1860    1861    1862
    1863    1866    1867    1868    1869    1873    1874    1875    1861    1863
    1864    1865    1866    1870    1871    1872    1876    1877    1878    1862
    1863    1864    1865    1866    1869    1872    1873    1875    1863    1867
    1868    1869    1873    1874    1879    1880    1881    1865    1866    1867
    1868    1869    1873    1875    1879    1865    1866    1870    1871    1872
    1876    1877    1882    1866    1870    1871    1872    1876    1878    1882
    1869    1872    1876    1878    1868    1869    1873    1874    1875    1879
    1880    1881    1883    1884    1885    1886    1873    1874    1873    1874
    1875    1879    1871    1872    1876    1877    1878    1882    1887    1888
    1889    1876    1877    1876    1877    1878    1882    1887    1888    1889
    1874    1875    1879    1880    1881    1879    1880    1881    1883    1884
    1885    1886    1890    1891    1892    1879    1877    1878    1882    1887
    1888    1889    1893    1894    1895    1882    1882       0    1881    1883
    1884    1885    1886    1890    1891    1896    1883    1884    1885    1886
    1890    1892    1896    1887    1888    1889    1893    1894    1895    1897
    1898    1899    1884    1885    1890    1891    1892    1896    1890    1891
    1886    1890    1891    1892    1896    1890    1892    1888    1889    1893
    1894    1895    1897    1898    1899    1900    1901    1902    1889    1893
    1894    1895    1893    1894    1895    1891    1892    1896    1896    1896
    1894    1895    1897    1898    1899    1900    1901    1902    1903    1904
    1905    1895    1897    1898    1899    1897    1898    1899       0    1898
    1899    1900    1901    1902    1903    1904    1905    1906    1907    1908
    1899    1900    1901    1902    1900    1901    1902    1901    1902    1903
    1904    1905    1906    1907    1908    1909    1910    1911    1902    1903
    1904    1905    1903    1904    1905    1904    1905    1906    1907    1908
    1909    1910    1911    1912    1913    1914    1905    1906    1907    1908
    1906    1907    1908    1907    1908    1909    1910    1911    1912    1913
    1914    1915    1916    1917    1908    1909    1910    1911    1909    1910
    1911    1910    1911    1912    1913    1914    1911    1912    1913    1914
    1912    1913    1914    1915    1916    1917    1918    1919    1920    1913
    1914    1915    1916    1917    1918    1919    1920    1914    1915    1916
    1917    1915    1916    1917    1916    1917    1918    1919    1920    1917
    1918    1919    1920    1918    1919    1920    1919    1920    1920       0
    1922    1923    1924    1925    1926    1927    1928    1929    1930    1931
    1932    1933    1923    1924    1925    1926    1927    1928    1929    1930
    1933    1934    1935    1936    1924    1925    1926    1927    1930    1931
    1932    1933    1937    1938    1939    1925    1927    1928    1929    1930
    1934    1935    1936    1940    1941    1942    1926    1927    1928    1929
    1930    1933    1936    1937    1939    1927    1931    1932    1933    1937
    1938    1943    1944    1945    1929    1930    1931    1932    1933    1937
    1939    1943    1929    1930    1934    1935    1936    1940    1941    1946
    1930    1934    1935    1936    1940    1942    1946    1933    1936    1940
    1942    1932    1933    1937    1938    1939    1943    1944    1945    1947
    1948    1949    1950    1937    1938    1937    1938    1939    1943    1935
    1936    1940    1941    1942    1946    1951    1952    1953    1940    1941
    1940    1941    1942    1946    1951    1952    1953    1938    1939    1943
    1944    1945    1943    1944    1945    1947    1948    1949    1950    1954
    1955    1956    1943    1941    1942    1946    1951    1952    1953    1957
    1958    1959    1946    1946       0    1945    1947    1948    1949    1950
    1954    1955    1960    1947    1948    1949    1950    1954    1956    1960
    1951    1952    1953    1957    1958    1959    1961    1962    1963    1948
    1949    1954    1955    1956    1960    1954    1955    1950    1954    1955
    1956    1960    1954    1956    1952    1953    1957    1958    1959    1961
    1962    1963    1964    1965    1966    1953    1957    1958    1959    1957
    1958    1959    1955    1956    1960    1960    1960    1958    1959    1961
    1962    1963    1964    1965    1966    1967    1968    1969    1959    1961
    1962    1963    1961    1962    1963       0    1962    1963    1964    1965
    1966    1967    1968    1969    1970    1971    1972    1963    1964    1965
    1966    1964    1965    1966    1965    1966    1967    1968    1969    1970
    1971    1972    1973    1974    1975    1966    1967    1968    1969    1967
    1968    1969    1968    1969    1970    1971    1972    1973    1974    1975
    1976    1977    1978    1969    1970    1971    1972    1970    1971    1972
    1971    1972    1973    1974    1975    1976    1977    1978    1979    1980
    1981    1972    1973    1974    1975    1973    1974    1975    1974    1975
    1976    1977    1978    1975    1976    1977    1978    1976    1977    1978
    1979    1980    1981    1982    1983    1984    1977    1978    1979    1980
    1981    1982    1983    1984    1978    1979    1980    1981    1979    1980
    1981    1980    1981    1982    1983    1984    1981    1982    1983    1984
    1982    1983    1984    1983    1984    1984       0    1986    1987    1988
    1989    1990    1991    1992    1993    1994    1995    1996    1997    1987
    1988    1989    1990    1991    1992    1993    1994    1997    1998    1999
    2000    1988    1989    1990    1991    1994    1995    1996    1997    2001
    2002    2003    1989    1991    1992    1993    1994    1998    1999    2000
    2004    2005    2006    1990    1991    1992    1993    1994    1997    2000
    2001    2003    1991    1995    1996    1997    2001    2002    2007    2008
    2009    1993    1994    1995    1996    1997    2001    2003    2007    1993
    1994    1998    1999    2000    2004    2005    2010    1994    1998    1999
    2000    2004    2006    2010    1997    2000    2004    2006    1996    1997
    2001    2002    2003    2007    2008    2009    2011    2012    2013    2014
    2001    2002    2001    2002    2003    2007    1999    2000    2004    2005
    2006    2010    2015    2016    2017    2004    2005    2004    2005    2006
    2010    2015    2016    2017    2002    2003    2007    2008    2009    2007
    2008    2009    2011    2012    2013    2014    2018    2019    2020    2007
    2005    2006    2010    2015    2016    2017    2021    2022    2023    2010
    2010       0    2009    2011    2012    2013    2014    2018    2019    2024
    2011    2012    2013    2014    2018    2020    2024    2015    2016    2017
    2021    2022    2023    2025    2026    2027    2012    2013    2018    2019
    2020    2024    2018    2019    2014    2018    2019    2020    2024    2018
    2020    2016    2017    2021    2022    2023    2025    2026    2027    2028
    2029    2030    2017    2021    2022    2023    2021    2022    2023    2019
    2020    2024    2024    2024    2022    2023    2025    2026    2027    2028
    2029    2030    2031    2032    2033    2023    2025    2026    2027    2025
    2026    2027       0    2026    2027    2028    2029    2030    2031    2032
    2033    2034    2035    2036    2027    2028    2029    2030    2028    2029
    2030    2029    2030    2031    2032    2033    2034    2035    2036    2037
    2038    2039    2030    2031    2032    2033    2031    2032    2033    2032
    2033    2034    2035    2036    2037    2038    2039    2040    2041    2042
    2033    2034    2035    2036    2034    2035    2036    2035    2036    2037
    2038    2039    2040    2041    2042    2043    2044    2045    2036    2037
    2038    2039    2037    2038    2039    2038    2039    2040    2041    2042
    2039    2040    2041    2042    2040    2041    2042    2043    2044    2045
    2046    2047    2048    2041    2042    2043    2044    2045    2046    2047
    2048    2042    2043    2044    2045    2043    2044    2045    2044    2045
    2046    2047    2048    2045    2046    2047    2048    2046    2047    2048
    2047    2048    2048       0    2050    2051    2052    2053    2054    2055
    2056    2057    2058    2059    2060    2061    2051    2052    2053    2054
    2055    2056    2057    2058    2061    2062    2063    2064    2052    2053
    2054    2055    2058    2059    2060    2061    2065    2066    2067    2053
    2055    2056    2057    2058    2062    2063    2064    2068    2069    2070
    2054    2055    2056    2057    2058    2061    2064    2065    2067    2055
    2059    2060    2061    2065    2066    2071    2072    2073    2057    2058
    2059    2060    2061    2065    2067    2071    2057    2058    2062    2063
    2064    2068    2069    2074    2058    2062    2063    2064    2068    2070
    2074    2061    2064    2068    2070    2060    2061    2065    2066    2067
    2071    2072    2073    2075    2076    2077    2078    2065    2066    2065
    2066    2067    2071    2063    2064    2068    2069    2070    2074    2079
    2080    2081    2068    2069    2068    2069    2070    2074    2079    2080
    2081    2066    2067    2071    2072    2073    2071    2072    2073    2075
    2076    2077    2078    2082    2083    2084    2071    2069    2070    2074
    2079    2080    2081    2085    2086    2087    2074    2074       0    2073
    2075    2076    2077    2078    2082    2083    2088    2075    2076    2077
    2078    2082    2084    2088    2079    2080    2081    2085    2086    2087
    2089    2090    2091    2076    2077    2082    2083    2084    2088    2082
    2083    2078    2082    2083    2084    2088    2082    2084    2080    2081
    2085    2086    2087    2089    2090    2091    2092    2093    2094    2081
    2085    2086    2087    2085    2086    2087    2083    2084    2088    2088
    2088    2086    2087    2089    2090    2091    2092    2093    2094    2095
    2096    2097    2087    2089    2090    2091    2089    2090    2091       0
    2090    2091    2092    2093    2094    2095    2096    2097    2098    2099
    2100    2091    2092    2093    2094    2092    2093    2094    2093    2094
    2095    2096    2097    2098    2099    2100    2101    2102    2103    2094
    2095    2096    2097    2095    2096    2097    2096    2097    2098    2099
    2100    2101    2102    2103    2104    2105    2106    2097    2098    2099
    2100    2098    2099    2100    2099    2100    2101    2102    2103    2104
    2105    2106    2107    2108    2109    2100    2101    2102    2103    2101
    2102    2103    2102    2103    2104    2105    2106    2103    2104    2105
    2106    2104    2105    2106    2107    2108    2109    2110    2111    2112
    2105    2106    2107    2108    2109    2110    2111    2112    2106    2107
    2108    2109    2107    2108    2109    2108    2109    2110    2111    2112
    2109    2110    2111    2112    2110    2111    2112    2111    2112    2112
       0    2114    2115    2116    2117    2118    2119    2120    2121    2122
    2123    2124    2125    2115    2116    2117    2118    2119    2120    2121
    2122    2125    2126    2127    2128    2116    2117    2118    2119    2122
    2123    2124    2125    2129    2130    2131    2117    2119    2120    2121
    2122    2126    2127    2128    2132    2133    2134    2118    2119    2120
    2121    2122    2125    2128    2129    2131    2119    2123    2124    2125
    2129    2130    2135    2136    2137    2121    2122    2123    2124    2125
    2129    2131    2135    2121    2122    2126    2127    2128    2132    2133
    2138    2122    2126    2127    2128    2132    2134    2138    2125    2128
    2132    2134    2124    2125    2129    2130    2131    2135    2136    2137
    2139    2140    2141    2142    2129    2130    2129    2130    2131    2135
    2127    2128    2132    2133    2134    2138    2143    2144    2145    2132
    2133    2132    2133    2134    2138    2143    2144    2145    2130    2131
    2135    2136    2137    2135    2136    2137    2139    2140    2141    2142
    2146    2147    2148    2135    2133    2134    2138    2143    2144    2145
    2149    2150    2151    2138    2138       0    2137    2139    2140    2141
    2142    2146    2147    2152    2139    2140    2141    2142    2146    2148
    2152    2143    2144    2145    2149    2150    2151    2153    2154    2155
    2140    2141    2146    2147    2148    2152    2146    2147    2142    2146
    2147    2148    2152    2146    2148    2144    2145    2149    2150    2151
    2153    2154    2155    2156    2157    2158    2145    2149    2150    2151
    2149    2150    2151    2147    2148    2152    2152    2152    2150    2151
    2153    2154    2155    2156    2157    2158    2159    2160    2161    2151
    2153    2154    2155    2153    2154    2155       0    2154    2155    2156
    2157    2158    2159    2160    2161    2162    2163    2164    2155    2156
    2157    2158    2156    2157    2158    2157    2158    2159    2160    2161
    2162    2163    2164    2165    2166    2167    2158    2159    2160    2161
    2159    2160    2161    2160    2161    2162    2163    2164    2165    2166
    2167    2168    2169    2170    2161    2162    2163    2164    2162    2163
    2164    2163    2164    2165    2166    2167    2168    2169    2170    2171
    2172    2173    2164    2165    2166    2167    2165    2166    2167    2166
    2167    2168    2169    2170    2167    2168    2169    2170    2168    2169
    2170    2171    2172    2173    2174    2175    2176    2169    2170    2171
    2172    2173    2174    2175    2176    2170    2171    2172    2173    2171
    2172    2173    2172    2173    2174    2175    2176    2173    2174    2175
    2176    2174    2175    2176    2175    2176    2176       0    2178    2179
    2180    2181    2182    2183    2184    2185    2186    2187    2188    2189
    2179    2180    2181    2182    2183    2184    2185    2186    2189    2190
    2191    2192    2180    2181    2182    2183    2186    2187    2188    2189
    2193    2194    2195    2181    2183    2184    2185    2186    2190    2191
    2192    2196    2197    2198    2182    2183    2184    2185    2186    2189
    2192    2193    2195    2183    2187    2188    2189    2193    2194    2199
    2200    2201    2185    2186    2187    2188    2189    2193    2195    2199
    2185    2186    2190    2191    2192    2196    2197    2202    2186    2190
    2191    2192    2196    2198    2202    2189    2192    2196    2198    2188
    2189    2193    2194    2195    2199    2200    2201    2203    2204    2205
    2206    2193    2194    2193    2194    2195    2199    2191    2192    2196
    2197    2198    2202    2207    2208    2209    2196    2197    2196    2197
    2198    2202    2207    2208    2209    2194    2195    2199    2200    2201
    2199    2200    2201    2203    2204    2205    2206    2210    2211    2212
    2199    2197    2198    2202    2207    2208    2209    2213    2214    2215
    2202    2202       0    2201    2203    2204    2205    2206    2210    2211
    2216    2203    2204    2205    2206    2210    2212    2216    2207    2208
    2209    2213    2214    2215    2217    2218    2219    2204    2205    2210
    2211    2212    2216    2210    2211    2206    2210    2211    2212    2216
    2210    2212    2208    2209    2213    2214    2215    2217    2218    2219
    2220    2221    2222    2209    2213    2214    2215    2213    2214    2215
    2211    2212    2216    2216    2216    2214    2215    2217    2218    2219
    2220    2221    2222    2223    2224    2225    2215    2217    2218    2219
    2217    2218    2219       0    2218    2219    2220    2221    2222    2223
    2224    2225    2226    2227    2228    2219    2220    2221    2222    2220
    2221    2222    2221    2222    2223    2224    2225    2226    2227    2228
    2229    2230    2231    2222    2223    2224    2225    2223    2224    2225
    2224    2225    2226    2227    2228    2229    2230    2231    2232    2233
    2234    2225    2226    2227    2228    2226    2227    2228    2227    2228
    2229    2230    2231    2232    2233    2234    2235    2236    2237    2228
    2229    2230    2231    2229    2230    2231    2230    2231    2232    2233
    2234    2231    2232    2233    2234    2232    2233    2234    2235    2236
    2237    2238    2239    2240    2233    2234    2235    2236    2237    2238
    2239    2240    2234    2235    2236    2237    2235    2236    2237    2236
    2237    2238    2239    2240    2237    2238    2239    2240    2238    2239
    2240    2239    2240    2240       0    2242    2243    2244    2245    2246
    2247    2248    2249    2250    2251    2252    2253    2243    2244    2245
    2246    2247    2248    2249    2250    2253    2254    2255    2256    2244
    2245    2246    2247    2250    2251    2252    2253    2257    2258    2259
    2245    2247    2248    2249    2250    2254    2255    2256    2260    2261
    2262    2246    2247    2248    2249    2250    2253    2256    2257    2259
    2247    2251    2252    2253    2257    2258    2263    2264    2265    2249
    2250    2251    2252    2253    2257    2259    2263    2249    2250    2254
    2255    2256    2260    2261    2266    2250    2254    2255    2256    2260
    2262    2266    2253    2256    2260    2262    2252    2253    2257    2258
    2259    2263    2264    2265    2267    2268    2269    2270    2257    2258
    2257    2258    2259    2263    2255    2256    2260    2261    2262    2266
    2271    2272    2273    2260    2261    2260    2261    2262    2266    2271
    2272    2273    2258    2259    2263    2264    2265    2263    2264    2265
    2267    2268    2269    2270    2274    2275    2276    2263    2261    2262
    2266    2271    2272    2273    2277    2278    2279    2266    2266       0
    2265    2267    2268    2269    2270    2274    2275    2280    2267    2268
    2269    2270    2274    2276    2280    2271    2272    2273    2277    2278
    2279    2281    2282    2283    2268    2269    2274    2275    2276    2280
    2274    2275    2270    2274    2275    2276    2280    2274    2276    2272
    2273    2277    2278    2279    2281    2282    2283    2284    2285    2286
    2273    2277    2278    2279    2277    2278    2279    2275    2276    2280
    2280    2280    2278    2279    2281    2282    2283    2284    2285    2286
    2287    2288    2289    2279    2281    2282    2283    2281    2282    2283
       0    2282    2283    2284    2285    2286    2287    2288    2289    2290
    2291    2292    2283    2284    2285    2286    2284    2285    2286    2285
    2286    2287    2288    2289    2290    2291    2292    2293    2294    2295
    2286    2287    2288    2289    2287    2288    2289    2288    2289    2290
    2291    2292    2293    2294    2295    2296    2297    2298    2289    2290
    2291    2292    2290    2291    2292    2291    2292    2293    2294    2295
    2296    2297    2298    2299    2300    2301    2292    2293    2294    2295
    2293    2294    2295    2294    2295    2296    2297    2298    2295    2296
    2297    2298    2296    2297    2298    2299    2300    2301    2302    2303
    2304    2297    2298    2299    2300    2301    2302    2303    2304    2298
    2299    2300    2301    2299    2300    2301    2300    2301    2302    2303
    2304    2301    2302    2303    2304    2302    2303    2304    2303    2304
    2304       0    2306    2307    2308    2309    2310    2311    2312    2313
    2314    2315    2316    2317    2307    2308    2309    2310    2311    2312
    2313    2314    2317    2318    2319    2320    2308    2309    2310    2311
    2314    2315    2316    2317    2321    2322    2323    2309    2311    2312
    2313    2314    2318    2319    2320    2324    2325    2326    2310    2311
    2312    2313    2314    2317    2320    2321    2323    2311    2315    2316
    2317    2321    2322    2327    2328    2329    2313    2314    2315    2316
    2317    2321    2323    2327    2313    2314    2318    2319    2320    2324
    2325    2330    2314    2318    2319    2320    2324    2326    2330    2317
    2320    2324    2326    2316    2317    2321    2322    2323    2327    2328
    2329    2331    2332    2333    2334    2321    2322    2321    2322    2323
    2327    2319    2320    2324    2325    2326    2330    2335    2336    2337
    2324    2325    2324    2325    2326    2330    2335    2336    2337    2322
    2323    2327    2328    2329    2327    2328    2329    2331    2332    2333
    2334    2338    2339    2340    2327    2325    2326    2330    2335    2336
    2337    2341    2342    2343    2330    2330       0    2329    2331    2332
    2333    2334    2338    2339    2344    2331    2332    2333    2334    2338
    2340    2344    2335    2336    2337    2341    2342    2343    2345    2346
    2347    2332    2333    2338    2339    2340    2344    2338    2339    2334
    2338    2339    2340    2344    2338    2340    2336    2337    2341    2342
    2343    2345    2346    2347    2348    2349    2350    2337    2341    2342
    2343    2341    2342    2343    2339    2340    2344    2344    2344    2342
    2343    2345    2346    2347    2348    2349    2350    2351    2352    2353
    2343    2345    2346    2347    2345    2346    2347       0    2346    2347
    2348    2349    2350    2351    2352    2353    2354    2355    2356    2347
    2348    2349    2350    2348    2349    2350    2349    2350    2351    2352
    2353    2354    2355    2356    2357    2358    2359    2350    2351    2352
    2353    2351    2352    2353    2352    2353    2354    2355    2356    2357
    2358    2359    2360    2361    2362    2353    2354    2355    2356    2354
    2355    2356    2355    2356    2357    2358    2359    2360    2361    2362
    2363    2364    2365    2356    2357    2358    2359    2357    2358    2359
    2358    2359    2360    2361    2362    2359    2360    2361    2362    2360
    2361    2362    2363    2364    2365    2366    2367    2368    2361    2362
    2363    2364    2365    2366    2367    2368    2362    2363    2364    2365
    2363    2364    2365    2364    2365    2366    2367    2368    2365    2366
    2367    2368    2366    2367    2368    2367    2368    2368       0    2370
    2371    2372    2373    2374    2375    2376    2377    2378    2379    2380
    2381    2371    2372    2373    2374    2375    2376    2377    2378    2381
    2382    2383    2384    2372    2373    2374    2375    2378    2379    2380
    2381    2385    2386    2387    2373    2375    2376    2377    2378    2382
    2383    2384    2388    2389    2390    2374    2375    2376    2377    2378
    2381    2384    2385    2387    2375    2379    2380    2381    2385    2386
    2391    2392    2393    2377    2378    2379    2380    2381    2385    2387
    2391    2377    2378    2382    2383    2384    2388    2389    2394    2378
    2382    2383    2384    2388    2390    2394    2381    2384    2388    2390
    2380    2381    2385    2386    2387    2391    2392    2393    2395    2396
    2397    2398    2385    2386    2385    2386    2387    2391    2383    2384
    2388    2389    2390    2394    2399    2400    2401    2388    2389    2388
    2389    2390    2394    2399    2400    2401    2386    2387    2391    2392
    2393    2391    2392    2393    2395    2396    2397    2398    2402    2403
    2404    2391    2389    2390    2394    2399    2400    2401    2405    2406
    2407    2394    2394       0    2393    2395    2396    2397    2398    2402
    2403    2408    2395    2396    2397    2398    2402    2404    2408    2399
    2400    2401    2405    2406    2407    2409    2410    2411    2396    2397
    2402    2403    2404    2408    2402    2403    2398    2402    2403    2404
    2408    2402    2404    2400    2401    2405    2406    2407    2409    2410
    2411    2412    2413    2414    2401    2405    2406    2407    2405    2406
    2407    2403    2404    2408    2408    2408    2406    2407    2409    2410
    2411    2412    2413    2414    2415    2416    2417    2407    2409    2410
    2411    2409    2410    2411       0    2410    2411    2412    2413    2414
    2415    2416    2417    2418    2419    2420    2411    2412    2413    2414
    2412    2413    2414    2413    2414    2415    2416    2417    2418    2419
    2420    2421    2422    2423    2414    2415    2416    2417    2415    2416
    2417    2416    2417    2418    2419    2420    2421    2422    2423    2424
    2425    2426    2417    2418    2419    2420    2418    2419    2420    2419
    2420    2421    2422    2423    2424    2425    2426    2427    2428    2429
    2420    2421    2422    2423    2421    2422    2423    2422    2423    2424
    2425    2426    2423    2424    2425    2426    2424    2425    2426    2427
    2428    2429    2430    2431    2432    2425    2426    2427    2428    2429
    2430    2431    2432    2426    2427    2428    2429    2427    2428    2429
    2428    2429    2430    2431    2432    2429    2430    2431    2432    2430
    2431    2432    2431    2432    2432       0    2434    2435    2436    2437
    2438    2439    2440    2441    2442    2443    2444    2445    2435    2436
    2437    2438    2439    2440    2441    2442    2445    2446    2447    2448
    2436    2437    2438    2439    2442    2443    2444    2445    2449    2450
    2451    2437    2439    2440    2441    2442    2446    2447    2448    2452
    2453    2454    2438    2439    2440    2441    2442    2445    2448    2449
    2451    2439    2443    2444    2445    2449    2450    2455    2456    2457
    2441    2442    2443    2444    2445    2449    2451    2455    2441    2442
    2446    2447    2448    2452    2453    2458    2442    2446    2447    2448
    2452    2454    2458    2445    2448    2452    2454    2444    2445    2449
    2450    2451    2455    2456    2457    2459    2460    2461    2462    2449
    2450    2449    2450    2451    2455    2447    2448    2452    2453    2454
    2458    2463    2464    2465    2452    2453    2452    2453    2454    2458
    2463    2464    2465    2450    2451    2455    2456    2457    2455    2456
    2457    2459    2460    2461    2462    2466    2467    2468    2455    2453
    2454    2458    2463    2464    2465    2469    2470    2471    2458    2458
       0    2457    2459    2460    2461    2462    2466    2467    2472    2459
    2460    2461    2462    2466    2468    2472    2463    2464    2465    2469
    2470    2471    2473    2474    2475    2460    2461    2466    2467    2468
    2472    2466    2467    2462    2466    2467    2468    2472    2466    2468
    2464    2465    2469    2470    2471    2473    2474    2475    2476    2477
    2478    2465    2469    2470    2471    2469    2470    2471    2467    2468
    2472    2472    2472    2470    2471    2473    2474    2475    2476    2477
    2478    2479    2480    2481    2471    2473    2474    2475    2473    2474
    2475       0    2474    2475    2476    2477    2478    2479    2480    2481
    2482    2483    2484    2475    2476    2477    2478    2476    2477    2478
    2477    2478    2479    2480    2481    2482    2483    2484    2485    2486
    2487    2478    2479    2480    2481    2479    2480    2481    2480    2481
    2482    2483    2484    2485    2486    2487    2488    2489    2490    2481
    2482    2483    2484    2482    2483    2484    2483    2484    2485    2486
    2487    2488    2489    2490    2491    2492    2493    2484    2485    2486
    2487    2485    2486    2487    2486    2487    2488    2489    2490    2487
    2488    2489    2490    2488    2489    2490    2491    2492    2493    2494
    2495    2496    2489    2490    2491    2492    2493    2494    2495    2496
    2490    2491    2492    2493    2491    2492    2493    2492    2493    2494
    2495    2496    2493    2494    2495    2496    2494    2495    2496    2495
    2496    2496       0    2498    2499    2500    2501    2502    2503    2504
    2505    2506    2507    2508    2509    2499    2500    2501    2502    2503
    2504    2505    2506    2509    2510    2511    2512    2500    2501    2502
    2503    2506    2507    2508    2509    2513    2514    2515    2501    2503
    2504    2505    2506    2510    2511    2512    2516    2517    2518    2502
    2503    2504    2505    2506    2509    2512    2513    2515    2503    2507
    2508    2509    2513    2514    2519    2520    2521    2505    2506    2507
    2508    2509    2513    2515    2519    2505    2506    2510    2511    2512
    2516    2517    2522    2506    2510    2511    2512    2516    2518    2522
    2509    2512    2516    2518    2508    2509    2513    2514    2515    2519
    2520    2521    2523    2524    2525    2526    2513    2514    2513    2514
    2515    2519    2511    2512    2516    2517    2518    2522    2527    2528
    2529    2516    2517    2516    2517    2518    2522    2527    2528    2529
    2514    2515    2519    2520    2521    2519    2520    2521    2523    2524
    2525    2526    2530    2531    2532    2519    2517    2518    2522    2527
    2528    2529    2533    2534    2535    2522    2522       0    2521    2523
    2524    2525    2526    2530    2531    2536    2523    2524    2525    2526
    2530    2532    2536    2527    2528    2529    2533    2534    2535    2537
    2538    2539    2524    2525    2530    2531    2532    2536    2530    2531
    2526    2530    2531    2532    2536    2530    2532    2528    2529    2533
    2534    2535    2537    2538    2539    2540    2541    2542    2529    2533
    2534    2535    2533    2534    2535    2531    2532    2536    2536    2536
    2534    2535    2537    2538    2539    2540    2541    2542    2543    2544
    2545    2535    2537    2538    2539    2537    2538    2539       0    2538
    2539    2540    2541    2542    2543    2544    2545    2546    2547    2548
    2539    2540    2541    2542    2540    2541    2542    2541    2542    2543
    2544    2545    2546    2547    2548    2549    2550    2551    2542    2543
    2544    2545    2543    2544    2545    2544    2545    2546    2547    2548
    2549    2550    2551    2552    2553    2554    2545    2546    2547    2548
    2546    2547    2548    2547    2548    2549    2550    2551    2552    2553
    2554    2555    2556    2557    2548    2549    2550    2551    2549    2550
    2551    2550    2551    2552    2553    2554    2551    2552    2553    2554
    2552    2553    2554    2555    2556    2557    2558    2559    2560    2553
    2554    2555    2556    2557    2558    2559    2560    2554    2555    2556
    2557    2555    2556    2557    2556    2557    2558    2559    2560    2557
    2558    2559    2560    2558    2559    2560    2559    2560    2560       0
    2562    2563    2564    2565    2566    2567    2568    2569    2570    2571
    2572    2573    2563    2564    2565    2566    2567    2568    2569    2570
    2573    2574    2575    2576    2564    2565    2566    2567    2570    2571
    2572    2573    2577    2578    2579    2565    2567    2568    2569    2570
    2574    2575    2576    2580    2581    2582    2566    2567    2568    2569
    2570    2573    2576    2577    2579    2567    2571    2572    2573    2577
    2578    2583    2584    2585    2569    2570    2571    2572    2573    2577
    2579    2583    2569    2570    2574    2575    2576    2580    2581    2586
    2570    2574    2575    2576    2580    2582    2586    2573    2576    2580
    2582    2572    2573    2577    2578    2579    2583    2584    2585    2587
    2588    2589    2590    2577    2578    2577    2578    2579    2583    2575
    2576    2580    2581    2582    2586    2591    2592    2593    2580    2581
    2580    2581    2582    2586    2591    2592    2593    2578    2579    2583
    2584    2585    2583    2584    2585    2587    2588    2589    2590    2594
    2595    2596    2583    2581    2582    2586    2591    2592    2593    2597
    2598    2599    2586    2586       0    2585    2587    2588    2589    2590
    2594    2595    2600    2587    2588    2589    2590    2594    2596    2600
    2591    2592    2593    2597    2598    2599    2601    2602    2603    2588
    2589    2594    2595    2596    2600    2594    2595    2590    2594    2595
    2596    2600    2594    2596    2592    2593    2597    2598    2599    2601
    2602    2603    2604    2605    2606    2593    2597    2598    2599    2597
    2598    2599    2595    2596    2600    2600    2600    2598    2599    2601
    2602    2603    2604    2605    2606    2607    2608    2609    2599    2601
    2602    2603    2601    2602    2603       0    2602    2603    2604    2605
    2606    2607    2608    2609    2610    2611    2612    2603    2604    2605
    2606    2604    2605    2606    2605    2606    2607    2608    2609    2610
    2611    2612    2613    2614    2615    2606    2607    2608    2609    2607
    2608    2609    2608    2609    2610    2611    2612    2613    2614    2615
    2616    2617    2618    2609    2610    2611    2612    2610    2611    2612
    2611    2612    2613    2614    2615    2616    2617    2618    2619    2620
    2621    2612    2613    2614    2615    2613    2614    2615    2614    2615
    2616    2617    2618    2615    2616    2617    2618    2616    2617    2618
    2619    2620    2621    2622    2623    2624    2617    2618    2619    2620
    2621    2622    2623    2624    2618    2619    2620    2621    2619    2620
    2621    2620    2621    2622    2623    2624    2621    2622    2623    2624
    2622    2623    2624    2623    2624    2624       0    2626    2627    2628
    2629    2630    2631    2632    2633    2634    2635    2636    2637    2627
    2628    2629    2630    2631    2632    2633    2634    2637    2638    2639
    2640    2628    2629    2630    2631    2634    2635    2636    2637    2641
    2642    2643    2629    2631    2632    2633    2634    2638    2639    2640
    2644    2645    2646    2630    2631    2632    2633    2634    2637    2640
    2641    2643    2631    2635    2636    2637    2641    2642    2647    2648
    2649    2633    2634    2635    2636    2637    2641    2643    2647    2633
    2634    2638    2639    2640    2644    2645    2650    2634    2638    2639
    2640    2644    2646    2650    2637    2640    2644    2646    2636    2637
    2641    2642    2643    2647    2648    2649    2651    2652    2653    2654
    2641    2642    2641    2642    2643    2647    2639    2640    2644    2645
    2646    2650    2655    2656    2657    2644    2645    2644    2645    2646
    2650    2655    2656    2657    2642    2643    2647    2648    2649    2647
    2648    2649    2651    2652    2653    2654    2658    2659    2660    2647
    2645    2646    2650    2655    2656    2657    2661    2662    2663    2650
    2650       0    2649    2651    2652    2653    2654    2658    2659    2664
    2651    2652    2653    2654    2658    2660    2664    2655    2656    2657
    2661    2662    2663    2665    2666    2667    2652    2653    2658    2659
    2660    2664    2658    2659    2654    2658    2659    2660    2664    2658
    2660    2656    2657    2661    2662    2663    2665    2666    2667    2668
    2669    2670    2657    2661    2662    2663    2661    2662    2663    2659
    2660    2664    2664    2664    2662    2663    2665    2666    2667    2668
    2669    2670    2671    2672    2673    2663    2665    2666    2667    2665
    2666    2667       0    2666    2667    2668    2669    2670    2671    2672
    2673    2674    2675    2676    2667    2668    2669    2670    2668    2669
    2670    2669    2670    2671    2672    2673    2674    2675    2676    2677
    2678    2679    2670    2671    2672    2673    2671    2672    2673    2672
    2673    2674    2675    2676    2677    2678    2679    2680    2681    2682
    2673    2674    2675    2676    2674    2675    2676    2675    2676    2677
    2678    2679    2680    2681    2682    2683    2684    2685    2676    2677
    2678    2679    2677    2678    2679    2678    2679    2680    2681    2682
    2679    2680    2681    2682    2680    2681    2682    2683    2684    2685
    2686    2687    2688    2681    2682    2683    2684    2685    2686    2687
    2688    2682    2683    2684    2685    2683    2684    2685    2684    2685
    2686    2687    2688    2685    2686    2687    2688    2686    2687    2688
    2687    2688    2688       0    2690    2691    2692    2693    2694    2695
    2696    2697    2698    2699    2700    2701    2691    2692    2693    2694
    2695    2696    2697    2698    2701    2702    2703    2704    2692    2693
    2694    2695    2698    2699    2700    2701    2705    2706    2707    2693
    2695    2696    2697    2698    2702    2703    2704    2708    2709    2710
    2694    2695    2696    2697    2698    2701    2704    2705    2707    2695
    2699    2700    2701    2705    2706    2711    2712    2713    2697    2698
    2699    2700    2701    2705    2707    2711    2697    2698    2702    2703
    2704    2708    2709    2714    2698    2702    2703    2704    2708    2710
    2714    2701    2704    2708    2710    2700    2701    2705    2706    2707
    2711    2712    2713    2715    2716    2717    2718    2705    2706    2705
    2706    2707    2711    2703    2704    2708    2709    2710    2714    2719
    2720    2721    2708    2709    2708    2709    2710    2714    2719    2720
    2721    2706    2707    2711    2712    2713    2711    2712    2713    2715
    2716    2717    2718    2722    2723    2724    2711    2709    2710    2714
    2719    2720    2721    2725    2726    2727    2714    2714       0    2713
    2715    2716    2717    2718    2722    2723    2728    2715    2716    2717
    2718    2722    2724    2728    2719    2720    2721    2725    2726    2727
    2729    2730    2731    2716    2717    2722    2723    2724    2728    2722
    2723    2718    2722    2723    2724    2728    2722    2724    2720    2721
    2725    2726    2727    2729    2730    2731    2732    2733    2734    2721
    2725    2726    2727    2725    2726    2727    2723    2724    2728    2728
    2728    2726    2727    2729    2730    2731    2732    2733    2734    2735
    2736    2737    2727    2729    2730    2731    2729    2730    2731       0
    2730    2731    2732    2733    2734    2735    2736    2737    2738    2739
    2740    2731    2732    2733    2734    2732    2733    2734    2733    2734
    2735    2736    2737    2738    2739    2740    2741    2742    2743    2734
    2735    2736    2737    2735    2736    2737    2736    2737    2738    2739
    2740    2741    2742    2743    2744    2745    2746    2737    2738    2739
    2740    2738    2739    2740    2739    2740    2741    2742    2743    2744
    2745    2746    2747    2748    2749    2740    2741    2742    2743    2741
    2742    2743    2742    2743    2744    2745    2746    2743    2744    2745
    2746    2744    2745    2746    2747    2748    2749    2750    2751    2752
    2745    2746    2747    2748    2749    2750    2751    2752    2746    2747
    2748    2749    2747    2748    2749    2748    2749    2750    2751    2752
    2749    2750    2751    2752    2750    2751    2752    2751    2752    2752
       0    2754    2755    2756    2757    2758    2759    2760    2761    2762
    2763    2764    2765    2755    2756    2757    2758    2759    2760    2761
    2762    2765    2766    2767    2768    2756    2757    2758    2759    2762
    2763    2764    2765    2769    2770    2771    2757    2759    2760    2761
    2762    2766    2767    2768    2772    2773    2774    2758    2759    2760
    2761    2762    2765    2768    2769    2771    2759    2763    2764    2765
    2769    2770    2775    2776    2777    2761    2762    2763    2764    2765
    2769    2771    2775    2761    2762    2766    2767    2768    2772    2773
    2778    2762    2766    2767    2768    2772    2774    2778    2765    2768
    2772    2774    2764    2765    2769    2770    2771    2775    2776    2777
    2779    2780    2781    2782    2769    2770    2769    2770    2771    2775
    2767    2768    2772    2773    2774    2778    2783    2784    2785    2772
    2773    2772    2773    2774    2778    2783    2784    2785    2770    2771
    2775    2776    2777    2775    2776    2777    2779    2780    2781    2782
    2786    2787    2788    2775    2773    2774    2778    2783    2784    2785
    2789    2790    2791    2778    2778       0    2777    2779    2780    2781
    2782    2786    2787    2792    2779    2780    2781    2782    2786    2788
    2792    2783    2784    2785    2789    2790    2791    2793    2794    2795
    2780    2781    2786    2787    2788    2792    2786    2787    2782    2786
    2787    2788    2792    2786    2788    2784    2785    2789    2790    2791
    2793    2794    2795    2796    2797    2798    2785    2789    2790    2791
    2789    2790    2791    2787    2788    2792    2792    2792    2790    2791
    2793    2794    2795    2796    2797    2798    2799    2800    2801    2791
    2793    2794    2795    2793    2794    2795       0    2794    2795    2796
    2797    2798    2799    2800    2801    2802    2803    2804    2795    2796
    2797    2798    2796    2797    2798    2797    2798    2799    2800    2801
    2802    2803    2804    2805    2806    2807    2798    2799    2800    2801
    2799    2800    2801    2800    2801    2802    2803    2804    2805    2806
    2807    2808    2809    2810    2801    2802    2803    2804    2802    2803
    2804    2803    2804    2805    2806    2807    2808    2809    2810    2811
    2812    2813    2804    2805    2806    2807    2805    2806    2807    2806
    2807    2808    2809    2810    2807    2808    2809    2810    2808    2809
    2810    2811    2812    2813    2814    2815    2816    2809    2810    2811
    2812    2813    2814    2815    2816    2810    2811    2812    2813    2811
    2812    2813    2812    2813    2814    2815    2816    2813    2814    2815
    2816    2814    2815    2816    2815    2816    2816       0    2818    2819
    2820    2821    2822    2823    2824    2825    2826    2827    2828    2829
    2819    2820    2821    2822    2823    2824    2825    2826    2829    2830
    2831    2832    2820    2821    2822    2823    2826    2827    2828    2829
    2833    2834    2835    2821    2823    2824    2825    2826    2830    2831
    2832    2836    2837    2838    2822    2823    2824    2825    2826    2829
    2832    2833    2835    2823    2827    2828    2829    2833    2834    2839
    2840    2841    2825    2826    2827    2828    2829    2833    2835    2839
    2825    2826    2830    2831    2832    2836    2837    2842    2826    2830
    2831    2832    2836    2838    2842    2829    2832    2836    2838    2828
    2829    2833    2834    2835    2839    2840    2841    2843    2844    2845
    2846    2833    2834    2833    2834    2835    2839    2831    2832    2836
    2837    2838    2842    2847    2848    2849    2836    2837    2836    2837
    2838    2842    2847    2848    2849    2834    2835    2839    2840    2841
    2839    2840    2841    2843    2844    2845    2846    2850    2851    2852
    2839    2837    2838    2842    2847    2848    2849    2853    2854    2855
    2842    2842       0    2841    2843    2844    2845    2846    2850    2851
    2856    2843    2844    2845    2846    2850    2852    2856    2847    2848
    2849    2853    2854    2855    2857    2858    2859    2844    2845    2850
    2851    2852    2856    2850    2851    2846    2850    2851    2852    2856
    2850    2852    2848    2849    2853    2854    2855    2857    2858    2859
    2860    2861    2862    2849    2853    2854    2855    2853    2854    2855
    2851    2852    2856    2856    2856    2854    2855    2857    2858    2859
    2860    2861    2862    2863    2864    2865    2855    2857    2858    2859
    2857    2858    2859       0    2858    2859    2860    2861    2862    2863
    2864    2865    2866    2867    2868    2859    2860    2861    2862    2860
    2861    2862    2861    2862    2863    2864    2865    2866    2867    2868
    2869    2870    2871    2862    2863    2864    2865    2863    2864    2865
    2864    2865    2866    2867    2868    2869    2870    2871    2872    2873
    2874    2865    2866    2867    2868    2866    2867    2868    2867    2868
    2869    2870    2871    2872    2873    2874    2875    2876    2877    2868
    2869    2870    2871    2869    2870    2871    2870    2871    2872    2873
    2874    2871    2872    2873    2874    2872    2873    2874    2875    2876
    2877    2878    2879    2880    2873    2874    2875    2876    2877    2878
    2879    2880    2874    2875    2876    2877    2875    2876    2877    2876
    2877    2878    2879    2880    2877    2878    2879    2880    2878    2879
    2880    2879    2880    2880       0    2882    2883    2884    2885    2886
    2887    2888    2889    2890    2891    2892    2893    2883    2884    2885
    2886    2887    2888    2889    2890    2893    2894    2895    2896    2884
    2885    2886    2887    2890    2891    2892    2893    2897    2898    2899
    2885    2887    2888    2889    2890    2894    2895    2896    2900    2901
    2902    2886    2887    2888    2889    2890    2893    2896    2897    2899
    2887    2891    2892    2893    2897    2898    2903    2904    2905    2889
    2890    2891    2892    2893    2897    2899    2903    2889    2890    2894
    2895    2896    2900    2901    2906    2890    2894    2895    2896    2900
    2902    2906    2893    2896    2900    2902    2892    2893    2897    2898
    2899    2903    2904    2905    2907    2908    2909    2910    2897    2898
    2897    2898    2899    2903    2895    2896    2900    2901    2902    2906
    2911    2912    2913    2900    2901    2900    2901    2902    2906    2911
    2912    2913    2898    2899    2903    2904    2905    2903    2904    2905
    2907    2908    2909    2910    2914    2915    2916    2903    2901    2902
    2906    2911    2912    2913    2917    2918    2919    2906    2906       0
    2905    2907    2908    2909    2910    2914    2915    2920    2907    2908
    2909    2910    2914    2916    2920    2911    2912    2913    2917    2918
    2919    2921    2922    2923    2908    2909    2914    2915    2916    2920
    2914    2915    2910    2914    2915    2916    2920    2914    2916    2912
    2913    2917    2918    2919    2921    2922    2923    2924    2925    2926
    2913    2917    2918    2919    2917    2918    2919    2915    2916    2920
    2920    2920    2918    2919    2921    2922    2923    2924    2925    2926
    2927    2928    2929    2919    2921    2922    2923    2921    2922    2923
       0    2922    2923    2924    2925    2926    2927    2928    2929    2930
    2931    2932    2923    2924    2925    2926    2924    2925    2926    2925
    2926    2927    2928    2929    2930    2931    2932    2933    2934    2935
    2926    2927    2928    2929    2927    2928    2929    2928    2929    2930
    2931    2932    2933    2934    2935    2936    2937    2938    2929    2930
    2931    2932    2930    2931    2932    2931    2932    2933    2934    2935
    2936    2937    2938    2939    2940    2941    2932    2933    2934    2935
    2933    2934    2935    2934    2935    2936    2937    2938    2935    2936
    2937    2938    2936    2937    2938    2939    2940    2941    2942    2943
    2944    2937    2938    2939    2940    2941    2942    2943    2944    2938
    2939    2940    2941    2939    2940    2941    2940    2941    2942    2943
    2944    2941    2942    2943    2944    2942    2943    2944    2943    2944
    2944       0    2946    2947    2948    2949    2950    2951    2952    2953
    2954    2955    2956    2957    2947    2948    2949    2950    2951    2952
    2953    2954    2957    2958    2959    2960    2948    2949    2950    2951
    2954    2955    2956    2957    2961    2962    2963    2949    2951    2952
    2953    2954    2958    2959    2960    2964    2965    2966    2950    2951
    2952    2953    2954    2957    2960    2961    2963    2951    2955    2956
    2957    2961    2962    2967    2968    2969    2953    2954    2955    2956
    2957    2961    2963    2967    2953    2954    2958    2959    2960    2964
    2965    2970    2954    2958    2959    2960    2964    2966    2970    2957
    2960    2964    2966    2956    2957    2961    2962    2963    2967    2968
    2969    2971    2972    2973    2974    2961    2962    2961    2962    2963
    2967    2959    2960    2964    2965    2966    2970    2975    2976    2977
    2964    2965    2964    2965    2966    2970    2975    2976    2977    2962
    2963    2967    2968    2969    2967    2968    2969    2971    2972    2973
    2974    2978    2979    2980    2967    2965    2966    2970    2975    2976
    2977    2981    2982    2983    2970    2970       0    2969    2971    2972
    2973    2974    2978    2979    2984    2971    2972    2973    2974    2978
    2980    2984    2975    2976    2977    2981    2982    2983    2985    2986
    2987    2972    2973    2978    2979    2980    2984    2978    2979    2974
    2978    2979    2980    2984    2978    2980    2976    2977    2981    2982
    2983    2985    2986    2987    2988    2989    2990    2977    2981    2982
    2983    2981    2982    2983    2979    2980    2984    2984    2984    2982
    2983    2985    2986    2987    2988    2989    2990    2991    2992    2993
    2983    2985    2986    2987    2985    2986    2987       0    2986    2987
    2988    2989    2990    2991    2992    2993    2994    2995    2996    2987
    2988    2989    2990    2988    2989    2990    2989    2990    2991    2992
    2993    2994    2995    2996    2997    2998    2999    2990    2991    2992
    2993    2991    2992    2993    2992    2993    2994    2995    2996    2997
    2998    2999    3000    3001    3002    2993    2994    2995    2996    2994
    2995    2996    2995    2996    2997    2998    2999    3000    3001    3002
    3003    3004    3005    2996    2997    2998    2999    2997    2998    2999
    2998    2999    3000    3001    3002    2999    3000    3001    3002    3000
    3001    3002    3003    3004    3005    3006    3007    3008    3001    3002
    3003    3004    3005    3006    3007    3008    3002    3003    3004    3005
    3003    3004    3005    3004    3005    3006    3007    3008    3005    3006
    3007    3008    3006    3007    3008    3007    3008    3008       0    3010
    3011    3012    3013    3014    3015    3016    3017    3018    3019    3020
    3021    3011    3012    3013    3014    3015    3016    3017    3018    3021
    3022    3023    3024    3012    3013    3014    3015    3018    3019    3020
    3021    3025    3026    3027    3013    3015    3016    3017    3018    3022
    3023    3024    3028    3029    3030    3014    3015    3016    3017    3018
    3021    3024    3025    3027    3015    3019    3020    3021    3025    3026
    3031    3032    3033    3017    3018    3019    3020    3021    3025    3027
    3031    3017    3018    3022    3023    3024    3028    3029    3034    3018
    3022    3023    3024    3028    3030    3034    3021    3024    3028    3030
    3020    3021    3025    3026    3027    3031    3032    3033    3035    3036
    3037    3038    3025    3026    3025    3026    3027    3031    3023    3024
    3028    3029    3030    3034    3039    3040    3041    3028    3029    3028
    3029    3030    3034    3039    3040    3041    3026    3027    3031    3032
    3033    3031    3032    3033    3035    3036    3037    3038    3042    3043
    3044    3031    3029    3030    3034    3039    3040    3041    3045    3046
    3047    3034    3034       0    3033    3035    3036    3037    3038    3042
    3043    3048    3035    3036    3037    3038    3042    3044    3048    3039
    3040    3041    3045    3046    3047    3049    3050    3051    3036    3037
    3042    3043    3044    3048    3042    3043    3038    3042    3043    3044
    3048    3042    3044    3040    3041    3045    3046    3047    3049    3050
    3051    3052    3053    3054    3041    3045    3046    3047    3045    3046
    3047    3043    3044    3048    3048    3048    3046    3047    3049    3050
    3051    3052    3053    3054    3055    3056    3057    3047    3049    3050
    3051    3049    3050    3051       0    3050    3051    3052    3053    3054
    3055    3056    3057    3058    3059    3060    3051    3052    3053    3054
    3052    3053    3054    3053    3054    3055    3056    3057    3058    3059
    3060    3061    3062    3063    3054    3055    3056    3057    3055    3056
    3057    3056    3057    3058    3059    3060    3061    3062    3063    3064
    3065    3066    3057    3058    3059    3060    3058    3059    3060    3059
    3060    3061    3062    3063    3064    3065    3066    3067    3068    3069
    3060    3061    3062    3063    3061    3062    3063    3062    3063    3064
    3065    3066    3063    3064    3065    3066    3064    3065    3066    3067
    3068    3069    3070    3071    3072    3065    3066    3067    3068    3069
    3070    3071    3072    3066    3067    3068    3069    3067    3068    3069
    3068    3069    3070    3071    3072    3069    3070    3071    3072    3070
    3071    3072    3071    3072    3072       0    3074    3075    3076    3077
    3078    3079    3080    3081    3082    3083    3084    3085    3075    3076
    3077    3078    3079    3080    3081    3082    3085    3086    3087    3088
    3076    3077    3078    3079    3082    3083    3084    3085    3089    3090
    3091    3077    3079    3080    3081    3082    3086    3087    3088    3092
    3093    3094    3078    3079    3080    3081    3082    3085    3088    3089
    3091    3079    3083    3084    3085    3089    3090    3095    3096    3097
    3081    3082    3083    3084    3085    3089    3091    3095    3081    3082
    3086    3087    3088    3092    3093    3098    3082    3086    3087    3088
    3092    3094    3098    3085    3088    3092    3094    3084    3085    3089
    3090    3091    3095    3096    3097    3099    3100    3101    3102    3089
    3090    3089    3090    3091    3095    3087    3088    3092    3093    3094
    3098    3103    3104    3105    3092    3093    3092    3093    3094    3098
    3103    3104    3105    3090    3091    3095    3096    3097    3095    3096
    3097    3099    3100    3101    3102    3106    3107    3108    3095    3093
    3094    3098    3103    3104    3105    3109    3110    3111    3098    3098
       0    3097    3099    3100    3101    3102    3106    3107    3112    3099
    3100    3101    3102    3106    3108    3112    3103    3104    3105    3109
    3110    3111    3113    3114    3115    3100    3101    3106    3107    3108
    3112    3106    3107    3102    3106    3107    3108    3112    3106    3108
    3104    3105    3109    3110    3111    3113    3114    3115    3116    3117
    3118    3105    3109    3110    3111    3109    3110    3111    3107    3108
    3112    3112    3112    3110    3111    3113    3114    3115    3116    3117
    3118    3119    3120    3121    3111    3113    3114    3115    3113    3114
    3115       0    3114    3115    3116    3117    3118    3119    3120    3121
    3122    3123    3124    3115    3116    3117    3118    3116    3117    3118
    3117    3118    3119    3120    3121    3122    3123    3124    3125    3126
    3127    3118    3119    3120    3121    3119    3120    3121    3120    3121
    3122    3123    3124    3125    3126    3127    3128    3129    3130    3121
    3122    3123    3124    3122    3123    3124    3123    3124    3125    3126
    3127    3128    3129    3130    3131    3132    3133    3124    3125    3126
    3127    3125    3126    3127    3126    3127    3128    3129    3130    3127
    3128    3129    3130    3128    3129    3130    3131    3132    3133    3134
    3135    3136    3129    3130    3131    3132    3133    3134    3135    3136
    3130    3131    3132    3133    3131    3132    3133    3132    3133    3134
    3135    3136    3133    3134    3135    3136    3134    3135    3136    3135
    3136    3136       0    3138    3139    3140    3141    3142    3143    3144
    3145    3146    3147    3148    3149    3139    3140    3141    3142    3143
    3144    3145    3146    3149    3150    3151    3152    3140    3141    3142
    3143    3146    3147    3148    3149    3153    3154    3155    3141    3143
    3144    3145    3146    3150    3151    3152    3156    3157    3158    3142
    3143    3144    3145    3146    3149    3152    3153    3155    3143    3147
    3148    3149    3153    3154    3159    3160    3161    3145    3146    3147
    3148    3149    3153    3155    3159    3145    3146    3150    3151    3152
    3156    3157    3162    3146    3150    3151    3152    3156    3158    3162
    3149    3152    3156    3158    3148    3149    3153    3154    3155    3159
    3160    3161    3163    3164    3165    3166    3153    3154    3153    3154
    3155    3159    3151    3152    3156    3157    3158    3162    3167    3168
    3169    3156    3157    3156    3157    3158    3162    3167    3168    3169
    3154    3155    3159    3160    3161    3159    3160    3161    3163    3164
    3165    3166    3170    3171    3172    3159    3157    3158    3162    3167
    3168    3169    3173    3174    3175    3162    3162       0    3161    3163
    3164    3165    3166    3170    3171    3176    3163    3164    3165    3166
    3170    3172    3176    3167    3168    3169    3173    3174    3175    3177
    3178    3179    3164    3165    3170    3171    3172    3176    3170    3171
    3166    3170    3171    3172    3176    3170    3172    3168    3169    3173
    3174    3175    3177    3178    3179    3180    3181    3182    3169    3173
    3174    3175    3173    3174    3175    3171    3172    3176    3176    3176
    3174    3175    3177    3178    3179    3180    3181    3182    3183    3184
    3185    3175    3177    3178    3179    3177    3178    3179       0    3178
    3179    3180    3181    3182    3183    3184    3185    3186    3187    3188
    3179    3180    3181    3182    3180    3181    3182    3181    3182    3183
    3184    3185    3186    3187    3188    3189    3190    3191    3182    3183
    3184    3185    3183    3184    3185    3184    3185    3186    3187    3188
    3189    3190    3191    3192    3193    3194    3185    3186    3187    3188
    3186    3187    3188    3187    3188    3189    3190    3191    3192    3193
    3194    3195    3196    3197    3188    3189    3190    3191    3189    3190
    3191    3190    3191    3192    3193    3194    3191    3192    3193    3194
    3192    3193    3194    3195    3196    3197    3198    3199    3200    3193
    3194    3195    3196    3197    3198    3199    3200    3194    3195    3196
    3197    3195    3196    3197    3196    3197    3198    3199    3200    3197
    3198    3199    3200    3198    3199    3200    3199    3200    3200       0
    3202    3203    3204    3205    3206    3207    3208    3209    3210    3211
    3212    3213    3203    3204    3205    3206    3207    3208    3209    3210
    3213    3214    3215    3216    3204    3205    3206    3207    3210    3211
    3212    3213    3217    3218    3219    3205    3207    3208    3209    3210
    3214    3215    3216    3220    3221    3222    3206    3207    3208    3209
    3210    3213    3216    3217    3219    3207    3211    3212    3213    3217
    3218    3223    3224    3225    3209    3210    3211    3212    3213    3217
    3219    3223    3209    3210    3214    3215    3216    3220    3221    3226
    3210    3214    3215    3216    3220    3222    3226    3213    3216    3220
    3222    3212    3213    3217    3218    3219    3223    3224    3225    3227
    3228    3229    3230    3217    3218    3217    3218    3219    3223    3215
    3216    3220    3221    3222    3226    3231    3232    3233    3220    3221
    3220    3221    3222    3226    3231    3232    3233    3218    3219    3223
    3224    3225    3223    3224    3225    3227    3228    3229    3230    3234
    3235    3236    3223    3221    3222    3226    3231    3232    3233    3237
    3238    3239    3226    3226       0    3225    3227    3228    3229    3230
    3234    3235    3240    3227    3228    3229    3230    3234    3236    3240
    3231    3232    3233    3237    3238    3239    3241    3242    3243    3228
    3229    3234    3235    3236    3240    3234    3235    3230    3234    3235
    3236    3240    3234    3236    3232    3233    3237    3238    3239    3241
    3242    3243    3244    3245    3246    3233    3237    3238    3239    3237
    3238    3239    3235    3236    3240    3240    3240    3238    3239    3241
    3242    3243    3244    3245    3246    3247    3248    3249    3239    3241
    3242    3243    3241    3242    3243       0    3242    3243    3244    3245
    3246    3247    3248    3249    3250    3251    3252    3243    3244    3245
    3246    3244    3245    3246    3245    3246    3247    3248    3249    3250
    3251    3252    3253    3254    3255    3246    3247    3248    3249    3247
    3248    3249    3248    3249    3250    3251    3252    3253    3254    3255
    3256    3257    3258    3249    3250    3251    3252    3250    3251    3252
    3251    3252    3253    3254    3255    3256    3257    3258    3259    3260
    3261    3252    3253    3254    3255    3253    3254    3255    3254    3255
    3256    3257    3258    3255    3256    3257    3258    3256    3257    3258
    3259    3260    3261    3262    3263    3264    3257    3258    3259    3260
    3261    3262    3263    3264    3258    3259    3260    3261    3259    3260
    3261    3260    3261    3262    3263    3264    3261    3262    3263    3264
    3262    3263    3264    3263    3264    3264       0    3266    3267    3268
    3269    3270    3271    3272    3273    3274    3275    3276    3277    3267
    3268    3269    3270    3271    3272    3273    3274    3277    3278    3279
    3280    3268    3269    3270    3271    3274    3275    3276    3277    3281
    3282    3283    3269    3271    3272    3273    3274    3278    3279    3280
    3284    3285    3286    3270    3271    3272    3273    3274    3277    3280
    3281    3283    3271    3275    3276    3277    3281    3282    3287    3288
    3289    3273    3274    3275    3276    3277    3281    3283    3287    3273
    3274    3278    3279    3280    3284    3285    3290    3274    3278    3279
    3280    3284    3286    3290    3277    3280    3284    3286    3276    3277
    3281    3282    3283    3287    3288    3289    3291    3292    3293    3294
    3281    3282    3281    3282    3283    3287    3279    3280    3284    3285
    3286    3290    3295    3296    3297    3284    3285    3284    3285    3286
    3290    3295    3296    3297    3282    3283    3287    3288    3289    3287
    3288    3289    3291    3292    3293    3294    3298    3299    3300    3287
    3285    3286    3290    3295    3296    3297    3301    3302    3303    3290
    3290       0    3289    3291    3292    3293    3294    3298    3299    3304
    3291    3292    3293    3294    3298    3300    3304    3295    3296    3297
    3301    3302    3303    3305    3306    3307    3292    3293    3298    3299
    3300    3304    3298    3299    3294    3298    3299    3300    3304    3298
    3300    3296    3297    3301    3302    3303    3305    3306    3307    3308
    3309    3310    3297    3301    3302    3303    3301    3302    3303    3299
    3300    3304    3304    3304    3302    3303    3305    3306    3307    3308
    3309    3310    3311    3312    3313    3303    3305    3306    3307    3305
    3306    3307       0    3306    3307    3308    3309    3310    3311    3312
    3313    3314    3315    3316    3307    3308    3309    3310    3308    3309
    3310    3309    3310    3311    3312    3313    3314    3315    3316    3317
    3318    3319    3310    3311    3312    3313    3311    3312    3313    3312
    3313    3314    3315    3316    3317    3318    3319    3320    3321    3322
    3313    3314    3315    3316    3314    3315    3316    3315    3316    3317
    3318    3319    3320    3321    3322    3323    3324    3325    3316    3317
    3318    3319    3317    3318    3319    3318    3319    3320    3321    3322
    3319    3320    3321    3322    3320    3321    3322    3323    3324    3325
    3326    3327    3328    3321    3322    3323    3324    3325    3326    3327
    3328    3322    3323    3324    3325    3323    3324    3325    3324    3325
    3326    3327    3328    3325    3326    3327    3328    3326    3327    3328
    3327    3328    3328       0    3330    3331    3332    3333    3334    3335
    3336    3337    3338    3339    3340    3341    3331    3332    3333    3334
    3335    3336    3337    3338    3341    3342    3343    3344    3332    3333
    3334    3335    3338    3339    3340    3341    3345    3346    3347    3333
    3335    3336    3337    3338    3342    3343    3344    3348    3349    3350
    3334    3335    3336    3337    3338    3341    3344    3345    3347    3335
    3339    3340    3341    3345    3346    3351    3352    3353    3337    3338
    3339    3340    3341    3345    3347    3351    3337    3338    3342    3343
    3344    3348    3349    3354    3338    3342    3343    3344    3348    3350
    3354    3341    3344    3348    3350    3340    3341    3345    3346    3347
    3351    3352    3353    3355    3356    3357    3358    3345    3346    3345
    3346    3347    3351    3343    3344    3348    3349    3350    3354    3359
    3360    3361    3348    3349    3348    3349    3350    3354    3359    3360
    3361    3346    3347    3351    3352    3353    3351    3352    3353    3355
    3356    3357    3358    3362    3363    3364    3351    3349    3350    3354
    3359    3360    3361    3365    3366    3367    3354    3354       0    3353
    3355    3356    3357    3358    3362    3363    3368    3355    3356    3357
    3358    3362    3364    3368    3359    3360    3361    3365    3366    3367
    3369    3370    3371    3356    3357    3362    3363    3364    3368    3362
    3363    3358    3362    3363    3364    3368    3362    3364    3360    3361
    3365    3366    3367    3369    3370    3371    3372    3373    3374    3361
    3365    3366    3367    3365    3366    3367    3363    3364    3368    3368
    3368    3366    3367    3369    3370    3371    3372    3373    3374    3375
    3376    3377    3367    3369    3370    3371    3369    3370    3371       0
    3370    3371    3372    3373    3374    3375    3376    3377    3378    3379
    3380    3371    3372    3373    3374    3372    3373    3374    3373    3374
    3375    3376    3377    3378    3379    3380    3381    3382    3383    3374
    3375    3376    3377    3375    3376    3377    3376    3377    3378    3379
    3380    3381    3382    3383    3384    3385    3386    3377    3378    3379
    3380    3378    3379    3380    3379    3380    3381    3382    3383    3384
    3385    3386    3387    3388    3389    3380    3381    3382    3383    3381
    3382    3383    3382    3383    3384    3385    3386    3383    3384    3385
    3386    3384    3385    3386    3387    3388    3389    3390    3391    3392
    3385    3386    3387    3388    3389    3390    3391    3392    3386    3387
    3388    3389    3387    3388    3389    3388    3389    3390    3391    3392
    3389    3390    3391    3392    3390    3391    3392    3391    3392    3392
       0    3394    3395    3396    3397    3398    3399    3400    3401    3402
    3403    3404    3405    3395    3396    3397    3398    3399    3400    3401
    3402    3405    3406    3407    3408    3396    3397    3398    3399    3402
    3403    3404    3405    3409    3410    3411    3397    3399    3400    3401
    3402    3406    3407    3408    3412    3413    3414    3398    3399    3400
    3401    3402    3405    3408    3409    3411    3399    3403    3404    3405
    3409    3410    3415    3416    3417    3401    3402    3403    3404    3405
    3409    3411    3415    3401    3402    3406    3407    3408    3412    3413
    3418    3402    3406    3407    3408    3412    3414    3418    3405    3408
    3412    3414    3404    3405    3409    3410    3411    3415    3416    3417
    3419    3420    3421    3422    3409    3410    3409    3410    3411    3415
    3407    3408    3412    3413    3414    3418    3423    3424    3425    3412
    3413    3412    3413    3414    3418    3423    3424    3425    3410    3411
    3415    3416    3417    3415    3416    3417    3419    3420    3421    3422
    3426    3427    3428    3415    3413    3414    3418    3423    3424    3425
    3429    3430    3431    3418    3418       0    3417    3419    3420    3421
    3422    3426    3427    3432    3419    3420    3421    3422    3426    3428
    3432    3423    3424    3425    3429    3430    3431    3433    3434    3435
    3420    3421    3426    3427    3428    3432    3426    3427    3422    3426
    3427    3428    3432    3426    3428    3424    3425    3429    3430    3431
    3433    3434    3435    3436    3437    3438    3425    3429    3430    3431
    3429    3430    3431    3427    3428    3432    3432    3432    3430    3431
    3433    3434    3435    3436    3437    3438    3439    3440    3441    3431
    3433    3434    3435    3433    3434    3435       0    3434    3435    3436
    3437    3438    3439    3440    3441    3442    3443    3444    3435    3436
    3437    3438    3436    3437    3438    3437    3438    3439    3440    3441
    3442    3443    3444    3445    3446    3447    3438    3439    3440    3441
    3439    3440    3441    3440    3441    3442    3443    3444    3445    3446
    3447    3448    3449    3450    3441    3442    3443    3444    3442    3443
    3444    3443    3444    3445    3446    3447    3448    3449    3450    3451
    3452    3453    3444    3445    3446    3447    3445    3446    3447    3446
    3447    3448    3449    3450    3447    3448    3449    3450    3448    3449
    3450    3451    3452    3453    3454    3455    3456    3449    3450    3451
    3452    3453    3454    3455    3456    3450    3451    3452    3453    3451
    3452    3453    3452    3453    3454    3455    3456    3453    3454    3455
    3456    3454    3455    3456    3455    3456    3456       0    3458    3459
    3460    3461    3462    3463    3464    3465    3466    3467    3468    3469
    3459    3460    3461    3462    3463    3464    3465    3466    3469    3470
    3471    3472    3460    3461    3462    3463    3466    3467    3468    3469
    3473    3474    3475    3461    3463    3464    3465    3466    3470    3471
    3472    3476    3477    3478    3462    3463    3464    3465    3466    3469
    3472    3473    3475    3463    3467    3468    3469    3473    3474    3479
    3480    3481    3465    3466    3467    3468    3469    3473    3475    3479
    3465    3466    3470    3471    3472    3476    3477    3482    3466    3470
    3471    3472    3476    3478    3482    3469    3472    3476    3478    3468
    3469    3473    3474    3475    3479    3480    3481    3483    3484    3485
    3486    3473    3474    3473    3474    3475    3479    3471    3472    3476
    3477    3478    3482    3487    3488    3489    3476    3477    3476    3477
    3478    3482    3487    3488    3489    3474    3475    3479    3480    3481
    3479    3480    3481    3483    3484    3485    3486    3490    3491    3492
    3479    3477    3478    3482    3487    3488    3489    3493    3494    3495
    3482    3482       0    3481    3483    3484    3485    3486    3490    3491
    3496    3483    3484    3485    3486    3490    3492    3496    3487    3488
    3489    3493    3494    3495    3497    3498    3499    3484    3485    3490
    3491    3492    3496    3490    3491    3486    3490    3491    3492    3496
    3490    3492    3488    3489    3493    3494    3495    3497    3498    3499
    3500    3501    3502    3489    3493    3494    3495    3493    3494    3495
    3491    3492    3496    3496    3496    3494    3495    3497    3498    3499
    3500    3501    3502    3503    3504    3505    3495    3497    3498    3499
    3497    3498    3499       0    3498    3499    3500    3501    3502    3503
    3504    3505    3506    3507    3508    3499    3500    3501    3502    3500
    3501    3502    3501    3502    3503    3504    3505    3506    3507    3508
    3509    3510    3511    3502    3503    3504    3505    3503    3504    3505
    3504    3505    3506    3507    3508    3509    3510    3511    3512    3513
    3514    3505    3506    3507    3508    3506    3507    3508    3507    3508
    3509    3510    3511    3512    3513    3514    3515    3516    3517    3508
    3509    3510    3511    3509    3510    3511    3510    3511    3512    3513
    3514    3511    3512    3513    3514    3512    3513    3514    3515    3516
    3517    3518    3519    3520    3513    3514    3515    3516    3517    3518
    3519    3520    3514    3515    3516    3517    3515    3516    3517    3516
    3517    3518    3519    3520    3517    3518    3519    3520    3518    3519
    3520    3519    3520    3520       0    3522    3523    3524    3525    3526
    3527    3528    3529    3530    3531    3532    3533    3523    3524    3525
    3526    3527    3528    3529    3530    3533    3534    3535    3536    3524
    3525    3526    3527    3530    3531    3532    3533    3537    3538    3539
    3525    3527    3528    3529    3530    3534    3535    3536    3540    3541
    3542    3526    3527    3528    3529    3530    3533    3536    3537    3539
    3527    3531    3532    3533    3537    3538    3543    3544    3545    3529
    3530    3531    3532    3533    3537    3539    3543    3529    3530    3534
    3535    3536    3540    3541    3546    3530    3534    3535    3536    3540
    3542    3546    3533    3536    3540    3542    3532    3533    3537    3538
    3539    3543    3544    3545    3547    3548    3549    3550    3537    3538
    3537    3538    3539    3543    3535    3536    3540    3541    3542    3546
    3551    3552    3553    3540    3541    3540    3541    3542    3546    3551
    3552    3553    3538    3539    3543    3544    3545    3543    3544    3545
    3547    3548    3549    3550    3554    3555    3556    3543    3541    3542
    3546    3551    3552    3553    3557    3558    3559    3546    3546       0
    3545    3547    3548    3549    3550    3554    3555    3560    3547    3548
    3549    3550    3554    3556    3560    3551    3552    3553    3557    3558
    3559    3561    3562    3563    3548    3549    3554    3555    3556    3560
    3554    3555    3550    3554    3555    3556    3560    3554    3556    3552
    3553    3557    3558    3559    3561    3562    3563    3564    3565    3566
    3553    3557    3558    3559    3557    3558    3559    3555    3556    3560
    3560    3560    3558    3559    3561    3562    3563    3564    3565    3566
    3567    3568    3569    3559    3561    3562    3563    3561    3562    3563
       0    3562    3563    3564    3565    3566    3567    3568    3569    3570
    3571    3572    3563    3564    3565    3566    3564    3565    3566    3565
    3566    3567    3568    3569    3570    3571    3572    3573    3574    3575
    3566    3567    3568    3569    3567    3568    3569    3568    3569    3570
    3571    3572    3573    3574    3575    3576    3577    3578    3569    3570
    3571    3572    3570    3571    3572    3571    3572    3573    3574    3575
    3576    3577    3578    3579    3580    3581    3572    3573    3574    3575
    3573    3574    3575    3574    3575    3576    3577    3578    3575    3576
    3577    3578    3576    3577    3578    3579    3580    3581    3582    3583
    3584    3577    3578    3579    3580    3581    3582    3583    3584    3578
    3579    3580    3581    3579    3580    3581    3580    3581    3582    3583
    3584    3581    3582    3583    3584    3582    3583    3584    3583    3584
    3584       0    3586    3587    3588    3589    3590    3591    3592    3593
    3594    3595    3596    3597    3587    3588    3589    3590    3591    3592
    3593    3594    3597    3598    3599    3600    3588    3589    3590    3591
    3594    3595    3596    3597    3601    3602    3603    3589    3591    3592
    3593    3594    3598    3599    3600    3604    3605    3606    3590    3591
    3592    3593    3594    3597    3600    3601    3603    3591    3595    3596
    3597    3601    3602    3607    3608    3609    3593    3594    3595    3596
    3597    3601    3603    3607    3593    3594    3598    3599    3600    3604
    3605    3610    3594    3598    3599    3600    3604    3606    3610    3597
    3600    3604    3606    3596    3597    3601    3602    3603    3607    3608
    3609    3611    3612    3613    3614    3601    3602    3601    3602    3603
    3607    3599    3600    3604    3605    3606    3610    3615    3616    3617
    3604    3605    3604    3605    3606    3610    3615    3616    3617    3602
    3603    3607    3608    3609    3607    3608    3609    3611    3612    3613
    3614    3618    3619    3620    3607    3605    3606    3610    3615    3616
    3617    3621    3622    3623    3610    3610       0    3609    3611    3612
    3613    3614    3618    3619    3624    3611    3612    3613    3614    3618
    3620    3624    3615    3616    3617    3621    3622    3623    3625    3626
    3627    3612    3613    3618    3619    3620    3624    3618    3619    3614
    3618    3619    3620    3624    3618    3620    3616    3617    3621    3622
    3623    3625    3626    3627    3628    3629    3630    3617    3621    3622
    3623    3621    3622    3623    3619    3620    3624    3624    3624    3622
    3623    3625    3626    3627    3628    3629    3630    3631    3632    3633
    3623    3625    3626    3627    3625    3626    3627       0    3626    3627
    3628    3629    3630    3631    3632    3633    3634    3635    3636    3627
    3628    3629    3630    3628    3629    3630    3629    3630    3631    3632
    3633    3634    3635    3636    3637    3638    3639    3630    3631    3632
    3633    3631    3632    3633    3632    3633    3634    3635    3636    3637
    3638    3639    3640    3641    3642    3633    3634    3635    3636    3634
    3635    3636    3635    3636    3637    3638    3639    3640    3641    3642
    3643    3644    3645    3636    3637    3638    3639    3637    3638    3639
    3638    3639    3640    3641    3642    3639    3640    3641    3642    3640
    3641    3642    3643    3644    3645    3646    3647    3648    3641    3642
    3643    3644    3645    3646    3647    3648    3642    3643    3644    3645
    3643    3644    3645    3644    3645    3646    3647    3648    3645    3646
    3647    3648    3646    3647    3648    3647    3648    3648       0    3650
    3651    3652    3653    3654    3655    3656    3657    3658    3659    3660
    3661    3651    3652    3653    3654    3655    3656    3657    3658    3661
    3662    3663    3664    3652    3653    3654    3655    3658    3659    3660
    3661    3665    3666    3667    3653    3655    3656    3657    3658    3662
    3663    3664    3668    3669    3670    3654    3655    3656    3657    3658
    3661    3664    3665    3667    3655    3659    3660    3661    3665    3666
    3671    3672    3673    3657    3658    3659    3660    3661    3665    3667
    3671    3657    3658    3662    3663    3664    3668    3669    3674    3658
    3662    3663    3664    3668    3670    3674    3661    3664    3668    3670
    3660    3661    3665    3666    3667    3671    3672    3673    3675    3676
    3677    3678    3665    3666    3665    3666    3667    3671    3663    3664
    3668    3669    3670    3674    3679    3680    3681    3668    3669    3668
    3669    3670    3674    3679    3680    3681    3666    3667    3671    3672
    3673    3671    3672    3673    3675    3676    3677    3678    3682    3683
    3684    3671    3669    3670    3674    3679    3680    3681    3685    3686
    3687    3674    3674       0    3673    3675    3676    3677    3678    3682
    3683    3688    3675    3676    3677    3678    3682    3684    3688    3679
    3680    3681    3685    3686    3687    3689    3690    3691    3676    3677
    3682    3683    3684    3688    3682    3683    3678    3682    3683    3684
    3688    3682    3684    3680    3681    3685    3686    3687    3689    3690
    3691    3692    3693    3694    3681    3685    3686    3687    3685    3686
    3687    3683    3684    3688    3688    3688    3686    3687    3689    3690
    3691    3692    3693    3694    3695    3696    3697    3687    3689    3690
    3691    3689    3690    3691       0    3690    3691    3692    3693    3694
    3695    3696    3697    3698    3699    3700    3691    3692    3693    3694
    3692    3693    3694    3693    3694    3695    3696    3697    3698    3699
    3700    3701    3702    3703    3694    3695    3696    3697    3695    3696
    3697    3696    3697    3698    3699    3700    3701    3702    3703    3704
    3705    3706    3697    3698    3699    3700    3698    3699    3700    3699
    3700    3701    3702    3703    3704    3705    3706    3707    3708    3709
    3700    3701    3702    3703    3701    3702    3703    3702    3703    3704
    3705    3706    3703    3704    3705    3706    3704    3705    3706    3707
    3708    3709    3710    3711    3712    3705    3706    3707    3708    3709
    3710    3711    3712    3706    3707    3708    3709    3707    3708    3709
    3708    3709    3710    3711    3712    3709    3710    3711    3712    3710
    3711    3712    3711    3712    3712       0    3714    3715    3716    3717
    3718    3719    3720    3721    3722    3723    3724    3725    3715    3716
    3717    3718    3719    3720    3721    3722    3725    3726    3727    3728
    3716    3717    3718    3719    3722    3723    3724    3725    3729    3730
    3731    3717    3719    3720    3721    3722    3726    3727    3728    3732
    3733    3734    3718    3719    3720    3721    3722    3725    3728    3729
    3731    3719    3723    3724    3725    3729    3730    3735    3736    3737
    3721    3722    3723    3724    3725    3729    3731    3735    3721    3722
    3726    3727    3728    3732    3733    3738    3722    3726    3727    3728
    3732    3734    3738    3725    3728    3732    3734    3724    3725    3729
    3730    3731    3735    3736    3737    3739    3740    3741    3742    3729
    3730    3729    3730    3731    3735    3727    3728    3732    3733    3734
    3738    3743    3744    3745    3732    3733    3732    3733    3734    3738
    3743    3744    3745    3730    3731    3735    3736    3737    3735    3736
    3737    3739    3740    3741    3742    3746    3747    3748    3735    3733
    3734    3738    3743    3744    3745    3749    3750    3751    3738    3738
       0    3737    3739    3740    3741    3742    3746    3747    3752    3739
    3740    3741    3742    3746    3748    3752    3743    3744    3745    3749
    3750    3751    3753    3754    3755    3740    3741    3746    3747    3748
    3752    3746    3747    3742    3746    3747    3748    3752    3746    3748
    3744    3745    3749    3750    3751    3753    3754    3755    3756    3757
    3758    3745    3749    3750    3751    3749    3750    3751    3747    3748
    3752    3752    3752    3750    3751    3753    3754    3755    3756    3757
    3758    3759    3760    3761    3751    3753    3754    3755    3753    3754
    3755       0    3754    3755    3756    3757    3758    3759    3760    3761
    3762    3763    3764    3755    3756    3757    3758    3756    3757    3758
    3757    3758    3759    3760    3761    3762    3763    3764    3765    3766
    3767    3758    3759    3760    3761    3759    3760    3761    3760    3761
    3762    3763    3764    3765    3766    3767    3768    3769    3770    3761
    3762    3763    3764    3762    3763    3764    3763    3764    3765    3766
    3767    3768    3769    3770    3771    3772    3773    3764    3765    3766
    3767    3765    3766    3767    3766    3767    3768    3769    3770    3767
    3768    3769    3770    3768    3769    3770    3771    3772    3773    3774
    3775    3776    3769    3770    3771    3772    3773    3774    3775    3776
    3770    3771    3772    3773    3771    3772    3773    3772    3773    3774
    3775    3776    3773    3774    3775    3776    3774    3775    3776    3775
    3776    3776       0    3778    3779    3780    3781    3782    3783    3784
    3785    3786    3787    3788    3789    3779    3780    3781    3782    3783
    3784    3785    3786    3789    3790    3791    3792    3780    3781    3782
    3783    3786    3787    3788    3789    3793    3794    3795    3781    3783
    3784    3785    3786    3790    3791    3792    3796    3797    3798    3782
    3783    3784    3785    3786    3789    3792    3793    3795    3783    3787
    3788    3789    3793    3794    3799    3800    3801    3785    3786    3787
    3788    3789    3793    3795    3799    3785    3786    3790    3791    3792
    3796    3797    3802    3786    3790    3791    3792    3796    3798    3802
    3789    3792    3796    3798    3788    3789    3793    3794    3795    3799
    3800    3801    3803    3804    3805    3806    3793    3794    3793    3794
    3795    3799    3791    3792    3796    3797    3798    3802    3807    3808
    3809    3796    3797    3796    3797    3798    3802    3807    3808    3809
    3794    3795    3799    3800    3801    3799    3800    3801    3803    3804
    3805    3806    3810    3811    3812    3799    3797    3798    3802    3807
    3808    3809    3813    3814    3815    3802    3802       0    3801    3803
    3804    3805    3806    3810    3811    3816    3803    3804    3805    3806
    3810    3812    3816    3807    3808    3809    3813    3814    3815    3817
    3818    3819    3804    3805    3810    3811    3812    3816    3810    3811
    3806    3810    3811    3812    3816    3810    3812    3808    3809    3813
    3814    3815    3817    3818    3819    3820    3821    3822    3809    3813
    3814    3815    3813    3814    3815    3811    3812    3816    3816    3816
    3814    3815    3817    3818    3819    3820    3821    3822    3823    3824
    3825    3815    3817    3818    3819    3817    3818    3819       0    3818
    3819    3820    3821    3822    3823    3824    3825    3826    3827    3828
    3819    3820    3821    3822    3820    3821    3822    3821    3822    3823
    3824    3825    3826    3827    3828    3829    3830    3831    3822    3823
    3824    3825    3823    3824    3825    3824    3825    3826    3827    3828
    3829    3830    3831    3832    3833    3834    3825    3826    3827    3828
    3826    3827    3828    3827    3828    3829    3830    3831    3832    3833
    3834    3835    3836    3837    3828    3829    3830    3831    3829    3830
    3831    3830    3831    3832    3833    3834    3831    3832    3833    3834
    3832    3833    3834    3835    3836    3837    3838    3839    3840    3833
    3834    3835    3836    3837    3838    3839    3840    3834    3835    3836
    3837    3835    3836    3837    3836    3837    3838    3839    3840    3837
    3838    3839    3840    3838    3839    3840    3839    3840    3840       0
    3842    3843    3844    3845    3846    3847    3848    3849    3850    3851
    3852    3853    3843    3844    3845    3846    3847    3848    3849    3850
    3853    3854    3855    3856    3844    3845    3846    3847    3850    3851
    3852    3853    3857    3858    3859    3845    3847    3848    3849    3850
    3854    3855    3856    3860    3861    3862    3846    3847    3848    3849
    3850    3853    3856    3857    3859    3847    3851    3852    3853    3857
    3858    3863    3864    3865    3849    3850    3851    3852    3853    3857
    3859    3863    3849    3850    3854    3855    3856    3860    3861    3866
    3850    3854    3855    3856    3860    3862    3866    3853    3856    3860
    3862    3852    3853    3857    3858    3859    3863    3864    3865    3867
    3868    3869    3870    3857    3858    3857    3858    3859    3863    3855
    3856    3860    3861    3862    3866    3871    3872    3873    3860    3861
    3860    3861    3862    3866    3871    3872    3873    3858    3859    3863
    3864    3865    3863    3864    3865    3867    3868    3869    3870    3874
    3875    3876    3863    3861    3862    3866    3871    3872    3873    3877
    3878    3879    3866    3866       0    3865    3867    3868    3869    3870
    3874    3875    3880    3867    3868    3869    3870    3874    3876    3880
    3871    3872    3873    3877    3878    3879    3881    3882    3883    3868
    3869    3874    3875    3876    3880    3874    3875    3870    3874    3875
    3876    3880    3874    3876    3872    3873    3877    3878    3879    3881
    3882    3883    3884    3885    3886    3873    3877    3878    3879    3877
    3878    3879    3875    3876    3880    3880    3880    3878    3879    3881
    3882    3883    3884    3885    3886    3887    3888    3889    3879    3881
    3882    3883    3881    3882    3883       0    3882    3883    3884    3885
    3886    3887    3888    3889    3890    3891    3892    3883    3884    3885
    3886    3884    3885    3886    3885    3886    3887    3888    3889    3890
    3891    3892    3893    3894    3895    3886    3887    3888    3889    3887
    3888    3889    3888    3889    3890    3891    3892    3893    3894    3895
    3896    3897    3898    3889    3890    3891    3892    3890    3891    3892
    3891    3892    3893    3894    3895    3896    3897    3898    3899    3900
    3901    3892    3893    3894    3895    3893    3894    3895    3894    3895
    3896    3897    3898    3895    3896    3897    3898    3896    3897    3898
    3899    3900    3901    3902    3903    3904    3897    3898    3899    3900
    3901    3902    3903    3904    3898    3899    3900    3901    3899    3900
    3901    3900    3901    3902    3903    3904    3901    3902    3903    3904
    3902    3903    3904    3903    3904    3904       0    3906    3907    3908
    3909    3910    3911    3912    3913    3914    3915    3916    3917    3907
    3908    3909    3910    3911    3912    3913    3914    3917    3918    3919
    3920    3908    3909    3910    3911    3914    3915    3916    3917    3921
    3922    3923    3909    3911    3912    3913    3914    3918    3919    3920
    3924    3925    3926    3910    3911    3912    3913    3914    3917    3920
    3921    3923    3911    3915    3916    3917    3921    3922    3927    3928
    3929    3913    3914    3915    3916    3917    3921    3923    3927    3913
    3914    3918    3919    3920    3924    3925    3930    3914    3918    3919
    3920    3924    3926    3930    3917    3920    3924    3926    3916    3917
    3921    3922    3923    3927    3928    3929    3931    3932    3933    3934
    3921    3922    3921    3922    3923    3927    3919    3920    3924    3925
    3926    3930    3935    3936    3937    3924    3925    3924    3925    3926
    3930    3935    3936    3937    3922    3923    3927    3928    3929    3927
    3928    3929    3931    3932    3933    3934    3938    3939    3940    3927
    3925    3926    3930    3935    3936    3937    3941    3942    3943    3930
    3930       0    3929    3931    3932    3933    3934    3938    3939    3944
    3931    3932    3933    3934    3938    3940    3944    3935    3936    3937
    3941    3942    3943    3945    3946    3947    3932    3933    3938    3939
    3940    3944    3938    3939    3934    3938    3939    3940    3944    3938
    3940    3936    3937    3941    3942    3943    3945    3946    3947    3948
    3949    3950    3937    3941    3942    3943    3941    3942    3943    3939
    3940    3944    3944    3944    3942    3943    3945    3946    3947    3948
    3949    3950    3951    3952    3953    3943    3945    3946    3947    3945
    3946    3947       0    3946    3947    3948    3949    3950    3951    3952
    3953    3954    3955    3956    3947    3948    3949    3950    3948    3949
    3950    3949    3950    3951    3952    3953    3954    3955    3956    3957
    3958    3959    3950    3951    3952    3953    3951    3952    3953    3952
    3953    3954    3955    3956    3957    3958    3959    3960    3961    3962
    3953    3954    3955    3956    3954    3955    3956    3955    3956    3957
    3958    3959    3960    3961    3962    3963    3964    3965    3956    3957
    3958    3959    3957    3958    3959    3958    3959    3960    3961    3962
    3959    3960    3961    3962    3960    3961    3962    3963    3964    3965
    3966    3967    3968    3961    3962    3963    3964    3965    3966    3967
    3968    3962    3963    3964    3965    3963    3964    3965    3964    3965
    3966    3967    3968    3965    3966    3967    3968    3966    3967    3968
    3967    3968    3968       0    3970    3971    3972    3973    3974    3975
    3976    3977    3978    3979    3980    3981    3971    3972    3973    3974
    3975    3976    3977    3978    3981    3982    3983    3984    3972    3973
    3974    3975    3978    3979    3980    3981    3985    3986    3987    3973
    3975    3976    3977    3978    3982    3983    3984    3988    3989    3990
    3974    3975    3976    3977    3978    3981    3984    3985    3987    3975
    3979    3980    3981    3985    3986    3991    3992    3993    3977    3978
    3979    3980    3981    3985    3987    3991    3977    3978    3982    3983
    3984    3988    3989    3994    3978    3982    3983    3984    3988    3990
    3994    3981    3984    3988    3990    3980    3981    3985    3986    3987
    3991    3992    3993    3995    3996    3997    3998    3985    3986    3985
    3986    3987    3991    3983    3984    3988    3989    3990    3994    3999
    4000    4001    3988    3989    3988    3989    3990    3994    3999    4000
    4001    3986    3987    3991    3992    3993    3991    3992    3993    3995
    3996    3997    3998    4002    4003    4004    3991    3989    3990    3994
    3999    4000    4001    4005    4006    4007    3994    3994       0    3993
    3995    3996    3997    3998    4002    4003    4008    3995    3996    3997
    3998    4002    4004    4008    3999    4000    4001    4005    4006    4007
    4009    4010    4011    3996    3997    4002    4003    4004    4008    4002
    4003    3998    4002    4003    4004    4008    4002    4004    4000    4001
    4005    4006    4007    4009    4010    4011    4012    4013    4014    4001
    4005    4006    4007    4005    4006    4007    4003    4004    4008    4008
    4008    4006    4007    4009    4010    4011    4012    4013    4014    4015
    4016    4017    4007    4009    4010    4011    4009    4010    4011       0
    4010    4011    4012    4013    4014    4015    4016    4017    4018    4019
    4020    4011    4012    4013    4014    4012    4013    4014    4013    4014
    4015    4016    4017    4018    4019    4020    4021    4022    4023    4014
    4015    4016    4017    4015    4016    4017    4016    4017    4018    4019
    4020    4021    4022    4023    4024    4025    4026    4017    4018    4019
    4020    4018    4019    4020    4019    4020    4021    4022    4023    4024
    4025    4026    4027    4028    4029    4020    4021    4022    4023    4021
    4022    4023    4022    4023    4024    4025    4026    4023    4024    4025
    4026    4024    4025    4026    4027    4028    4029    4030    4031    4032
    4025    4026    4027    4028    4029    4030    4031    4032    4026    4027
    4028    4029    4027    4028    4029    4028    4029    4030    4031    4032
    4029    4030    4031    4032    4030    4031    4032    4031    4032    4032
       0    4034    4035    4036    4037    4038    4039    4040    4041    4042
    4043    4044    4045    4035    4036    4037    4038    4039    4040    4041
    4042    4045    4046    4047    4048    4036    4037    4038    4039    4042
    4043    4044    4045    4049    4050    4051    4037    4039    4040    4041
    4042    4046    4047    4048    4052    4053    4054    4038    4039    4040
    4041    4042    4045    4048    4049    4051    4039    4043    4044    4045
    4049    4050    4055    4056    4057    4041    4042    4043    4044    4045
    4049    4051    4055    4041    4042    4046    4047    4048    4052    4053
    4058    4042    4046    4047    4048    4052    4054    4058    4045    4048
    4052    4054    4044    4045    4049    4050    4051    4055    4056    4057
    4059    4060    4061    4062    4049    4050    4049    4050    4051    4055
    4047    4048    4052    4053    4054    4058    4063    4064    4065    4052
    4053    4052    4053    4054    4058    4063    4064    4065    4050    4051
    4055    4056    4057    4055    4056    4057    4059    4060    4061    4062
    4066    4067    4068    4055    4053    4054    4058    4063    4064    4065
    4069    4070    4071    4058    4058       0    4057    4059    4060    4061
    4062    4066    4067    4072    4059    4060    4061    4062    4066    4068
    4072    4063    4064    4065    4069    4070    4071    4073    4074    4075
    4060    4061    4066    4067    4068    4072    4066    4067    4062    4066
    4067    4068    4072    4066    4068    4064    4065    4069    4070    4071
    4073    4074    4075    4076    4077    4078    4065    4069    4070    4071
    4069    4070    4071    4067    4068    4072    4072    4072    4070    4071
    4073    4074    4075    4076    4077    4078    4079    4080    4081    4071
    4073    4074    4075    4073    4074    4075       0    4074    4075    4076
    4077    4078    4079    4080    4081    4082    4083    4084    4075    4076
    4077    4078    4076    4077    4078    4077    4078    4079    4080    4081
    4082    4083    4084    4085    4086    4087    4078    4079    4080    4081
    4079    4080    4081    4080    4081    4082    4083    4084    4085    4086
    4087    4088    4089    4090    4081    4082    4083    4084    4082    4083
    4084    4083    4084    4085    4086    4087    4088    4089    4090    4091
    4092    4093    4084    4085    4086    4087    4085    4086    4087    4086
    4087    4088    4089    4090    4087    4088    4089    4090    4088    4089
    4090    4091    4092    4093    4094    4095    4096    4089    4090    4091
    4092    4093    4094    4095    4096    4090    4091    4092    4093    4091
    4092    4093    4092    4093    4094    4095    4096    4093    4094    4095
    4096    4094    4095    4096    4095    4096    4096       0    4098    4099
    4100    4101    4102    4103    4104    4105    4106    4107    4108    4109
    4099    4100    4101    4102    4103    4104    4105    4106    4109    4110
    4111    4112    4100    4101    4102    4103    4106    4107    4108    4109
    4113    4114    4115    4101    4103    4104    4105    4106    4110    4111
    4112    4116    4117    4118    4102    4103    4104    4105    4106    4109
    4112    4113    4115    4103    4107    4108    4109    4113    4114    4119
    4120    4121    4105    4106    4107    4108    4109    4113    4115    4119
    4105    4106    4110    4111    4112    4116    4117    4122    4106    4110
    4111    4112    4116    4118    4122    4109    4112    4116    4118    4108
    4109    4113    4114    4115    4119    4120    4121    4123    4124    4125
    4126    4113    4114    4113    4114    4115    4119    4111    4112    4116
    4117    4118    4122    4127    4128    4129    4116    4117    4116    4117
    4118    4122    4127    4128    4129    4114    4115    4119    4120    4121
    4119    4120    4121    4123    4124    4125    4126    4130    4131    4132
    4119    4117    4118    4122    4127    4128    4129    4133    4134    4135
    4122    4122       0    4121    4123    4124    4125    4126    4130    4131
    4136    4123    4124    4125    4126    4130    4132    4136    4127    4128
    4129    4133    4134    4135    4137    4138    4139    4124    4125    4130
    4131    4132    4136    4130    4131    4126    4130    4131    4132    4136
    4130    4132    4128    4129    4133    4134    4135    4137    4138    4139
    4140    4141    4142    4129    4133    4134    4135    4133    4134    4135
    4131    4132    4136    4136    4136    4134    4135    4137    4138    4139
    4140    4141    4142    4143    4144    4145    4135    4137    4138    4139
    4137    4138    4139       0    4138    4139    4140    4141    4142    4143
    4144    4145    4146    4147    4148    4139    4140    4141    4142    4140
    4141    4142    4141    4142    4143    4144    4145    4146    4147    4148
    4149    4150    4151    4142    4143    4144    4145    4143    4144    4145
    4144    4145    4146    4147    4148    4149    4150    4151    4152    4153
    4154    4145    4146    4147    4148    4146    4147    4148    4147    4148
    4149    4150    4151    4152    4153    4154    4155    4156    4157    4148
    4149    4150    4151    4149    4150    4151    4150    4151    4152    4153
    4154    4151    4152    4153    4154    4152    4153    4154    4155    4156
    4157    4158    4159    4160    4153    4154    4155    4156    4157    4158
    4159    4160    4154    4155    4156    4157    4155    4156    4157    4156
    4157    4158    4159    4160    4157    4158    4159    4160    4158    4159
    4160    4159    4160    4160       0    4162    4163    4164    4165    4166
    4167    4168    4169    4170    4171    4172    4173    4163    4164    4165
    4166    4167    4168    4169    4170    4173    4174    4175    4176    4164
    4165    4166    4167    4170    4171    4172    4173    4177    4178    4179
    4165    4167    4168    4169    4170    4174    4175    4176    4180    4181
    4182    4166    4167    4168    4169    4170    4173    4176    4177    4179
    4167    4171    4172    4173    4177    4178    4183    4184    4185    4169
    4170    4171    4172    4173    4177    4179    4183    4169    4170    4174
    4175    4176    4180    4181    4186    4170    4174    4175    4176    4180
    4182    4186    4173    4176    4180    4182    4172    4173    4177    4178
    4179    4183    4184    4185    4187    4188    4189    4190    4177    4178
    4177    4178    4179    4183    4175    4176    4180    4181    4182    4186
    4191    4192    4193    4180    4181    4180    4181    4182    4186    4191
    4192    4193    4178    4179    4183    4184    4185    4183    4184    4185
    4187    4188    4189    4190    4194    4195    4196    4183    4181    4182
    4186    4191    4192    4193    4197    4198    4199    4186    4186       0
    4185    4187    4188    4189    4190    4194    4195    4200    4187    4188
    4189    4190    4194    4196    4200    4191    4192    4193    4197    4198
    4199    4201    4202    4203    4188    4189    4194    4195    4196    4200
    4194    4195    4190    4194    4195    4196    4200    4194    4196    4192
    4193    4197    4198    4199    4201    4202    4203    4204    4205    4206
    4193    4197    4198    4199    4197    4198    4199    4195    4196    4200
    4200    4200    4198    4199    4201    4202    4203    4204    4205    4206
    4207    4208    4209    4199    4201    4202    4203    4201    4202    4203
       0    4202    4203    4204    4205    4206    4207    4208    4209    4210
    4211    4212    4203    4204    4205    4206    4204    4205    4206    4205
    4206    4207    4208    4209    4210    4211    4212    4213    4214    4215
    4206    4207    4208    4209    4207    4208    4209    4208    4209    4210
    4211    4212    4213    4214    4215    4216    4217    4218    4209    4210
    4211    4212    4210    4211    4212    4211    4212    4213    4214    4215
    4216    4217    4218    4219    4220    4221    4212    4213    4214    4215
    4213    4214    4215    4214    4215    4216    4217    4218    4215    4216
    4217    4218    4216    4217    4218    4219    4220    4221    4222    4223
    4224    4217    4218    4219    4220    4221    4222    4223    4224    4218
    4219    4220    4221    4219    4220    4221    4220    4221    4222    4223
    4224    4221    4222    4223    4224    4222    4223    4224    4223    4224
    4224       0    4226    4227    4228    4229    4230    4231    4232    4233
    4234    4235    4236    4237    4227    4228    4229    4230    4231    4232
    4233    4234    4237    4238    4239    4240    4228    4229    4230    4231
    4234    4235    4236    4237    4241    4242    4243    4229    4231    4232
    4233    4234    4238    4239    4240    4244    4245    4246    4230    4231
    4232    4233    4234    4237    4240    4241    4243    4231    4235    4236
    4237    4241    4242    4247    4248    4249    4233    4234    4235    4236
    4237    4241    4243    4247    4233    4234    4238    4239    4240    4244
    4245    4250    4234    4238    4239    4240    4244    4246    4250    4237
    4240    4244    4246    4236    4237    4241    4242    4243    4247    4248
    4249    4251    4252    4253    4254    4241    4242    4241    4242    4243
    4247    4239    4240    4244    4245    4246    4250    4255    4256    4257
    4244    4245    4244    4245    4246    4250    4255    4256    4257    4242
    4243    4247    4248    4249    4247    4248    4249    4251    4252    4253
    4254    4258    4259    4260    4247    4245    4246    4250    4255    4256
    4257    4261    4262    4263    4250    4250       0    4249    4251    4252
    4253    4254    4258    4259    4264    4251    4252    4253    4254    4258
    4260    4264    4255    4256    4257    4261    4262    4263    4265    4266
    4267    4252    4253    4258    4259    4260    4264    4258    4259    4254
    4258    4259    4260    4264    4258    4260    4256    4257    4261    4262
    4263    4265    4266    4267    4268    4269    4270    4257    4261    4262
    4263    4261    4262    4263    4259    4260    4264    4264    4264    4262
    4263    4265    4266    4267    4268    4269    4270    4271    4272    4273
    4263    4265    4266    4267    4265    4266    4267       0    4266    4267
    4268    4269    4270    4271    4272    4273    4274    4275    4276    4267
    4268    4269    4270    4268    4269    4270    4269    4270    4271    4272
    4273    4274    4275    4276    4277    4278    4279    4270    4271    4272
    4273    4271    4272    4273    4272    4273    4274    4275    4276    4277
    4278    4279    4280    4281    4282    4273    4274    4275    4276    4274
    4275    4276    4275    4276    4277    4278    4279    4280    4281    4282
    4283    4284    4285    4276    4277    4278    4279    4277    4278    4279
    4278    4279    4280    4281    4282    4279    4280    4281    4282    4280
    4281    4282    4283    4284    4285    4286    4287    4288    4281    4282
    4283    4284    4285    4286    4287    4288    4282    4283    4284    4285
    4283    4284    4285    4284    4285    4286    4287    4288    4285    4286
    4287    4288    4286    4287    4288    4287    4288    4288       0    4290
    4291    4292    4293    4294    4295    4296    4297    4298    4299    4300
    4301    4291    4292    4293    4294    4295    4296    4297    4298    4301
    4302    4303    4304    4292    4293    4294    4295    4298    4299    4300
    4301    4305    4306    4307    4293    4295    4296    4297    4298    4302
    4303    4304    4308    4309    4310    4294    4295    4296    4297    4298
    4301    4304    4305    4307    4295    4299    4300    4301    4305    4306
    4311    4312    4313    4297    4298    4299    4300    4301    4305    4307
    4311    4297    4298    4302    4303    4304    4308    4309    4314    4298
    4302    4303    4304    4308    4310    4314    4301    4304    4308    4310
    4300    4301    4305    4306    4307    4311    4312    4313    4315    4316
    4317    4318    4305    4306    4305    4306    4307    4311    4303    4304
    4308    4309    4310    4314    4319    4320    4321    4308    4309    4308
    4309    4310    4314    4319    4320    4321    4306    4307    4311    4312
    4313    4311    4312    4313    4315    4316    4317    4318    4322    4323
    4324    4311    4309    4310    4314    4319    4320    4321    4325    4326
    4327    4314    4314       0    4313    4315    4316    4317    4318    4322
    4323    4328    4315    4316    4317    4318    4322    4324    4328    4319
    4320    4321    4325    4326    4327    4329    4330    4331    4316    4317
    4322    4323    4324    4328    4322    4323    4318    4322    4323    4324
    4328    4322    4324    4320    4321    4325    4326    4327    4329    4330
    4331    4332    4333    4334    4321    4325    4326    4327    4325    4326
    4327    4323    4324    4328    4328    4328    4326    4327    4329    4330
    4331    4332    4333    4334    4335    4336    4337    4327    4329    4330
    4331    4329    4330    4331       0    4330    4331    4332    4333    4334
    4335    4336    4337    4338    4339    4340    4331    4332    4333    4334
    4332    4333    4334    4333    4334    4335    4336    4337    4338    4339
    4340    4341    4342    4343    4334    4335    4336    4337    4335    4336
    4337    4336    4337    4338    4339    4340    4341    4342    4343    4344
    4345    4346    4337    4338    4339    4340    4338    4339    4340    4339
    4340    4341    4342    4343    4344    4345    4346    4347    4348    4349
    4340    4341    4342    4343    4341    4342    4343    4342    4343    4344
    4345    4346    4343    4344    4345    4346    4344    4345    4346    4347
    4348    4349    4350    4351    4352    4345    4346    4347    4348    4349
    4350    4351    4352    4346    4347    4348    4349    4347    4348    4349
    4348    4349    4350    4351    4352    4349    4350    4351    4352    4350
    4351    4352    4351    4352    4352       0    4354    4355    4356    4357
    4358    4359    4360    4361    4362    4363    4364    4365    4355    4356
    4357    4358    4359    4360    4361    4362    4365    4366    4367    4368
    4356    4357    4358    4359    4362    4363    4364    4365    4369    4370
    4371    4357    4359    4360    4361    4362    4366    4367    4368    4372
    4373    4374    4358    4359    4360    4361    4362    4365    4368    4369
    4371    4359    4363    4364    4365    4369    4370    4375    4376    4377
    4361    4362    4363    4364    4365    4369    4371    4375    4361    4362
    4366    4367    4368    4372    4373    4378    4362    4366    4367    4368
    4372    4374    4378    4365    4368    4372    4374    4364    4365    4369
    4370    4371    4375    4376    4377    4379    4380    4381    4382    4369
    4370    4369    4370    4371    4375    4367    4368    4372    4373    4374
    4378    4383    4384    4385    4372    4373    4372    4373    4374    4378
    4383    4384    4385    4370    4371    4375    4376    4377    4375    4376
    4377    4379    4380    4381    4382    4386    4387    4388    4375    4373
    4374    4378    4383    4384    4385    4389    4390    4391    4378    4378
       0    4377    4379    4380    4381    4382    4386    4387    4392    4379
    4380    4381    4382    4386    4388    4392    4383    4384    4385    4389
    4390    4391    4393    4394    4395    4380    4381    4386    4387    4388
    4392    4386    4387    4382    4386    4387    4388    4392    4386    4388
    4384    4385    4389    4390    4391    4393    4394    4395    4396    4397
    4398    4385    4389    4390    4391    4389    4390    4391    4387    4388
    4392    4392    4392    4390    4391    4393    4394    4395    4396    4397
    4398    4399    4400    4401    4391    4393    4394    4395    4393    4394
    4395       0    4394    4395    4396    4397    4398    4399    4400    4401
    4402    4403    4404    4395    4396    4397    4398    4396    4397    4398
    4397    4398    4399    4400    4401    4402    4403    4404    4405    4406
    4407    4398    4399    4400    4401    4399    4400    4401    4400    4401
    4402    4403    4404    4405    4406    4407    4408    4409    4410    4401
    4402    4403    4404    4402    4403    4404    4403    4404    4405    4406
    4407    4408    4409    4410    4411    4412    4413    4404    4405    4406
    4407    4405    4406    4407    4406    4407    4408    4409    4410    4407
    4408    4409    4410    4408    4409    4410    4411    4412    4413    4414
    4415    4416    4409    4410    4411    4412    4413    4414    4415    4416
    4410    4411    4412    4413    4411    4412    4413    4412    4413    4414
    4415    4416    4413    4414    4415    4416    4414    4415    4416    4415
    4416    4416       0    4418    4419    4420    4421    4422    4423    4424
    4425    4426    4427    4428    4429    4419    4420    4421    4422    4423
    4424    4425    4426    4429    4430    4431    4432    4420    4421    4422
    4423    4426    4427    4428    4429    4433    4434    4435    4421    4423
    4424    4425    4426    4430    4431    4432    4436    4437    4438    4422
    4423    4424    4425    4426    4429    4432    4433    4435    4423    4427
    4428    4429    4433    4434    4439    4440    4441    4425    4426    4427
    4428    4429    4433    4435    4439    4425    4426    4430    4431    4432
    4436    4437    4442    4426    4430    4431    4432    4436    4438    4442
    4429    4432    4436    4438    4428    4429    4433    4434    4435    4439
    4440    4441    4443    4444    4445    4446    4433    4434    4433    4434
    4435    4439    4431    4432    4436    4437    4438    4442    4447    4448
    4449    4436    4437    4436    4437    4438    4442    4447    4448    4449
    4434    4435    4439    4440    4441    4439    4440    4441    4443    4444
    4445    4446    4450    4451    4452    4439    4437    4438    4442    4447
    4448    4449    4453    4454    4455    4442    4442       0    4441    4443
    4444    4445    4446    4450    4451    4456    4443    4444    4445    4446
    4450    4452    4456    4447    4448    4449    4453    4454    4455    4457
    4458    4459    4444    4445    4450    4451    4452    4456    4450    4451
    4446    4450    4451    4452    4456    4450    4452    4448    4449    4453
    4454    4455    4457    4458    4459    4460    4461    4462    4449    4453
    4454    4455    4453    4454    4455    4451    4452    4456    4456    4456
    4454    4455    4457    4458    4459    4460    4461    4462    4463    4464
    4465    4455    4457    4458    4459    4457    4458    4459       0    4458
    4459    4460    4461    4462    4463    4464    4465    4466    4467    4468
    4459    4460    4461    4462    4460    4461    4462    4461    4462    4463
    4464    4465    4466    4467    4468    4469    4470    4471    4462    4463
    4464    4465    4463    4464    4465    4464    4465    4466    4467    4468
    4469    4470    4471    4472    4473    4474    4465    4466    4467    4468
    4466    4467    4468    4467    4468    4469    4470    4471    4472    4473
    4474    4475    4476    4477    4468    4469    4470    4471    4469    4470
    4471    4470    4471    4472    4473    4474    4471    4472    4473    4474
    4472    4473    4474    4475    4476    4477    4478    4479    4480    4473
    4474    4475    4476    4477    4478    4479    4480    4474    4475    4476
    4477    4475    4476    4477    4476    4477    4478    4479    4480    4477
    4478    4479    4480    4478    4479    4480    4479    4480    4480       0
    4482    4483    4484    4485    4486    4487    4488    4489    4490    4491
    4492    4493    4483    4484    4485    4486    4487    4488    4489    4490
    4493    4494    4495    4496    4484    4485    4486    4487    4490    4491
    4492    4493    4497    4498    4499    4485    4487    4488    4489    4490
    4494    4495    4496    4500    4501    4502    4486    4487    4488    4489
    4490    4493    4496    4497    4499    4487    4491    4492    4493    4497
    4498    4503    4504    4505    4489    4490    4491    4492    4493    4497
    4499    4503    4489    4490    4494    4495    4496    4500    4501    4506
    4490    4494    4495    4496    4500    4502    4506    4493    4496    4500
    4502    4492    4493    4497    4498    4499    4503    4504    4505    4507
    4508    4509    4510    4497    4498    4497    4498    4499    4503    4495
    4496    4500    4501    4502    4506    4511    4512    4513    4500    4501
    4500    4501    4502    4506    4511    4512    4513    4498    4499    4503
    4504    4505    4503    4504    4505    4507    4508    4509    4510    4514
    4515    4516    4503    4501    4502    4506    4511    4512    4513    4517
    4518    4519    4506    4506       0    4505    4507    4508    4509    4510
    4514    4515    4520    4507    4508    4509    4510    4514    4516    4520
    4511    4512    4513    4517    4518    4519    4521    4522    4523    4508
    4509    4514    4515    4516    4520    4514    4515    4510    4514    4515
    4516    4520    4514    4516    4512    4513    4517    4518    4519    4521
    4522    4523    4524    4525    4526    4513    4517    4518    4519    4517
    4518    4519    4515    4516    4520    4520    4520    4518    4519    4521
    4522    4523    4524    4525    4526    4527    4528    4529    4519    4521
    4522    4523    4521    4522    4523       0    4522    4523    4524    4525
    4526    4527    4528    4529    4530    4531    4532    4523    4524    4525
    4526    4524    4525    4526    4525    4526    4527    4528    4529    4530
    4531    4532    4533    4534    4535    4526    4527    4528    4529    4527
    4528    4529    4528    4529    4530    4531    4532    4533    4534    4535
    4536    4537    4538    4529    4530    4531    4532    4530    4531    4532
    4531    4532    4533    4534    4535    4536    4537    4538    4539    4540
    4541    4532    4533    4534    4535    4533    4534    4535    4534    4535
    4536    4537    4538    4535    4536    4537    4538    4536    4537    4538
    4539    4540    4541    4542    4543    4544    4537    4538    4539    4540
    4541    4542    4543    4544    4538    4539    4540    4541    4539    4540
    4541    4540    4541    4542    4543    4544    4541    4542    4543    4544
    4542    4543    4544    4543    4544    4544       0    4546    4547    4548
    4549    4550    4551    4552    4553    4554    4555    4556    4557    4547
    4548    4549    4550    4551    4552    4553    4554    4557    4558    4559
    4560    4548    4549    4550    4551    4554    4555    4556    4557    4561
    4562    4563    4549    4551    4552    4553    4554    4558    4559    4560
    4564    4565    4566    4550    4551    4552    4553    4554    4557    4560
    4561    4563    4551    4555    4556    4557    4561    4562    4567    4568
    4569    4553    4554    4555    4556    4557    4561    4563    4567    4553
    4554    4558    4559    4560    4564    4565    4570    4554    4558    4559
    4560    4564    4566    4570    4557    4560    4564    4566    4556    4557
    4561    4562    4563    4567    4568    4569    4571    4572    4573    4574
    4561    4562    4561    4562    4563    4567    4559    4560    4564    4565
    4566    4570    4575    4576    4577    4564    4565    4564    4565    4566
    4570    4575    4576    4577    4562    4563    4567    4568    4569    4567
    4568    4569    4571    4572    4573    4574    4578    4579    4580    4567
    4565    4566    4570    4575    4576    4577    4581    4582    4583    4570
    4570       0    4569    4571    4572    4573    4574    4578    4579    4584
    4571    4572    4573    4574    4578    4580    4584    4575    4576    4577
    4581    4582    4583    4585    4586    4587    4572    4573    4578    4579
    4580    4584    4578    4579    4574    4578    4579    4580    4584    4578
    4580    4576    4577    4581    4582    4583    4585    4586    4587    4588
    4589    4590    4577    4581    4582    4583    4581    4582    4583    4579
    4580    4584    4584    4584    4582    4583    4585    4586    4587    4588
    4589    4590    4591    4592    4593    4583    4585    4586    4587    4585
    4586    4587       0    4586    4587    4588    4589    4590    4591    4592
    4593    4594    4595    4596    4587    4588    4589    4590    4588    4589
    4590    4589    4590    4591    4592    4593    4594    4595    4596    4597
    4598    4599    4590    4591    4592    4593    4591    4592    4593    4592
    4593    4594    4595    4596    4597    4598    4599    4600    4601    4602
    4593    4594    4595    4596    4594    4595    4596    4595    4596    4597
    4598    4599    4600    4601    4602    4603    4604    4605    4596    4597
    4598    4599    4597    4598    4599    4598    4599    4600    4601    4602
    4599    4600    4601    4602    4600    4601    4602    4603    4604    4605
    4606    4607    4608    4601    4602    4603    4604    4605    4606    4607
    4608    4602    4603    4604    4605    4603    4604    4605    4604    4605
    4606    4607    4608    4605    4606    4607    4608    4606    4607    4608
    4607    4608    4608       0    4610    4611    4612    4613    4614    4615
    4616    4617    4618    4619    4620    4621    4611    4612    4613    4614
    4615    4616    4617    4618    4621    4622    4623    4624    4612    4613
    4614    4615    4618    4619    4620    4621    4625    4626    4627    4613
    4615    4616    4617    4618    4622    4623    4624    4628    4629    4630
    4614    4615    4616    4617    4618    4621    4624    4625    4627    4615
    4619    4620    4621    4625    4626    4631    4632    4633    4617    4618
    4619    4620    4621    4625    4627    4631    4617    4618    4622    4623
    4624    4628    4629    4634    4618    4622    4623    4624    4628    4630
    4634    4621    4624    4628    4630    4620    4621    4625    4626    4627
    4631    4632    4633    4635    4636    4637    4638    4625    4626    4625
    4626    4627    4631    4623    4624    4628    4629    4630    4634    4639
    4640    4641    4628    4629    4628    4629    4630    4634    4639    4640
    4641    4626    4627    4631    4632    4633    4631    4632    4633    4635
    4636    4637    4638    4642    4643    4644    4631    4629    4630    4634
    4639    4640    4641    4645    4646    4647    4634    4634       0    4633
    4635    4636    4637    4638    4642    4643    4648    4635    4636    4637
    4638    4642    4644    4648    4639    4640    4641    4645    4646    4647
    4649    4650    4651    4636    4637    4642    4643    4644    4648    4642
    4643    4638    4642    4643    4644    4648    4642    4644    4640    4641
    4645    4646    4647    4649    4650    4651    4652    4653    4654    4641
    4645    4646    4647    4645    4646    4647    4643    4644    4648    4648
    4648    4646    4647    4649    4650    4651    4652    4653    4654    4655
    4656    4657    4647    4649    4650    4651    4649    4650    4651       0
    4650    4651    4652    4653    4654    4655    4656    4657    4658    4659
    4660    4651    4652    4653    4654    4652    4653    4654    4653    4654
    4655    4656    4657    4658    4659    4660    4661    4662    4663    4654
    4655    4656    4657    4655    4656    4657    4656    4657    4658    4659
    4660    4661    4662    4663    4664    4665    4666    4657    4658    4659
    4660    4658    4659    4660    4659    4660    4661    4662    4663    4664
    4665    4666    4667    4668    4669    4660    4661    4662    4663    4661
    4662    4663    4662    4663    4664    4665    4666    4663    4664    4665
    4666    4664    4665    4666    4667    4668    4669    4670    4671    4672
    4665    4666    4667    4668    4669    4670    4671    4672    4666    4667
    4668    4669    4667    4668    4669    4668    4669    4670    4671    4672
    4669    4670    4671    4672    4670    4671    4672    4671    4672    4672
       0    4674    4675    4676    4677    4678    4679    4680    4681    4682
    4683    4684    4685    4675    4676    4677    4678    4679    4680    4681
    4682    4685    4686    4687    4688    4676    4677    4678    4679    4682
    4683    4684    4685    4689    4690    4691    4677    4679    4680    4681
    4682    4686    4687    4688    4692    4693    4694    4678    4679    4680
    4681    4682    4685    4688    4689    4691    4679    4683    4684    4685
    4689    4690    4695    4696    4697    4681    4682    4683    4684    4685
    4689    4691    4695    4681    4682    4686    4687    4688    4692    4693
    4698    4682    4686    4687    4688    4692    4694    4698    4685    4688
    4692    4694    4684    4685    4689    4690    4691    4695    4696    4697
    4699    4700    4701    4702    4689    4690    4689    4690    4691    4695
    4687    4688    4692    4693    4694    4698    4703    4704    4705    4692
    4693    4692    4693    4694    4698    4703    4704    4705    4690    4691
    4695    4696    4697    4695    4696    4697    4699    4700    4701    4702
    4706    4707    4708    4695    4693    4694    4698    4703    4704    4705
    4709    4710    4711    4698    4698       0    4697    4699    4700    4701
    4702    4706    4707    4712    4699    4700    4701    4702    4706    4708
    4712    4703    4704    4705    4709    4710    4711    4713    4714    4715
    4700    4701    4706    4707    4708    4712    4706    4707    4702    4706
    4707    4708    4712    4706    4708    4704    4705    4709    4710    4711
    4713    4714    4715    4716    4717    4718    4705    4709    4710    4711
    4709    4710    4711    4707    4708    4712    4712    4712    4710    4711
    4713    4714    4715    4716    4717    4718    4719    4720    4721    4711
    4713    4714    4715    4713    4714    4715       0    4714    4715    4716
    4717    4718    4719    4720    4721    4722    4723    4724    4715    4716
    4717    4718    4716    4717    4718    4717    4718    4719    4720    4721
    4722    4723    4724    4725    4726    4727    4718    4719    4720    4721
    4719    4720    4721    4720    4721    4722    4723    4724    4725    4726
    4727    4728    4729    4730    4721    4722    4723    4724    4722    4723
    4724    4723    4724    4725    4726    4727    4728    4729    4730    4731
    4732    4733    4724    4725    4726    4727    4725    4726    4727    4726
    4727    4728    4729    4730    4727    4728    4729    4730    4728    4729
    4730    4731    4732    4733    4734    4735    4736    4729    4730    4731
    4732    4733    4734    4735    4736    4730    4731    4732    4733    4731
    4732    4733    4732    4733    4734    4735    4736    4733    4734    4735
    4736    4734    4735    4736    4735    4736    4736       0    4738    4739
    4740    4741    4742    4743    4744    4745    4746    4747    4748    4749
    4739    4740    4741    4742    4743    4744    4745    4746    4749    4750
    4751    4752    4740    4741    4742    4743    4746    4747    4748    4749
    4753    4754    4755    4741    4743    4744    4745    4746    4750    4751
    4752    4756    4757    4758    4742    4743    4744    4745    4746    4749
    4752    4753    4755    4743    4747    4748    4749    4753    4754    4759
    4760    4761    4745    4746    4747    4748    4749    4753    4755    4759
    4745    4746    4750    4751    4752    4756    4757    4762    4746    4750
    4751    4752    4756    4758    4762    4749    4752    4756    4758    4748
    4749    4753    4754    4755    4759    4760    4761    4763    4764    4765
    4766    4753    4754    4753    4754    4755    4759    4751    4752    4756
    4757    4758    4762    4767    4768    4769    4756    4757    4756    4757
    4758    4762    4767    4768    4769    4754    4755    4759    4760    4761
    4759    4760    4761    4763    4764    4765    4766    4770    4771    4772
    4759    4757    4758    4762    4767    4768    4769    4773    4774    4775
    4762    4762       0    4761    4763    4764    4765    4766    4770    4771
    4776    4763    4764    4765    4766    4770    4772    4776    4767    4768
    4769    4773    4774    4775    4777    4778    4779    4764    4765    4770
    4771    4772    4776    4770    4771    4766    4770    4771    4772    4776
    4770    4772    4768    4769    4773    4774    4775    4777    4778    4779
    4780    4781    4782    4769    4773    4774    4775    4773    4774    4775
    4771    4772    4776    4776    4776    4774    4775    4777    4778    4779
    4780    4781    4782    4783    4784    4785    4775    4777    4778    4779
    4777    4778    4779       0    4778    4779    4780    4781    4782    4783
    4784    4785    4786    4787    4788    4779    4780    4781    4782    4780
    4781    4782    4781    4782    4783    4784    4785    4786    4787    4788
    4789    4790    4791    4782    4783    4784    4785    4783    4784    4785
    4784    4785    4786    4787    4788    4789    4790    4791    4792    4793
    4794    4785    4786    4787    4788    4786    4787    4788    4787    4788
    4789    4790    4791    4792    4793    4794    4795    4796    4797    4788
    4789    4790    4791    4789    4790    4791    4790    4791    4792    4793
    4794    4791    4792    4793    4794    4792    4793    4794    4795    4796
    4797    4798    4799    4800    4793    4794    4795    4796    4797    4798
    4799    4800    4794    4795    4796    4797    4795    4796    4797    4796
    4797    4798    4799    4800    4797    4798    4799    4800    4798    4799
    4800    4799    4800    4800       0    4802    4803    4804    4805    4806
    4807    4808    4809    4810    4811    4812    4813    4803    4804    4805
    4806    4807    4808    4809    4810    4813    4814    4815    4816    4804
    4805    4806    4807    4810    4811    4812    4813    4817    4818    4819
    4805    4807    4808    4809    4810    4814    4815    4816    4820    4821
    4822    4806    4807    4808    4809    4810    4813    4816    4817    4819
    4807    4811    4812    4813    4817    4818    4823    4824    4825    4809
    4810    4811    4812    4813    4817    4819    4823    4809    4810    4814
    4815    4816    4820    4821    4826    4810    4814    4815    4816    4820
    4822    4826    4813    4816    4820    4822    4812    4813    4817    4818
    4819    4823    4824    4825    4827    4828    4829    4830    4817    4818
    4817    4818    4819    4823    4815    4816    4820    4821    4822    4826
    4831    4832    4833    4820    4821    4820    4821    4822    4826    4831
    4832    4833    4818    4819    4823    4824    4825    4823    4824    4825
    4827    4828    4829    4830    4834    4835    4836    4823    4821    4822
    4826    4831    4832    4833    4837    4838    4839    4826    4826       0
    4825    4827    4828    4829    4830    4834    4835    4840    4827    4828
    4829    4830    4834    4836    4840    4831    4832    4833    4837    4838
    4839    4841    4842    4843    4828    4829    4834    4835    4836    4840
    4834    4835    4830    4834    4835    4836    4840    4834    4836    4832
    4833    4837    4838    4839    4841    4842    4843    4844    4845    4846
    4833    4837    4838    4839    4837    4838    4839    4835    4836    4840
    4840    4840    4838    4839    4841    4842    4843    4844    4845    4846
    4847    4848    4849    4839    4841    4842    4843    4841    4842    4843
       0    4842    4843    4844    4845    4846    4847    4848    4849    4850
    4851    4852    4843    4844    4845    4846    4844    4845    4846    4845
    4846    4847    4848    4849    4850    4851    4852    4853    4854    4855
    4846    4847    4848    4849    4847    4848    4849    4848    4849    4850
    4851    4852    4853    4854    4855    4856    4857    4858    4849    4850
    4851    4852    4850    4851    4852    4851    4852    4853    4854    4855
    4856    4857    4858    4859    4860    4861    4852    4853    4854    4855
    4853    4854    4855    4854    4855    4856    4857    4858    4855    4856
    4857    4858    4856    4857    4858    4859    4860    4861    4862    4863
    4864    4857    4858    4859    4860    4861    4862    4863    4864    4858
    4859    4860    4861    4859    4860    4861    4860    4861    4862    4863
    4864    4861    4862    4863    4864    4862    4863    4864    4863    4864
    4864       0    4866    4867    4868    4869    4870    4871    4872    4873
    4874    4875    4876    4877    4867    4868    4869    4870    4871    4872
    4873    4874    4877    4878    4879    4880    4868    4869    4870    4871
    4874    4875    4876    4877    4881    4882    4883    4869    4871    4872
    4873    4874    4878    4879    4880    4884    4885    4886    4870    4871
    4872    4873    4874    4877    4880    4881    4883    4871    4875    4876
    4877    4881    4882    4887    4888    4889    4873    4874    4875    4876
    4877    4881    4883    4887    4873    4874    4878    4879    4880    4884
    4885    4890    4874    4878    4879    4880    4884    4886    4890    4877
    4880    4884    4886    4876    4877    4881    4882    4883    4887    4888
    4889    4891    4892    4893    4894    4881    4882    4881    4882    4883
    4887    4879    4880    4884    4885    4886    4890    4895    4896    4897
    4884    4885    4884    4885    4886    4890    4895    4896    4897    4882
    4883    4887    4888    4889    4887    4888    4889    4891    4892    4893
    4894    4898    4899    4900    4887    4885    4886    4890    4895    4896
    4897    4901    4902    4903    4890    4890       0    4889    4891    4892
    4893    4894    4898    4899    4904    4891    4892    4893    4894    4898
    4900    4904    4895    4896    4897    4901    4902    4903    4905    4906
    4907    4892    4893    4898    4899    4900    4904    4898    4899    4894
    4898    4899    4900    4904    4898    4900    4896    4897    4901    4902
    4903    4905    4906    4907    4908    4909    4910    4897    4901    4902
    4903    4901    4902    4903    4899    4900    4904    4904    4904    4902
    4903    4905    4906    4907    4908    4909    4910    4911    4912    4913
    4903    4905    4906    4907    4905    4906    4907       0    4906    4907
    4908    4909    4910    4911    4912    4913    4914    4915    4916    4907
    4908    4909    4910    4908    4909    4910    4909    4910    4911    4912
    4913    4914    4915    4916    4917    4918    4919    4910    4911    4912
    4913    4911    4912    4913    4912    4913    4914    4915    4916    4917
    4918    4919    4920    4921    4922    4913    4914    4915    4916    4914
    4915    4916    4915    4916    4917    4918    4919    4920    4921    4922
    4923    4924    4925    4916    4917    4918    4919    4917    4918    4919
    4918    4919    4920    4921    4922    4919    4920    4921    4922    4920
    4921    4922    4923    4924    4925    4926    4927    4928    4921    4922
    4923    4924    4925    4926    4927    4928    4922    4923    4924    4925
    4923    4924    4925    4924    4925    4926    4927    4928    4925    4926
    4927    4928    4926    4927    4928    4927    4928    4928       0    4930
    4931    4932    4933    4934    4935    4936    4937    4938    4939    4940
    4941    4931    4932    4933    4934    4935    4936    4937    4938    4941
    4942    4943    4944    4932    4933    4934    4935    4938    4939    4940
    4941    4945    4946    4947    4933    4935    4936    4937    4938    4942
    4943    4944    4948    4949    4950    4934    4935    4936    4937    4938
    4941    4944    4945    4947    4935    4939    4940    4941    4945    4946
    4951    4952    4953    4937    4938    4939    4940    4941    4945    4947
    4951    4937    4938    4942    4943    4944    4948    4949    4954    4938
    4942    4943    4944    4948    4950    4954    4941    4944    4948    4950
    4940    4941    4945    4946    4947    4951    4952    4953    4955    4956
    4957    4958    4945    4946    4945    4946    4947    4951    4943    4944
    4948    4949    4950    4954    4959    4960    4961    4948    4949    4948
    4949    4950    4954    4959    4960    4961    4946    4947    4951    4952
    4953    4951    4952    4953    4955    4956    4957    4958    4962    4963
    4964    4951    4949    4950    4954    4959    4960    4961    4965    4966
    4967    4954    4954       0    4953    4955    4956    4957    4958    4962
    4963    4968    4955    4956    4957    4958    4962    4964    4968    4959
    4960    4961    4965    4966    4967    4969    4970    4971    4956    4957
    4962    4963    4964    4968    4962    4963    4958    4962    4963    4964
    4968    4962    4964    4960    4961    4965    4966    4967    4969    4970
    4971    4972    4973    4974    4961    4965    4966    4967    4965    4966
    4967    4963    4964    4968    4968    4968    4966    4967    4969    4970
    4971    4972    4973    4974    4975    4976    4977    4967    4969    4970
    4971    4969    4970    4971       0    4970    4971    4972    4973    4974
    4975    4976    4977    4978    4979    4980    4971    4972    4973    4974
    4972    4973    4974    4973    4974    4975    4976    4977    4978    4979
    4980    4981    4982    4983    4974    4975    4976    4977    4975    4976
    4977    4976    4977    4978    4979    4980    4981    4982    4983    4984
    4985    4986    4977    4978    4979    4980    4978    4979    4980    4979
    4980    4981    4982    4983    4984    4985    4986    4987    4988    4989
    4980    4981    4982    4983    4981    4982    4983    4982    4983    4984
    4985    4986    4983    4984    4985    4986    4984    4985    4986    4987
    4988    4989    4990    4991    4992    4985    4986    4987    4988    4989
    4990    4991    4992    4986    4987    4988    4989    4987    4988    4989
    4988    4989    4990    4991    4992    4989    4990    4991    4992    4990
    4991    4992    4991    4992    4992       0    4994    4995    4996    4997
    4998    4999    5000    5001    5002    5003    5004    5005    4995    4996
    4997    4998    4999    5000    5001    5002    5005    5006    5007    5008
    4996    4997    4998    4999    5002    5003    5004    5005    5009    5010
    5011    4997    4999    5000    5001    5002    5006    5007    5008    5012
    5013    5014    4998    4999    5000    5001    5002    5005    5008    5009
    5011    4999    5003    5004    5005    5009    5010    5015    5016    5017
    5001    5002    5003    5004    5005    5009    5011    5015    5001    5002
    5006    5007    5008    5012    5013    5018    5002    5006    5007    5008
    5012    5014    5018    5005    5008    5012    5014    5004    5005    5009
    5010    5011    5015    5016    5017    5019    5020    5021    5022    5009
    5010    5009    5010    5011    5015    5007    5008    5012    5013    5014
    5018    5023    5024    5025    5012    5013    5012    5013    5014    5018
    5023    5024    5025    5010    5011    5015    5016    5017    5015    5016
    5017    5019    5020    5021    5022    5026    5027    5028    5015    5013
    5014    5018    5023    5024    5025    5029    5030    5031    5018    5018
       0    5017    5019    5020    5021    5022    5026    5027    5032    5019
    5020    5021    5022    5026    5028    5032    5023    5024    5025    5029
    5030    5031    5033    5034    5035    5020    5021    5026    5027    5028
    5032    5026    5027    5022    5026    5027    5028    5032    5026    5028
    5024    5025    5029    5030    5031    5033    5034    5035    5036    5037
    5038    5025    5029    5030    5031    5029    5030    5031    5027    5028
    5032    5032    5032    5030    5031    5033    5034    5035    5036    5037
    5038    5039    5040    5041    5031    5033    5034    5035    5033    5034
    5035       0    5034    5035    5036    5037    5038    5039    5040    5041
    5042    5043    5044    5035    5036    5037    5038    5036    5037    5038
    5037    5038    5039    5040    5041    5042    5043    5044    5045    5046
    5047    5038    5039    5040    5041    5039    5040    5041    5040    5041
    5042    5043    5044    5045    5046    5047    5048    5049    5050    5041
    5042    5043    5044    5042    5043    5044    5043    5044    5045    5046
    5047    5048    5049    5050    5051    5052    5053    5044    5045    5046
    5047    5045    5046    5047    5046    5047    5048    5049    5050    5047
    5048    5049    5050    5048    5049    5050    5051    5052    5053    5054
    5055    5056    5049    5050    5051    5052    5053    5054    5055    5056
    5050    5051    5052    5053    5051    5052    5053    5052    5053    5054
    5055    5056    5053    5054    5055    5056    5054    5055    5056    5055
    5056    5056       0    5058    5059    5060    5061    5062    5063    5064
    5065    5066    5067    5068    5069    5059    5060    5061    5062    5063
    5064    5065    5066    5069    5070    5071    5072    5060    5061    5062
    5063    5066    5067    5068    5069    5073    5074    5075    5061    5063
    5064    5065    5066    5070    5071    5072    5076    5077    5078    5062
    5063    5064    5065    5066    5069    5072    5073    5075    5063    5067
    5068    5069    5073    5074    5079    5080    5081    5065    5066    5067
    5068    5069    5073    5075    5079    5065    5066    5070    5071    5072
    5076    5077    5082    5066    5070    5071    5072    5076    5078    5082
    5069    5072    5076    5078    5068    5069    5073    5074    5075    5079
    5080    5081    5083    5084    5085    5086    5073    5074    5073    5074
    5075    5079    5071    5072    5076    5077    5078    5082    5087    5088
    5089    5076    5077    5076    5077    5078    5082    5087    5088    5089
    5074    5075    5079    5080    5081    5079    5080    5081    5083    5084
    5085    5086    5090    5091    5092    5079    5077    5078    5082    5087
    5088    5089    5093    5094    5095    5082    5082       0    5081    5083
    5084    5085    5086    5090    5091    5096    5083    5084    5085    5086
    5090    5092    5096    5087    5088    5089    5093    5094    5095    5097
    5098    5099    5084    5085    5090    5091    5092    5096    5090    5091
    5086    5090    5091    5092    5096    5090    5092    5088    5089    5093
    5094    5095    5097    5098    5099    5100    5101    5102    5089    5093
    5094    5095    5093    5094    5095    5091    5092    5096    5096    5096
    5094    5095    5097    5098    5099    5100    5101    5102    5103    5104
    5105    5095    5097    5098    5099    5097    5098    5099       0    5098
    5099    5100    5101    5102    5103    5104    5105    5106    5107    5108
    5099    5100    5101    5102    5100    5101    5102    5101    5102    5103
    5104    5105    5106    5107    5108    5109    5110    5111    5102    5103
    5104    5105    5103    5104    5105    5104    5105    5106    5107    5108
    5109    5110    5111    5112    5113    5114    5105    5106    5107    5108
    5106    5107    5108    5107    5108    5109    5110    5111    5112    5113
    5114    5115    5116    5117    5108    5109    5110    5111    5109    5110
    5111    5110    5111    5112    5113    5114    5111    5112    5113    5114
    5112    5113    5114    5115    5116    5117    5118    5119    5120    5113
    5114    5115    5116    5117    5118    5119    5120    5114    5115    5116
    5117    5115    5116    5117    5116    5117    5118    5119    5120    5117
    5118    5119    5120    5118    5119    5120    5119    5120    5120       0
    5122    5123    5124    5125    5126    5127    5128    5129    5130    5131
    5132    5133    5123    5124    5125    5126    5127    5128    5129    5130
    5133    5134    5135    5136    5124    5125    5126    5127    5130    5131
    5132    5133    5137    5138    5139    5125    5127    5128    5129    5130
    5134    5135    5136    5140    5141    5142    5126    5127    5128    5129
    5130    5133    5136    5137    5139    5127    5131    5132    5133    5137
    5138    5143    5144    5145    5129    5130    5131    5132    5133    5137
    5139    5143    5129    5130    5134    5135    5136    5140    5141    5146
    5130    5134    5135    5136    5140    5142    5146    5133    5136    5140
    5142    5132    5133    5137    5138    5139    5143    5144    5145    5147
    5148    5149    5150    5137    5138    5137    5138    5139    5143    5135
    5136    5140    5141    5142    5146    5151    5152    5153    5140    5141
    5140    5141    5142    5146    5151    5152    5153    5138    5139    5143
    5144    5145    5143    5144    5145    5147    5148    5149    5150    5154
    5155    5156    5143    5141    5142    5146    5151    5152    5153    5157
    5158    5159    5146    5146       0    5145    5147    5148    5149    5150
    5154    5155    5160    5147    5148    5149    5150    5154    5156    5160
    5151    5152    5153    5157    5158    5159    5161    5162    5163    5148
    5149    5154    5155    5156    5160    5154    5155    5150    5154    5155
    5156    5160    5154    5156    5152    5153    5157    5158    5159    5161
    5162    5163    5164    5165    5166    5153    5157    5158    5159    5157
    5158    5159    5155    5156    5160    5160    5160    5158    5159    5161
    5162    5163    5164    5165    5166    5167    5168    5169    5159    5161
    5162    5163    5161    5162    5163       0    5162    5163    5164    5165
    5166    5167    5168    5169    5170    5171    5172    5163    5164    5165
    5166    5164    5165    5166    5165    5166    5167    5168    5169    5170
    5171    5172    5173    5174    5175    5166    5167    5168    5169    5167
    5168    5169    5168    5169    5170    5171    5172    5173    5174    5175
    5176    5177    5178    5169    5170    5171    5172    5170    5171    5172
    5171    5172    5173    5174    5175    5176    5177    5178    5179    5180
    5181    5172    5173    5174    5175    5173    5174    5175    5174    5175
    5176    5177    5178    5175    5176    5177    5178    5176    5177    5178
    5179    5180    5181    5182    5183    5184    5177    5178    5179    5180
    5181    5182    5183    5184    5178    5179    5180    5181    5179    5180
    5181    5180    5181    5182    5183    5184    5181    5182    5183    5184
    5182    5183    5184    5183    5184    5184       0    5186    5187    5188
    5189    5190    5191    5192    5193    5194    5195    5196    5197    5187
    5188    5189    5190    5191    5192    5193    5194    5197    5198    5199
    5200    5188    5189    5190    5191    5194    5195    5196    5197    5201
    5202    5203    5189    5191    5192    5193    5194    5198    5199    5200
    5204    5205    5206    5190    5191    5192    5193    5194    5197    5200
    5201    5203    5191    5195    5196    5197    5201    5202    5207    5208
    5209    5193    5194    5195    5196    5197    5201    5203    5207    5193
    5194    5198    5199    5200    5204    5205    5210    5194    5198    5199
    5200    5204    5206    5210    5197    5200    5204    5206    5196    5197
    5201    5202    5203    5207    5208    5209    5211    5212    5213    5214
    5201    5202    5201    5202    5203    5207    5199    5200    5204    5205
    5206    5210    5215    5216    5217    5204    5205    5204    5205    5206
    5210    5215    5216    5217    5202    5203    5207    5208    5209    5207
    5208    5209    5211    5212    5213    5214    5218    5219    5220    5207
    5205    5206    5210    5215    5216    5217    5221    5222    5223    5210
    5210       0    5209    5211    5212    5213    5214    5218    5219    5224
    5211    5212    5213    5214    5218    5220    5224    5215    5216    5217
    5221    5222    5223    5225    5226    5227    5212    5213    5218    5219
    5220    5224    5218    5219    5214    5218    5219    5220    5224    5218
    5220    5216    5217    5221    5222    5223    5225    5226    5227    5228
    5229    5230    5217    5221    5222    5223    5221    5222    5223    5219
    5220    5224    5224    5224    5222    5223    5225    5226    5227    5228
    5229    5230    5231    5232    5233    5223    5225    5226    5227    5225
    5226    5227       0    5226    5227    5228    5229    5230    5231    5232
    5233    5234    5235    5236    5227    5228    5229    5230    5228    5229
    5230    5229    5230    5231    5232    5233    5234    5235    5236    5237
    5238    5239    5230    5231    5232    5233    5231    5232    5233    5232
    5233    5234    5235    5236    5237    5238    5239    5240    5241    5242
    5233    5234    5235    5236    5234    5235    5236    5235    5236    5237
    5238    5239    5240    5241    5242    5243    5244    5245    5236    5237
    5238    5239    5237    5238    5239    5238    5239    5240    5241    5242
    5239    5240    5241    5242    5240    5241    5242    5243    5244    5245
    5246    5247    5248    5241    5242    5243    5244    5245    5246    5247
    5248    5242    5243    5244    5245    5243    5244    5245    5244    5245
    5246    5247    5248    5245    5246    5247    5248    5246    5247    5248
    5247    5248    5248       0    5250    5251    5252    5253    5254    5255
    5256    5257    5258    5259    5260    5261    5251    5252    5253    5254
    5255    5256    5257    5258    5261    5262    5263    5264    5252    5253
    5254    5255    5258    5259    5260    5261    5265    5266    5267    5253
    5255    5256    5257    5258    5262    5263    5264    5268    5269    5270
    5254    5255    5256    5257    5258    5261    5264    5265    5267    5255
    5259    5260    5261    5265    5266    5271    5272    5273    5257    5258
    5259    5260    5261    5265    5267    5271    5257    5258    5262    5263
    5264    5268    5269    5274    5258    5262    5263    5264    5268    5270
    5274    5261    5264    5268    5270    5260    5261    5265    5266    5267
    5271    5272    5273    5275    5276    5277    5278    5265    5266    5265
    5266    5267    5271    5263    5264    5268    5269    5270    5274    5279
    5280    5281    5268    5269    5268    5269    5270    5274    5279    5280
    5281    5266    5267    5271    5272    5273    5271    5272    5273    5275
    5276    5277    5278    5282    5283    5284    5271    5269    5270    5274
    5279    5280    5281    5285    5286    5287    5274    5274       0    5273
    5275    5276    5277    5278    5282    5283    5288    5275    5276    5277
    5278    5282    5284    5288    5279    5280    5281    5285    5286    5287
    5289    5290    5291    5276    5277    5282    5283    5284    5288    5282
    5283    5278    5282    5283    5284    5288    5282    5284    5280    5281
    5285    5286    5287    5289    5290    5291    5292    5293    5294    5281
    5285    5286    5287    5285    5286    5287    5283    5284    5288    5288
    5288    5286    5287    5289    5290    5291    5292    5293    5294    5295
    5296    5297    5287    5289    5290    5291    5289    5290    5291       0
    5290    5291    5292    5293    5294    5295    5296    5297    5298    5299
    5300    5291    5292    5293    5294    5292    5293    5294    5293    5294
    5295    5296    5297    5298    5299    5300    5301    5302    5303    5294
    5295    5296    5297    5295    5296    5297    5296    5297    5298    5299
    5300    5301    5302    5303    5304    5305    5306    5297    5298    5299
    5300    5298    5299    5300    5299    5300    5301    5302    5303    5304
    5305    5306    5307    5308    5309    5300    5301    5302    5303    5301
    5302    5303    5302    5303    5304    5305    5306    5303    5304    5305
    5306    5304    5305    5306    5307    5308    5309    5310    5311    5312
    5305    5306    5307    5308    5309    5310    5311    5312    5306    5307
    5308    5309    5307    5308    5309    5308    5309    5310    5311    5312
    5309    5310    5311    5312    5310    5311    5312    5311    5312    5312
       0    5314    5315    5316    5317    5318    5319    5320    5321    5322
    5323    5324    5325    5315    5316    5317    5318    5319    5320    5321
    5322    5325    5326    5327    5328    5316    5317    5318    5319    5322
    5323    5324    5325    5329    5330    5331    5317    5319    5320    5321
    5322    5326    5327    5328    5332    5333    5334    5318    5319    5320
    5321    5322    5325    5328    5329    5331    5319    5323    5324    5325
    5329    5330    5335    5336    5337    5321    5322    5323    5324    5325
    5329    5331    5335    5321    5322    5326    5327    5328    5332    5333
    5338    5322    5326    5327    5328    5332    5334    5338    5325    5328
    5332    5334    5324    5325    5329    5330    5331    5335    5336    5337
    5339    5340    5341    5342    5329    5330    5329    5330    5331    5335
    5327    5328    5332    5333    5334    5338    5343    5344    5345    5332
    5333    5332    5333    5334    5338    5343    5344    5345    5330    5331
    5335    5336    5337    5335    5336    5337    5339    5340    5341    5342
    5346    5347    5348    5335    5333    5334    5338    5343    5344    5345
    5349    5350    5351    5338    5338       0    5337    5339    5340    5341
    5342    5346    5347    5352    5339    5340    5341    5342    5346    5348
    5352    5343    5344    5345    5349    5350    5351    5353    5354    5355
    5340    5341    5346    5347    5348    5352    5346    5347    5342    5346
    5347    5348    5352    5346    5348    5344    5345    5349    5350    5351
    5353    5354    5355    5356    5357    5358    5345    5349    5350    5351
    5349    5350    5351    5347    5348    5352    5352    5352    5350    5351
    5353    5354    5355    5356    5357    5358    5359    5360    5361    5351
    5353    5354    5355    5353    5354    5355       0    5354    5355    5356
    5357    5358    5359    5360    5361    5362    5363    5364    5355    5356
    5357    5358    5356    5357    5358    5357    5358    5359    5360    5361
    5362    5363    5364    5365    5366    5367    5358    5359    5360    5361
    5359    5360    5361    5360    5361    5362    5363    5364    5365    5366
    5367    5368    5369    5370    5361    5362    5363    5364    5362    5363
    5364    5363    5364    5365    5366    5367    5368    5369    5370    5371
    5372    5373    5364    5365    5366    5367    5365    5366    5367    5366
    5367    5368    5369    5370    5367    5368    5369    5370    5368    5369
    5370    5371    5372    5373    5374    5375    5376    5369    5370    5371
    5372    5373    5374    5375    5376    5370    5371    5372    5373    5371
    5372    5373    5372    5373    5374    5375    5376    5373    5374    5375
    5376    5374    5375    5376    5375    5376    5376       0    5378    5379
    5380    5381    5382    5383    5384    5385    5386    5387    5388    5389
    5379    5380    5381    5382    5383    5384    5385    5386    5389    5390
    5391    5392    5380    5381    5382    5383    5386    5387    5388    5389
    5393    5394    5395    5381    5383    5384    5385    5386    5390    5391
    5392    5396    5397    5398    5382    5383    5384    5385    5386    5389
    5392    5393    5395    5383    5387    5388    5389    5393    5394    5399
    5400    5401    5385    5386    5387    5388    5389    5393    5395    5399
    5385    5386    5390    5391    5392    5396    5397    5402    5386    5390
    5391    5392    5396    5398    5402    5389    5392    5396    5398    5388
    5389    5393    5394    5395    5399    5400    5401    5403    5404    5405
    5406    5393    5394    5393    5394    5395    5399    5391    5392    5396
    5397    5398    5402    5407    5408    5409    5396    5397    5396    5397
    5398    5402    5407    5408    5409    5394    5395    5399    5400    5401
    5399    5400    5401    5403    5404    5405    5406    5410    5411    5412
    5399    5397    5398    5402    5407    5408    5409    5413    5414    5415
    5402    5402       0    5401    5403    5404    5405    5406    5410    5411
    5416    5403    5404    5405    5406    5410    5412    5416    5407    5408
    5409    5413    5414    5415    5417    5418    5419    5404    5405    5410
    5411    5412    5416    5410    5411    5406    5410    5411    5412    5416
    5410    5412    5408    5409    5413    5414    5415    5417    5418    5419
    5420    5421    5422    5409    5413    5414    5415    5413    5414    5415
    5411    5412    5416    5416    5416    5414    5415    5417    5418    5419
    5420    5421    5422    5423    5424    5425    5415    5417    5418    5419
    5417    5418    5419       0    5418    5419    5420    5421    5422    5423
    5424    5425    5426    5427    5428    5419    5420    5421    5422    5420
    5421    5422    5421    5422    5423    5424    5425    5426    5427    5428
    5429    5430    5431    5422    5423    5424    5425    5423    5424    5425
    5424    5425    5426    5427    5428    5429    5430    5431    5432    5433
    5434    5425    5426    5427    5428    5426    5427    5428    5427    5428
    5429    5430    5431    5432    5433    5434    5435    5436    5437    5428
    5429    5430    5431    5429    5430    5431    5430    5431    5432    5433
    5434    5431    5432    5433    5434    5432    5433    5434    5435    5436
    5437    5438    5439    5440    5433    5434    5435    5436    5437    5438
    5439    5440    5434    5435    5436    5437    5435    5436    5437    5436
    5437    5438    5439    5440    5437    5438    5439    5440    5438    5439
    5440    5439    5440    5440       0    5442    5443    5444    5445    5446
    5447    5448    5449    5450    5451    5452    5453    5443    5444    5445
    5446    5447    5448    5449    5450    5453    5454    5455    5456    5444
    5445    5446    5447    5450    5451    5452    5453    5457    5458    5459
    5445    5447    5448    5449    5450    5454    5455    5456    5460    5461
    5462    5446    5447    5448    5449    5450    5453    5456    5457    5459
    5447    5451    5452    5453    5457    5458    5463    5464    5465    5449
    5450    5451    5452    5453    5457    5459    5463    5449    5450    5454
    5455    5456    5460    5461    5466    5450    5454    5455    5456    5460
    5462    5466    5453    5456    5460    5462    5452    5453    5457    5458
    5459    5463    5464    5465    5467    5468    5469    5470    5457    5458
    5457    5458    5459    5463    5455    5456    5460    5461    5462    5466
    5471    5472    5473    5460    5461    5460    5461    5462    5466    5471
    5472    5473    5458    5459    5463    5464    5465    5463    5464    5465
    5467    5468    5469    5470    5474    5475    5476    5463    5461    5462
    5466    5471    5472    5473    5477    5478    5479    5466    5466       0
    5465    5467    5468    5469    5470    5474    5475    5480    5467    5468
    5469    5470    5474    5476    5480    5471    5472    5473    5477    5478
    5479    5481    5482    5483    5468    5469    5474    5475    5476    5480
    5474    5475    5470    5474    5475    5476    5480    5474    5476    5472
    5473    5477    5478    5479    5481    5482    5483    5484    5485    5486
    5473    5477    5478    5479    5477    5478    5479    5475    5476    5480
    5480    5480    5478    5479    5481    5482    5483    5484    5485    5486
    5487    5488    5489    5479    5481    5482    5483    5481    5482    5483
       0    5482    5483    5484    5485    5486    5487    5488    5489    5490
    5491    5492    5483    5484    5485    5486    5484    5485    5486    5485
    5486    5487    5488    5489    5490    5491    5492    5493    5494    5495
    5486    5487    5488    5489    5487    5488    5489    5488    5489    5490
    5491    5492    5493    5494    5495    5496    5497    5498    5489    5490
    5491    5492    5490    5491    5492    5491    5492    5493    5494    5495
    5496    5497    5498    5499    5500    5501    5492    5493    5494    5495
    5493    5494    5495    5494    5495    5496    5497    5498    5495    5496
    5497    5498    5496    5497    5498    5499    5500    5501    5502    5503
    5504    5497    5498    5499    5500    5501    5502    5503    5504    5498
    5499    5500    5501    5499    5500    5501    5500    5501    5502    5503
    5504    5501    5502    5503    5504    5502    5503    5504    5503    5504
    5504       0    5506    5507    5508    5509    5510    5511    5512    5513
    5514    5515    5516    5517    5507    5508    5509    5510    5511    5512
    5513    5514    5517    5518    5519    5520    5508    5509    5510    5511
    5514    5515    5516    5517    5521    5522    5523    5509    5511    5512
    5513    5514    5518    5519    5520    5524    5525    5526    5510    5511
    5512    5513    5514    5517    5520    5521    5523    5511    5515    5516
    5517    5521    5522    5527    5528    5529    5513    5514    5515    5516
    5517    5521    5523    5527    5513    5514    5518    5519    5520    5524
    5525    5530    5514    5518    5519    5520    5524    5526    5530    5517
    5520    5524    5526    5516    5517    5521    5522    5523    5527    5528
    5529    5531    5532    5533    5534    5521    5522    5521    5522    5523
    5527    5519    5520    5524    5525    5526    5530    5535    5536    5537
    5524    5525    5524    5525    5526    5530    5535    5536    5537    5522
    5523    5527    5528    5529    5527    5528    5529    5531    5532    5533
    5534    5538    5539    5540    5527    5525    5526    5530    5535    5536
    5537    5541    5542    5543    5530    5530       0    5529    5531    5532
    5533    5534    5538    5539    5544    5531    5532    5533    5534    5538
    5540    5544    5535    5536    5537    5541    5542    5543    5545    5546
    5547    5532    5533    5538    5539    5540    5544    5538    5539    5534
    5538    5539    5540    5544    5538    5540    5536    5537    5541    5542
    5543    5545    5546    5547    5548    5549    5550    5537    5541    5542
    5543    5541    5542    5543    5539    5540    5544    5544    5544    5542
    5543    5545    5546    5547    5548    5549    5550    5551    5552    5553
    5543    5545    5546    5547    5545    5546    5547       0    5546    5547
    5548    5549    5550    5551    5552    5553    5554    5555    5556    5547
    5548    5549    5550    5548    5549    5550    5549    5550    5551    5552
    5553    5554    5555    5556    5557    5558    5559    5550    5551    5552
    5553    5551    5552    5553    5552    5553    5554    5555    5556    5557
    5558    5559    5560    5561    5562    5553    5554    5555    5556    5554
    5555    5556    5555    5556    5557    5558    5559    5560    5561    5562
    5563    5564    5565    5556    5557    5558    5559    5557    5558    5559
    5558    5559    5560    5561    5562    5559    5560    5561    5562    5560
    5561    5562    5563    5564    5565    5566    5567    5568    5561    5562
    5563    5564    5565    5566    5567    5568    5562    5563    5564    5565
    5563    5564    5565    5564    5565    5566    5567    5568    5565    5566
    5567    5568    5566    5567    5568    5567    5568    5568       0    5570
    5571    5572    5573    5574    5575    5576    5577    5578    5579    5580
    5581    5571    5572    5573    5574    5575    5576    5577    5578    5581
    5582    5583    5584    5572    5573    5574    5575    5578    5579    5580
    5581    5585    5586    5587    5573    5575    5576    5577    5578    5582
    5583    5584    5588    5589    5590    5574    5575    5576    5577    5578
    5581    5584    5585    5587    5575    5579    5580    5581    5585    5586
    5591    5592    5593    5577    5578    5579    5580    5581    5585    5587
    5591    5577    5578    5582    5583    5584    5588    5589    5594    5578
    5582    5583    5584    5588    5590    5594    5581    5584    5588    5590
    5580    5581    5585    5586    5587    5591    5592    5593    5595    5596
    5597    5598    5585    5586    5585    5586    5587    5591    5583    5584
    5588    5589    5590    5594    5599    5600    5601    5588    5589    5588
    5589    5590    5594    5599    5600    5601    5586    5587    5591    5592
    5593    5591    5592    5593    5595    5596    5597    5598    5602    5603
    5604    5591    5589    5590    5594    5599    5600    5601    5605    5606
    5607    5594    5594       0    5593    5595    5596    5597    5598    5602
    5603    5608    5595    5596    5597    5598    5602    5604    5608    5599
    5600    5601    5605    5606    5607    5609    5610    5611    5596    5597
    5602    5603    5604    5608    5602    5603    5598    5602    5603    5604
    5608    5602    5604    5600    5601    5605    5606    5607    5609    5610
    5611    5612    5613    5614    5601    5605    5606    5607    5605    5606
    5607    5603    5604    5608    5608    5608    5606    5607    5609    5610
    5611    5612    5613    5614    5615    5616    5617    5607    5609    5610
    5611    5609    5610    5611       0    5610    5611    5612    5613    5614
    5615    5616    5617    5618    5619    5620    5611    5612    5613    5614
    5612    5613    5614    5613    5614    5615    5616    5617    5618    5619
    5620    5621    5622    5623    5614    5615    5616    5617    5615    5616
    5617    5616    5617    5618    5619    5620    5621    5622    5623    5624
    5625    5626    5617    5618    5619    5620    5618    5619    5620    5619
    5620    5621    5622    5623    5624    5625    5626    5627    5628    5629
    5620    5621    5622    5623    5621    5622    5623    5622    5623    5624
    5625    5626    5623    5624    5625    5626    5624    5625    5626    5627
    5628    5629    5630    5631    5632    5625    5626    5627    5628    5629
    5630    5631    5632    5626    5627    5628    5629    5627    5628    5629
    5628    5629    5630    5631    5632    5629    5630    5631    5632    5630
    5631    5632    5631    5632    5632       0    5634    5635    5636    5637
    5638    5639    5640    5641    5642    5643    5644    5645    5635    5636
    5637    5638    5639    5640    5641    5642    5645    5646    5647    5648
    5636    5637    5638    5639    5642    5643    5644    5645    5649    5650
    5651    5637    5639    5640    5641    5642    5646    5647    5648    5652
    5653    5654    5638    5639    5640    5641    5642    5645    5648    5649
    5651    5639    5643    5644    5645    5649    5650    5655    5656    5657
    5641    5642    5643    5644    5645    5649    5651    5655    5641    5642
    5646    5647    5648    5652    5653    5658    5642    5646    5647    5648
    5652    5654    5658    5645    5648    5652    5654    5644    5645    5649
    5650    5651    5655    5656    5657    5659    5660    5661    5662    5649
    5650    5649    5650    5651    5655    5647    5648    5652    5653    5654
    5658    5663    5664    5665    5652    5653    5652    5653    5654    5658
    5663    5664    5665    5650    5651    5655    5656    5657    5655    5656
    5657    5659    5660    5661    5662    5666    5667    5668    5655    5653
    5654    5658    5663    5664    5665    5669    5670    5671    5658    5658
       0    5657    5659    5660    5661    5662    5666    5667    5672    5659
    5660    5661    5662    5666    5668    5672    5663    5664    5665    5669
    5670    5671    5673    5674    5675    5660    5661    5666    5667    5668
    5672    5666    5667    5662    5666    5667    5668    5672    5666    5668
    5664    5665    5669    5670    5671    5673    5674    5675    5676    5677
    5678    5665    5669    5670    5671    5669    5670    5671    5667    5668
    5672    5672    5672    5670    5671    5673    5674    5675    5676    5677
    5678    5679    5680    5681    5671    5673    5674    5675    5673    5674
    5675       0    5674    5675    5676    5677    5678    5679    5680    5681
    5682    5683    5684    5675    5676    5677    5678    5676    5677    5678
    5677    5678    5679    5680    5681    5682    5683    5684    5685    5686
    5687    5678    5679    5680    5681    5679    5680    5681    5680    5681
    5682    5683    5684    5685    5686    5687    5688    5689    5690    5681
    5682    5683    5684    5682    5683    5684    5683    5684    5685    5686
    5687    5688    5689    5690    5691    5692    5693    5684    5685    5686
    5687    5685    5686    5687    5686    5687    5688    5689    5690    5687
    5688    5689    5690    5688    5689    5690    5691    5692    5693    5694
    5695    5696    5689    5690    5691    5692    5693    5694    5695    5696
    5690    5691    5692    5693    5691    5692    5693    5692    5693    5694
    5695    5696    5693    5694    5695    5696    5694    5695    5696    5695
    5696    5696       0    5698    5699    5700    5701    5702    5703    5704
    5705    5706    5707    5708    5709    5699    5700    5701    5702    5703
    5704    5705    5706    5709    5710    5711    5712    5700    5701    5702
    5703    5706    5707    5708    5709    5713    5714    5715    5701    5703
    5704    5705    5706    5710    5711    5712    5716    5717    5718    5702
    5703    5704    5705    5706    5709    5712    5713    5715    5703    5707
    5708    5709    5713    5714    5719    5720    5721    5705    5706    5707
    5708    5709    5713    5715    5719    5705    5706    5710    5711    5712
    5716    5717    5722    5706    5710    5711    5712    5716    5718    5722
    5709    5712    5716    5718    5708    5709    5713    5714    5715    5719
    5720    5721    5723    5724    5725    5726    5713    5714    5713    5714
    5715    5719    5711    5712    5716    5717    5718    5722    5727    5728
    5729    5716    5717    5716    5717    5718    5722    5727    5728    5729
    5714    5715    5719    5720    5721    5719    5720    5721    5723    5724
    5725    5726    5730    5731    5732    5719    5717    5718    5722    5727
    5728    5729    5733    5734    5735    5722    5722       0    5721    5723
    5724    5725    5726    5730    5731    5736    5723    5724    5725    5726
    5730    5732    5736    5727    5728    5729    5733    5734    5735    5737
    5738    5739    5724    5725    5730    5731    5732    5736    5730    5731
    5726    5730    5731    5732    5736    5730    5732    5728    5729    5733
    5734    5735    5737    5738    5739    5740    5741    5742    5729    5733
    5734    5735    5733    5734    5735    5731    5732    5736    5736    5736
    5734    5735    5737    5738    5739    5740    5741    5742    5743    5744
    5745    5735    5737    5738    5739    5737    5738    5739       0    5738
    5739    5740    5741    5742    5743    5744    5745    5746    5747    5748
    5739    5740    5741    5742    5740    5741    5742    5741    5742    5743
    5744    5745    5746    5747    5748    5749    5750    5751    5742    5743
    5744    5745    5743    5744    5745    5744    5745    5746    5747    5748
    5749    5750    5751    5752    5753    5754    5745    5746    5747    5748
    5746    5747    5748    5747    5748    5749    5750    5751    5752    5753
    5754    5755    5756    5757    5748    5749    5750    5751    5749    5750
    5751    5750    5751    5752    5753    5754    5751    5752    5753    5754
    5752    5753    5754    5755    5756    5757    5758    5759    5760    5753
    5754    5755    5756    5757    5758    5759    5760    5754    5755    5756
    5757    5755    5756    5757    5756    5757    5758    5759    5760    5757
    5758    5759    5760    5758    5759    5760    5759    5760    5760       0
    5762    5763    5764    5765    5766    5767    5768    5769    5770    5771
    5772    5773    5763    5764    5765    5766    5767    5768    5769    5770
    5773    5774    5775    5776    5764    5765    5766    5767    5770    5771
    5772    5773    5777    5778    5779    5765    5767    5768    5769    5770
    5774    5775    5776    5780    5781    5782    5766    5767    5768    5769
    5770    5773    5776    5777    5779    5767    5771    5772    5773    5777
    5778    5783    5784    5785    5769    5770    5771    5772    5773    5777
    5779    5783    5769    5770    5774    5775    5776    5780    5781    5786
    5770    5774    5775    5776    5780    5782    5786    5773    5776    5780
    5782    5772    5773    5777    5778    5779    5783    5784    5785    5787
    5788    5789    5790    5777    5778    5777    5778    5779    5783    5775
    5776    5780    5781    5782    5786    5791    5792    5793    5780    5781
    5780    5781    5782    5786    5791    5792    5793    5778    5779    5783
    5784    5785    5783    5784    5785    5787    5788    5789    5790    5794
    5795    5796    5783    5781    5782    5786    5791    5792    5793    5797
    5798    5799    5786    5786       0    5785    5787    5788    5789    5790
    5794    5795    5800    5787    5788    5789    5790    5794    5796    5800
    5791    5792    5793    5797    5798    5799    5801    5802    5803    5788
    5789    5794    5795    5796    5800    5794    5795    5790    5794    5795
    5796    5800    5794    5796    5792    5793    5797    5798    5799    5801
    5802    5803    5804    5805    5806    5793    5797    5798    5799    5797
    5798    5799    5795    5796    5800    5800    5800    5798    5799    5801
    5802    5803    5804    5805    5806    5807    5808    5809    5799    5801
    5802    5803    5801    5802    5803       0    5802    5803    5804    5805
    5806    5807    5808    5809    5810    5811    5812    5803    5804    5805
    5806    5804    5805    5806    5805    5806    5807    5808    5809    5810
    5811    5812    5813    5814    5815    5806    5807    5808    5809    5807
    5808    5809    5808    5809    5810    5811    5812    5813    5814    5815
    5816    5817    5818    5809    5810    5811    5812    5810    5811    5812
    5811    5812    5813    5814    5815    5816    5817    5818    5819    5820
    5821    5812    5813    5814    5815    5813    5814    5815    5814    5815
    5816    5817    5818    5815    5816    5817    5818    5816    5817    5818
    5819    5820    5821    5822    5823    5824    5817    5818    5819    5820
    5821    5822    5823    5824    5818    5819    5820    5821    5819    5820
    5821    5820    5821    5822    5823    5824    5821    5822    5823    5824
    5822    5823    5824    5823    5824    5824       0    5826    5827    5828
    5829    5830    5831    5832    5833    5834    5835    5836    5837    5827
    5828    5829    5830    5831    5832    5833    5834    5837    5838    5839
    5840    5828    5829    5830    5831    5834    5835    5836    5837    5841
    5842    5843    5829    5831    5832    5833    5834    5838    5839    5840
    5844    5845    5846    5830    5831    5832    5833    5834    5837    5840
    5841    5843    5831    5835    5836    5837    5841    5842    5847    5848
    5849    5833    5834    5835    5836    5837    5841    5843    5847    5833
    5834    5838    5839    5840    5844    5845    5850    5834    5838    5839
    5840    5844    5846    5850    5837    5840    5844    5846    5836    5837
    5841    5842    5843    5847    5848    5849    5851    5852    5853    5854
    5841    5842    5841    5842    5843    5847    5839    5840    5844    5845
    5846    5850    5855    5856    5857    5844    5845    5844    5845    5846
    5850    5855    5856    5857    5842    5843    5847    5848    5849    5847
    5848    5849    5851    5852    5853    5854    5858    5859    5860    5847
    5845    5846    5850    5855    5856    5857    5861    5862    5863    5850
    5850       0    5849    5851    5852    5853    5854    5858    5859    5864
    5851    5852    5853    5854    5858    5860    5864    5855    5856    5857
    5861    5862    5863    5865    5866    5867    5852    5853    5858    5859
    5860    5864    5858    5859    5854    5858    5859    5860    5864    5858
    5860    5856    5857    5861    5862    5863    5865    5866    5867    5868
    5869    5870    5857    5861    5862    5863    5861    5862    5863    5859
    5860    5864    5864    5864    5862    5863    5865    5866    5867    5868
    5869    5870    5871    5872    5873    5863    5865    5866    5867    5865
    5866    5867       0    5866    5867    5868    5869    5870    5871    5872
    5873    5874    5875    5876    5867    5868    5869    5870    5868    5869
    5870    5869    5870    5871    5872    5873    5874    5875    5876    5877
    5878    5879    5870    5871    5872    5873    5871    5872    5873    5872
    5873    5874    5875    5876    5877    5878    5879    5880    5881    5882
    5873    5874    5875    5876    5874    5875    5876    5875    5876    5877
    5878    5879    5880    5881    5882    5883    5884    5885    5876    5877
    5878    5879    5877    5878    5879    5878    5879    5880    5881    5882
    5879    5880    5881    5882    5880    5881    5882    5883    5884    5885
    5886    5887    5888    5881    5882    5883    5884    5885    5886    5887
    5888    5882    5883    5884    5885    5883    5884    5885    5884    5885
    5886    5887    5888    5885    5886    5887    5888    5886    5887    5888
    5887    5888    5888       0    5890    5891    5892    5893    5894    5895
    5896    5897    5898    5899    5900    5901    5891    5892    5893    5894
    5895    5896    5897    5898    5901    5902    5903    5904    5892    5893
    5894    5895    5898    5899    5900    5901    5905    5906    5907    5893
    5895    5896    5897    5898    5902    5903    5904    5908    5909    5910
    5894    5895    5896    5897    5898    5901    5904    5905    5907    5895
    5899    5900    5901    5905    5906    5911    5912    5913    5897    5898
    5899    5900    5901    5905    5907    5911    5897    5898    5902    5903
    5904    5908    5909    5914    5898    5902    5903    5904    5908    5910
    5914    5901    5904    5908    5910    5900    5901    5905    5906    5907
    5911    5912    5913    5915    5916    5917    5918    5905    5906    5905
    5906    5907    5911    5903    5904    5908    5909    5910    5914    5919
    5920    5921    5908    5909    5908    5909    5910    5914    5919    5920
    5921    5906    5907    5911    5912    5913    5911    5912    5913    5915
    5916    5917    5918    5922    5923    5924    5911    5909    5910    5914
    5919    5920    5921    5925    5926    5927    5914    5914       0    5913
    5915    5916    5917    5918    5922    5923    5928    5915    5916    5917
    5918    5922    5924    5928    5919    5920    5921    5925    5926    5927
    5929    5930    5931    5916    5917    5922    5923    5924    5928    5922
    5923    5918    5922    5923    5924    5928    5922    5924    5920    5921
    5925    5926    5927    5929    5930    5931    5932    5933    5934    5921
    5925    5926    5927    5925    5926    5927    5923    5924    5928    5928
    5928    5926    5927    5929    5930    5931    5932    5933    5934    5935
    5936    5937    5927    5929    5930    5931    5929    5930    5931       0
    5930    5931    5932    5933    5934    5935    5936    5937    5938    5939
    5940    5931    5932    5933    5934    5932    5933    5934    5933    5934
    5935    5936    5937    5938    5939    5940    5941    5942    5943    5934
    5935    5936    5937    5935    5936    5937    5936    5937    5938    5939
    5940    5941    5942    5943    5944    5945    5946    5937    5938    5939
    5940    5938    5939    5940    5939    5940    5941    5942    5943    5944
    5945    5946    5947    5948    5949    5940    5941    5942    5943    5941
    5942    5943    5942    5943    5944    5945    5946    5943    5944    5945
    5946    5944    5945    5946    5947    5948    5949    5950    5951    5952
    5945    5946    5947    5948    5949    5950    5951    5952    5946    5947
    5948    5949    5947    5948    5949    5948    5949    5950    5951    5952
    5949    5950    5951    5952    5950    5951    5952    5951    5952    5952
       0    5954    5955    5956    5957    5958    5959    5960    5961    5962
    5963    5964    5965    5955    5956    5957    5958    5959    5960    5961
    5962    5965    5966    5967    5968    5956    5957    5958    5959    5962
    5963    5964    5965    5969    5970    5971    5957    5959    5960    5961
    5962    5966    5967    5968    5972    5973    5974    5958    5959    5960
    5961    5962    5965    5968    5969    5971    5959    5963    5964    5965
    5969    5970    5975    5976    5977    5961    5962    5963    5964    5965
    5969    5971    5975    5961    5962    5966    5967    5968    5972    5973
    5978    5962    5966    5967    5968    5972    5974    5978    5965    5968
    5972    5974    5964    5965    5969    5970    5971    5975    5976    5977
    5979    5980    5981    5982    5969    5970    5969    5970    5971    5975
    5967    5968    5972    5973    5974    5978    5983    5984    5985    5972
    5973    5972    5973    5974    5978    5983    5984    5985    5970    5971
    5975    5976    5977    5975    5976    5977    5979    5980    5981    5982
    5986    5987    5988    5975    5973    5974    5978    5983    5984    5985
    5989    5990    5991    5978    5978       0    5977    5979    5980    5981
    5982    5986    5987    5992    5979    5980    5981    5982    5986    5988
    5992    5983    5984    5985    5989    5990    5991    5993    5994    5995
    5980    5981    5986    5987    5988    5992    5986    5987    5982    5986
    5987    5988    5992    5986    5988    5984    5985    5989    5990    5991
    5993    5994    5995    5996    5997    5998    5985    5989    5990    5991
    5989    5990    5991    5987    5988    5992    5992    5992    5990    5991
    5993    5994    5995    5996    5997    5998    5999    6000    6001    5991
    5993    5994    5995    5993    5994    5995       0    5994    5995    5996
    5997    5998    5999    6000    6001    6002    6003    6004    5995    5996
    5997    5998    5996    5997    5998    5997    5998    5999    6000    6001
    6002    6003    6004    6005    6006    6007    5998    5999    6000    6001
    5999    6000    6001    6000    6001    6002    6003    6004    6005    6006
    6007    6008    6009    6010    6001    6002    6003    6004    6002    6003
    6004    6003    6004    6005    6006    6007    6008    6009    6010    6011
    6012    6013    6004    6005    6006    6007    6005    6006    6007    6006
    6007    6008    6009    6010    6007    6008    6009    6010    6008    6009
    6010    6011    6012    6013    6014    6015    6016    6009    6010    6011
    6012    6013    6014    6015    6016    6010    6011    6012    6013    6011
    6012    6013    6012    6013    6014    6015    6016    6013    6014    6015
    6016    6014    6015    6016    6015    6016    6016       0    6018    6019
    6020    6021    6022    6023    6024    6025    6026    6027    6028    6029
    6019    6020    6021    6022    6023    6024    6025    6026    6029    6030
    6031    6032    6020    6021    6022    6023    6026    6027    6028    6029
    6033    6034    6035    6021    6023    6024    6025    6026    6030    6031
    6032    6036    6037    6038    6022    6023    6024    6025    6026    6029
    6032    6033    6035    6023    6027    6028    6029    6033    6034    6039
    6040    6041    6025    6026    6027    6028    6029    6033    6035    6039
    6025    6026    6030    6031    6032    6036    6037    6042    6026    6030
    6031    6032    6036    6038    6042    6029    6032    6036    6038    6028
    6029    6033    6034    6035    6039    6040    6041    6043    6044    6045
    6046    6033    6034    6033    6034    6035    6039    6031    6032    6036
    6037    6038    6042    6047    6048    6049    6036    6037    6036    6037
    6038    6042    6047    6048    6049    6034    6035    6039    6040    6041
    6039    6040    6041    6043    6044    6045    6046    6050    6051    6052
    6039    6037    6038    6042    6047    6048    6049    6053    6054    6055
    6042    6042       0    6041    6043    6044    6045    6046    6050    6051
    6056    6043    6044    6045    6046    6050    6052    6056    6047    6048
    6049    6053    6054    6055    6057    6058    6059    6044    6045    6050
    6051    6052    6056    6050    6051    6046    6050    6051    6052    6056
    6050    6052    6048    6049    6053    6054    6055    6057    6058    6059
    6060    6061    6062    6049    6053    6054    6055    6053    6054    6055
    6051    6052    6056    6056    6056    6054    6055    6057    6058    6059
    6060    6061    6062    6063    6064    6065    6055    6057    6058    6059
    6057    6058    6059       0    6058    6059    6060    6061    6062    6063
    6064    6065    6066    6067    6068    6059    6060    6061    6062    6060
    6061    6062    6061    6062    6063    6064    6065    6066    6067    6068
    6069    6070    6071    6062    6063    6064    6065    6063    6064    6065
    6064    6065    6066    6067    6068    6069    6070    6071    6072    6073
    6074    6065    6066    6067    6068    6066    6067    6068    6067    6068
    6069    6070    6071    6072    6073    6074    6075    6076    6077    6068
    6069    6070    6071    6069    6070    6071    6070    6071    6072    6073
    6074    6071    6072    6073    6074    6072    6073    6074    6075    6076
    6077    6078    6079    6080    6073    6074    6075    6076    6077    6078
    6079    6080    6074    6075    6076    6077    6075    6076    6077    6076
    6077    6078    6079    6080    6077    6078    6079    6080    6078    6079
    6080    6079    6080    6080       0    6082    6083    6084    6085    6086
    6087    6088    6089    6090    6091    6092    6093    6083    6084    6085
    6086    6087    6088    6089    6090    6093    6094    6095    6096    6084
    6085    6086    6087    6090    6091    6092    6093    6097    6098    6099
    6085    6087    6088    6089    6090    6094    6095    6096    6100    6101
    6102    6086    6087    6088    6089    6090    6093    6096    6097    6099
    6087    6091    6092    6093    6097    6098    6103    6104    6105    6089
    6090    6091    6092    6093    6097    6099    6103    6089    6090    6094
    6095    6096    6100    6101    6106    6090    6094    6095    6096    6100
    6102    6106    6093    6096    6100    6102    6092    6093    6097    6098
    6099    6103    6104    6105    6107    6108    6109    6110    6097    6098
    6097    6098    6099    6103    6095    6096    6100    6101    6102    6106
    6111    6112    6113    6100    6101    6100    6101    6102    6106    6111
    6112    6113    6098    6099    6103    6104    6105    6103    6104    6105
    6107    6108    6109    6110    6114    6115    6116    6103    6101    6102
    6106    6111    6112    6113    6117    6118    6119    6106    6106       0
    6105    6107    6108    6109    6110    6114    6115    6120    6107    6108
    6109    6110    6114    6116    6120    6111    6112    6113    6117    6118
    6119    6121    6122    6123    6108    6109    6114    6115    6116    6120
    6114    6115    6110    6114    6115    6116    6120    6114    6116    6112
    6113    6117    6118    6119    6121    6122    6123    6124    6125    6126
    6113    6117    6118    6119    6117    6118    6119    6115    6116    6120
    6120    6120    6118    6119    6121    6122    6123    6124    6125    6126
    6127    6128    6129    6119    6121    6122    6123    6121    6122    6123
       0    6122    6123    6124    6125    6126    6127    6128    6129    6130
    6131    6132    6123    6124    6125    6126    6124    6125    6126    6125
    6126    6127    6128    6129    6130    6131    6132    6133    6134    6135
    6126    6127    6128    6129    6127    6128    6129    6128    6129    6130
    6131    6132    6133    6134    6135    6136    6137    6138    6129    6130
    6131    6132    6130    6131    6132    6131    6132    6133    6134    6135
    6136    6137    6138    6139    6140    6141    6132    6133    6134    6135
    6133    6134    6135    6134    6135    6136    6137    6138    6135    6136
    6137    6138    6136    6137    6138    6139    6140    6141    6142    6143
    6144    6137    6138    6139    6140    6141    6142    6143    6144    6138
    6139    6140    6141    6139    6140    6141    6140    6141    6142    6143
    6144    6141    6142    6143    6144    6142    6143    6144    6143    6144
    6144       0    6146    6147    6148    6149    6150    6151    6152    6153
    6154    6155    6156    6157    6147    6148    6149    6150    6151    6152
    6153    6154    6157    6158    6159    6160    6148    6149    6150    6151
    6154    6155    6156    6157    6161    6162    6163    6149    6151    6152
    6153    6154    6158    6159    6160    6164    6165    6166    6150    6151
    6152    6153    6154    6157    6160    6161    6163    6151    6155    6156
    6157    6161    6162    6167    6168    6169    6153    6154    6155    6156
    6157    6161    6163    6167    6153    6154    6158    6159    6160    6164
    6165    6170    6154    6158    6159    6160    6164    6166    6170    6157
    6160    6164    6166    6156    6157    6161    6162    6163    6167    6168
    6169    6171    6172    6173    6174    6161    6162    6161    6162    6163
    6167    6159    6160    6164    6165    6166    6170    6175    6176    6177
    6164    6165    6164    6165    6166    6170    6175    6176    6177    6162
    6163    6167    6168    6169    6167    6168    6169    6171    6172    6173
    6174    6178    6179    6180    6167    6165    6166    6170    6175    6176
    6177    6181    6182    6183    6170    6170       0    6169    6171    6172
    6173    6174    6178    6179    6184    6171    6172    6173    6174    6178
    6180    6184    6175    6176    6177    6181    6182    6183    6185    6186
    6187    6172    6173    6178    6179    6180    6184    6178    6179    6174
    6178    6179    6180    6184    6178    6180    6176    6177    6181    6182
    6183    6185    6186    6187    6188    6189    6190    6177    6181    6182
    6183    6181    6182    6183    6179    6180    6184    6184    6184    6182
    6183    6185    6186    6187    6188    6189    6190    6191    6192    6193
    6183    6185    6186    6187    6185    6186    6187       0    6186    6187
    6188    6189    6190    6191    6192    6193    6194    6195    6196    6187
    6188    6189    6190    6188    6189    6190    6189    6190    6191    6192
    6193    6194    6195    6196    6197    6198    6199    6190    6191    6192
    6193    6191    6192    6193    6192    6193    6194    6195    6196    6197
    6198    6199    6200    6201    6202    6193    6194    6195    6196    6194
    6195    6196    6195    6196    6197    6198    6199    6200    6201    6202
    6203    6204    6205    6196    6197    6198    6199    6197    6198    6199
    6198    6199    6200    6201    6202    6199    6200    6201    6202    6200
    6201    6202    6203    6204    6205    6206    6207    6208    6201    6202
    6203    6204    6205    6206    6207    6208    6202    6203    6204    6205
    6203    6204    6205    6204    6205    6206    6207    6208    6205    6206
    6207    6208    6206    6207    6208    6207    6208    6208       0    6210
    6211    6212    6213    6214    6215    6216    6217    6218    6219    6220
    6221    6211    6212    6213    6214    6215    6216    6217    6218    6221
    6222    6223    6224    6212    6213    6214    6215    6218    6219    6220
    6221    6225    6226    6227    6213    6215    6216    6217    6218    6222
    6223    6224    6228    6229    6230    6214    6215    6216    6217    6218
    6221    6224    6225    6227    6215    6219    6220    6221    6225    6226
    6231    6232    6233    6217    6218    6219    6220    6221    6225    6227
    6231    6217    6218    6222    6223    6224    6228    6229    6234    6218
    6222    6223    6224    6228    6230    6234    6221    6224    6228    6230
    6220    6221    6225    6226    6227    6231    6232    6233    6235    6236
    6237    6238    6225    6226    6225    6226    6227    6231    6223    6224
    6228    6229    6230    6234    6239    6240    6241    6228    6229    6228
    6229    6230    6234    6239    6240    6241    6226    6227    6231    6232
    6233    6231    6232    6233    6235    6236    6237    6238    6242    6243
    6244    6231    6229    6230    6234    6239    6240    6241    6245    6246
    6247    6234    6234       0    6233    6235    6236    6237    6238    6242
    6243    6248    6235    6236    6237    6238    6242    6244    6248    6239
    6240    6241    6245    6246    6247    6249    6250    6251    6236    6237
    6242    6243    6244    6248    6242    6243    6238    6242    6243    6244
    6248    6242    6244    6240    6241    6245    6246    6247    6249    6250
    6251    6252    6253    6254    6241    6245    6246    6247    6245    6246
    6247    6243    6244    6248    6248    6248    6246    6247    6249    6250
    6251    6252    6253    6254    6255    6256    6257    6247    6249    6250
    6251    6249    6250    6251       0    6250    6251    6252    6253    6254
    6255    6256    6257    6258    6259    6260    6251    6252    6253    6254
    6252    6253    6254    6253    6254    6255    6256    6257    6258    6259
    6260    6261    6262    6263    6254    6255    6256    6257    6255    6256
    6257    6256    6257    6258    6259    6260    6261    6262    6263    6264
    6265    6266    6257    6258    6259    6260    6258    6259    6260    6259
    6260    6261    6262    6263    6264    6265    6266    6267    6268    6269
    6260    6261    6262    6263    6261    6262    6263    6262    6263    6264
    6265    6266    6263    6264    6265    6266    6264    6265    6266    6267
    6268    6269    6270    6271    6272    6265    6266    6267    6268    6269
    6270    6271    6272    6266    6267    6268    6269    6267    6268    6269
    6268    6269    6270    6271    6272    6269    6270    6271    6272    6270
    6271    6272    6271    6272    6272       0    6274    6275    6276    6277
    6278    6279    6280    6281    6282    6283    6284    6285    6275    6276
    6277    6278    6279    6280    6281    6282    6285    6286    6287    6288
    6276    6277    6278    6279    6282    6283    6284    6285    6289    6290
    6291    6277    6279    6280    6281    6282    6286    6287    6288    6292
    6293    6294    6278    6279    6280    6281    6282    6285    6288    6289
    6291    6279    6283    6284    6285    6289    6290    6295    6296    6297
    6281    6282    6283    6284    6285    6289    6291    6295    6281    6282
    6286    6287    6288    6292    6293    6298    6282    6286    6287    6288
    6292    6294    6298    6285    6288    6292    6294    6284    6285    6289
    6290    6291    6295    6296    6297    6299    6300    6301    6302    6289
    6290    6289    6290    6291    6295    6287    6288    6292    6293    6294
    6298    6303    6304    6305    6292    6293    6292    6293    6294    6298
    6303    6304    6305    6290    6291    6295    6296    6297    6295    6296
    6297    6299    6300    6301    6302    6306    6307    6308    6295    6293
    6294    6298    6303    6304    6305    6309    6310    6311    6298    6298
       0    6297    6299    6300    6301    6302    6306    6307    6312    6299
    6300    6301    6302    6306    6308    6312    6303    6304    6305    6309
    6310    6311    6313    6314    6315    6300    6301    6306    6307    6308
    6312    6306    6307    6302    6306    6307    6308    6312    6306    6308
    6304    6305    6309    6310    6311    6313    6314    6315    6316    6317
    6318    6305    6309    6310    6311    6309    6310    6311    6307    6308
    6312    6312    6312    6310    6311    6313    6314    6315    6316    6317
    6318    6319    6320    6321    6311    6313    6314    6315    6313    6314
    6315       0    6314    6315    6316    6317    6318    6319    6320    6321
    6322    6323    6324    6315    6316    6317    6318    6316    6317    6318
    6317    6318    6319    6320    6321    6322    6323    6324    6325    6326
    6327    6318    6319    6320    6321    6319    6320    6321    6320    6321
    6322    6323    6324    6325    6326    6327    6328    6329    6330    6321
    6322    6323    6324    6322    6323    6324    6323    6324    6325    6326
    6327    6328    6329    6330    6331    6332    6333    6324    6325    6326
    6327    6325    6326    6327    6326    6327    6328    6329    6330    6327
    6328    6329    6330    6328    6329    6330    6331    6332    6333    6334
    6335    6336    6329    6330    6331    6332    6333    6334    6335    6336
    6330    6331    6332    6333    6331    6332    6333    6332    6333    6334
    6335    6336    6333    6334    6335    6336    6334    6335    6336    6335
    6336    6336       0    6338    6339    6340    6341    6342    6343    6344
    6345    6346    6347    6348    6349    6339    6340    6341    6342    6343
    6344    6345    6346    6349    6350    6351    6352    6340    6341    6342
    6343    6346    6347    6348    6349    6353    6354    6355    6341    6343
    6344    6345    6346    6350    6351    6352    6356    6357    6358    6342
    6343    6344    6345    6346    6349    6352    6353    6355    6343    6347
    6348    6349    6353    6354    6359    6360    6361    6345    6346    6347
    6348    6349    6353    6355    6359    6345    6346    6350    6351    6352
    6356    6357    6362    6346    6350    6351    6352    6356    6358    6362
    6349    6352    6356    6358    6348    6349    6353    6354    6355    6359
    6360    6361    6363    6364    6365    6366    6353    6354    6353    6354
    6355    6359    6351    6352    6356    6357    6358    6362    6367    6368
    6369    6356    6357    6356    6357    6358    6362    6367    6368    6369
    6354    6355    6359    6360    6361    6359    6360    6361    6363    6364
    6365    6366    6370    6371    6372    6359    6357    6358    6362    6367
    6368    6369    6373    6374    6375    6362    6362       0    6361    6363
    6364    6365    6366    6370    6371    6376    6363    6364    6365    6366
    6370    6372    6376    6367    6368    6369    6373    6374    6375    6377
    6378    6379    6364    6365    6370    6371    6372    6376    6370    6371
    6366    6370    6371    6372    6376    6370    6372    6368    6369    6373
    6374    6375    6377    6378    6379    6380    6381    6382    6369    6373
    6374    6375    6373    6374    6375    6371    6372    6376    6376    6376
    6374    6375    6377    6378    6379    6380    6381    6382    6383    6384
    6385    6375    6377    6378    6379    6377    6378    6379       0    6378
    6379    6380    6381    6382    6383    6384    6385    6386    6387    6388
    6379    6380    6381    6382    6380    6381    6382    6381    6382    6383
    6384    6385    6386    6387    6388    6389    6390    6391    6382    6383
    6384    6385    6383    6384    6385    6384    6385    6386    6387    6388
    6389    6390    6391    6392    6393    6394    6385    6386    6387    6388
    6386    6387    6388    6387    6388    6389    6390    6391    6392    6393
    6394    6395    6396    6397    6388    6389    6390    6391    6389    6390
    6391    6390    6391    6392    6393    6394    6391    6392    6393    6394
    6392    6393    6394    6395    6396    6397    6398    6399    6400    6393
    6394    6395    6396    6397    6398    6399    6400    6394    6395    6396
    6397    6395    6396    6397    6396    6397    6398    6399    6400    6397
    6398    6399    6400    6398    6399    6400    6399    6400    6400       0
    6402    6403    6404    6405    6406    6407    6408    6409    6410    6411
    6412    6413    6403    6404    6405    6406    6407    6408    6409    6410
    6413    6414    6415    6416    6404    6405    6406    6407    6410    6411
    6412    6413    6417    6418    6419    6405    6407    6408    6409    6410
    6414    6415    6416    6420    6421    6422    6406    6407    6408    6409
    6410    6413    6416    6417    6419    6407    6411    6412    6413    6417
    6418    6423    6424    6425    6409    6410    6411    6412    6413    6417
    6419    6423    6409    6410    6414    6415    6416    6420    6421    6426
    6410    6414    6415    6416    6420    6422    6426    6413    6416    6420
    6422    6412    6413    6417    6418    6419    6423    6424    6425    6427
    6428    6429    6430    6417    6418    6417    6418    6419    6423    6415
    6416    6420    6421    6422    6426    6431    6432    6433    6420    6421
    6420    6421    6422    6426    6431    6432    6433    6418    6419    6423
    6424    6425    6423    6424    6425    6427    6428    6429    6430    6434
    6435    6436    6423    6421    6422    6426    6431    6432    6433    6437
    6438    6439    6426    6426       0    6425    6427    6428    6429    6430
    6434    6435    6440    6427    6428    6429    6430    6434    6436    6440
    6431    6432    6433    6437    6438    6439    6441    6442    6443    6428
    6429    6434    6435    6436    6440    6434    6435    6430    6434    6435
    6436    6440    6434    6436    6432    6433    6437    6438    6439    6441
    6442    6443    6444    6445    6446    6433    6437    6438    6439    6437
    6438    6439    6435    6436    6440    6440    6440    6438    6439    6441
    6442    6443    6444    6445    6446    6447    6448    6449    6439    6441
    6442    6443    6441    6442    6443       0    6442    6443    6444    6445
    6446    6447    6448    6449    6450    6451    6452    6443    6444    6445
    6446    6444    6445    6446    6445    6446    6447    6448    6449    6450
    6451    6452    6453    6454    6455    6446    6447    6448    6449    6447
    6448    6449    6448    6449    6450    6451    6452    6453    6454    6455
    6456    6457    6458    6449    6450    6451    6452    6450    6451    6452
    6451    6452    6453    6454    6455    6456    6457    6458    6459    6460
    6461    6452    6453    6454    6455    6453    6454    6455    6454    6455
    6456    6457    6458    6455    6456    6457    6458    6456    6457    6458
    6459    6460    6461    6462    6463    6464    6457    6458    6459    6460
    6461    6462    6463    6464    6458    6459    6460    6461    6459    6460
    6461    6460    6461    6462    6463    6464    6461    6462    6463    6464
    6462    6463    6464    6463    6464    6464       0    6466    6467    6468
    6469    6470    6471    6472    6473    6474    6475    6476    6477    6467
    6468    6469    6470    6471    6472    6473    6474    6477    6478    6479
    6480    6468    6469    6470    6471    6474    6475    6476    6477    6481
    6482    6483    6469    6471    6472    6473    6474    6478    6479    6480
    6484    6485    6486    6470    6471    6472    6473    6474    6477    6480
    6481    6483    6471    6475    6476    6477    6481    6482    6487    6488
    6489    6473    6474    6475    6476    6477    6481    6483    6487    6473
    6474    6478    6479    6480    6484    6485    6490    6474    6478    6479
    6480    6484    6486    6490    6477    6480    6484    6486    6476    6477
    6481    6482    6483    6487    6488    6489    6491    6492    6493    6494
    6481    6482    6481    6482    6483    6487    6479    6480    6484    6485
    6486    6490    6495    6496    6497    6484    6485    6484    6485    6486
    6490    6495    6496    6497    6482    6483    6487    6488    6489    6487
    6488    6489    6491    6492    6493    6494    6498    6499    6500    6487
    6485    6486    6490    6495    6496    6497    6501    6502    6503    6490
    6490       0    6489    6491    6492    6493    6494    6498    6499    6504
    6491    6492    6493    6494    6498    6500    6504    6495    6496    6497
    6501    6502    6503    6505    6506    6507    6492    6493    6498    6499
    6500    6504    6498    6499    6494    6498    6499    6500    6504    6498
    6500    6496    6497    6501    6502    6503    6505    6506    6507    6508
    6509    6510    6497    6501    6502    6503    6501    6502    6503    6499
    6500    6504    6504    6504    6502    6503    6505    6506    6507    6508
    6509    6510    6511    6512    6513    6503    6505    6506    6507    6505
    6506    6507       0    6506    6507    6508    6509    6510    6511    6512
    6513    6514    6515    6516    6507    6508    6509    6510    6508    6509
    6510    6509    6510    6511    6512    6513    6514    6515    6516    6517
    6518    6519    6510    6511    6512    6513    6511    6512    6513    6512
    6513    6514    6515    6516    6517    6518    6519    6520    6521    6522
    6513    6514    6515    6516    6514    6515    6516    6515    6516    6517
    6518    6519    6520    6521    6522    6523    6524    6525    6516    6517
    6518    6519    6517    6518    6519    6518    6519    6520    6521    6522
    6519    6520    6521    6522    6520    6521    6522    6523    6524    6525
    6526    6527    6528    6521    6522    6523    6524    6525    6526    6527
    6528    6522    6523    6524    6525    6523    6524    6525    6524    6525
    6526    6527    6528    6525    6526    6527    6528    6526    6527    6528
    6527    6528    6528       0    6530    6531    6532    6533    6534    6535
    6536    6537    6538    6539    6540    6541    6531    6532    6533    6534
    6535    6536    6537    6538    6541    6542    6543    6544    6532    6533
    6534    6535    6538    6539    6540    6541    6545    6546    6547    6533
    6535    6536    6537    6538    6542    6543    6544    6548    6549    6550
    6534    6535    6536    6537    6538    6541    6544    6545    6547    6535
    6539    6540    6541    6545    6546    6551    6552    6553    6537    6538
    6539    6540    6541    6545    6547    6551    6537    6538    6542    6543
    6544    6548    6549    6554    6538    6542    6543    6544    6548    6550
    6554    6541    6544    6548    6550    6540    6541    6545    6546    6547
    6551    6552    6553    6555    6556    6557    6558    6545    6546    6545
    6546    6547    6551    6543    6544    6548    6549    6550    6554    6559
    6560    6561    6548    6549    6548    6549    6550    6554    6559    6560
    6561    6546    6547    6551    6552    6553    6551    6552    6553    6555
    6556    6557    6558    6562    6563    6564    6551    6549    6550    6554
    6559    6560    6561    6565    6566    6567    6554    6554       0    6553
    6555    6556    6557    6558    6562    6563    6568    6555    6556    6557
    6558    6562    6564    6568    6559    6560    6561    6565    6566    6567
    6569    6570    6571    6556    6557    6562    6563    6564    6568    6562
    6563    6558    6562    6563    6564    6568    6562    6564    6560    6561
    6565    6566    6567    6569    6570    6571    6572    6573    6574    6561
    6565    6566    6567    6565    6566    6567    6563    6564    6568    6568
    6568    6566    6567    6569    6570    6571    6572    6573    6574    6575
    6576    6577    6567    6569    6570    6571    6569    6570    6571       0
    6570    6571    6572    6573    6574    6575    6576    6577    6578    6579
    6580    6571    6572    6573    6574    6572    6573    6574    6573    6574
    6575    6576    6577    6578    6579    6580    6581    6582    6583    6574
    6575    6576    6577    6575    6576    6577    6576    6577    6578    6579
    6580    6581    6582    6583    6584    6585    6586    6577    6578    6579
    6580    6578    6579    6580    6579    6580    6581    6582    6583    6584
    6585    6586    6587    6588    6589    6580    6581    6582    6583    6581
    6582    6583    6582    6583    6584    6585    6586    6583    6584    6585
    6586    6584    6585    6586    6587    6588    6589    6590    6591    6592
    6585    6586    6587    6588    6589    6590    6591    6592    6586    6587
    6588    6589    6587    6588    6589    6588    6589    6590    6591    6592
    6589    6590    6591    6592    6590    6591    6592    6591    6592    6592
       0    6594    6595    6596    6597    6598    6599    6600    6601    6602
    6603    6604    6605    6595    6596    6597    6598    6599    6600    6601
    6602    6605    6606    6607    6608    6596    6597    6598    6599    6602
    6603    6604    6605    6609    6610    6611    6597    6599    6600    6601
    6602    6606    6607    6608    6612    6613    6614    6598    6599    6600
    6601    6602    6605    6608    6609    6611    6599    6603    6604    6605
    6609    6610    6615    6616    6617    6601    6602    6603    6604    6605
    6609    6611    6615    6601    6602    6606    6607    6608    6612    6613
    6618    6602    6606    6607    6608    6612    6614    6618    6605    6608
    6612    6614    6604    6605    6609    6610    6611    6615    6616    6617
    6619    6620    6621    6622    6609    6610    6609    6610    6611    6615
    6607    6608    6612    6613    6614    6618    6623    6624    6625    6612
    6613    6612    6613    6614    6618    6623    6624    6625    6610    6611
    6615    6616    6617    6615    6616    6617    6619    6620    6621    6622
    6626    6627    6628    6615    6613    6614    6618    6623    6624    6625
    6629    6630    6631    6618    6618       0    6617    6619    6620    6621
    6622    6626    6627    6632    6619    6620    6621    6622    6626    6628
    6632    6623    6624    6625    6629    6630    6631    6633    6634    6635
    6620    6621    6626    6627    6628    6632    6626    6627    6622    6626
    6627    6628    6632    6626    6628    6624    6625    6629    6630    6631
    6633    6634    6635    6636    6637    6638    6625    6629    6630    6631
    6629    6630    6631    6627    6628    6632    6632    6632    6630    6631
    6633    6634    6635    6636    6637    6638    6639    6640    6641    6631
    6633    6634    6635    6633    6634    6635       0    6634    6635    6636
    6637    6638    6639    6640    6641    6642    6643    6644    6635    6636
    6637    6638    6636    6637    6638    6637    6638    6639    6640    6641
    6642    6643    6644    6645    6646    6647    6638    6639    6640    6641
    6639    6640    6641    6640    6641    6642    6643    6644    6645    6646
    6647    6648    6649    6650    6641    6642    6643    6644    6642    6643
    6644    6643    6644    6645    6646    6647    6648    6649    6650    6651
    6652    6653    6644    6645    6646    6647    6645    6646    6647    6646
    6647    6648    6649    6650    6647    6648    6649    6650    6648    6649
    6650    6651    6652    6653    6654    6655    6656    6649    6650    6651
    6652    6653    6654    6655    6656    6650    6651    6652    6653    6651
    6652    6653    6652    6653    6654    6655    6656    6653    6654    6655
    6656    6654    6655    6656    6655    6656    6656       0    6658    6659
    6660    6661    6662    6663    6664    6665    6666    6667    6668    6669
    6659    6660    6661    6662    6663    6664    6665    6666    6669    6670
    6671    6672    6660    6661    6662    6663    6666    6667    6668    6669
    6673    6674    6675    6661    6663    6664    6665    6666    6670    6671
    6672    6676    6677    6678    6662    6663    6664    6665    6666    6669
    6672    6673    6675    6663    6667    6668    6669    6673    6674    6679
    6680    6681    6665    6666    6667    6668    6669    6673    6675    6679
    6665    6666    6670    6671    6672    6676    6677    6682    6666    6670
    6671    6672    6676    6678    6682    6669    6672    6676    6678    6668
    6669    6673    6674    6675    6679    6680    6681    6683    6684    6685
    6686    6673    6674    6673    6674    6675    6679    6671    6672    6676
    6677    6678    6682    6687    6688    6689    6676    6677    6676    6677
    6678    6682    6687    6688    6689    6674    6675    6679    6680    6681
    6679    6680    6681    6683    6684    6685    6686    6690    6691    6692
    6679    6677    6678    6682    6687    6688    6689    6693    6694    6695
    6682    6682       0    6681    6683    6684    6685    6686    6690    6691
    6696    6683    6684    6685    6686    6690    6692    6696    6687    6688
    6689    6693    6694    6695    6697    6698    6699    6684    6685    6690
    6691    6692    6696    6690    6691    6686    6690    6691    6692    6696
    6690    6692    6688    6689    6693    6694    6695    6697    6698    6699
    6700    6701    6702    6689    6693    6694    6695    6693    6694    6695
    6691    6692    6696    6696    6696    6694    6695    6697    6698    6699
    6700    6701    6702    6703    6704    6705    6695    6697    6698    6699
    6697    6698    6699       0    6698    6699    6700    6701    6702    6703
    6704    6705    6706    6707    6708    6699    6700    6701    6702    6700
    6701    6702    6701    6702    6703    6704    6705    6706    6707    6708
    6709    6710    6711    6702    6703    6704    6705    6703    6704    6705
    6704    6705    6706    6707    6708    6709    6710    6711    6712    6713
    6714    6705    6706    6707    6708    6706    6707    6708    6707    6708
    6709    6710    6711    6712    6713    6714    6715    6716    6717    6708
    6709    6710    6711    6709    6710    6711    6710    6711    6712    6713
    6714    6711    6712    6713    6714    6712    6713    6714    6715    6716
    6717    6718    6719    6720    6713    6714    6715    6716    6717    6718
    6719    6720    6714    6715    6716    6717    6715    6716    6717    6716
    6717    6718    6719    6720    6717    6718    6719    6720    6718    6719
    6720    6719    6720    6720       0    6722    6723    6724    6725    6726
    6727    6728    6729    6730    6731    6732    6733    6723    6724    6725
    6726    6727    6728    6729    6730    6733    6734    6735    6736    6724
    6725    6726    6727    6730    6731    6732    6733    6737    6738    6739
    6725    6727    6728    6729    6730    6734    6735    6736    6740    6741
    6742    6726    6727    6728    6729    6730    6733    6736    6737    6739
    6727    6731    6732    6733    6737    6738    6743    6744    6745    6729
    6730    6731    6732    6733    6737    6739    6743    6729    6730    6734
    6735    6736    6740    6741    6746    6730    6734    6735    6736    6740
    6742    6746    6733    6736    6740    6742    6732    6733    6737    6738
    6739    6743    6744    6745    6747    6748    6749    6750    6737    6738
    6737    6738    6739    6743    6735    6736    6740    6741    6742    6746
    6751    6752    6753    6740    6741    6740    6741    6742    6746    6751
    6752    6753    6738    6739    6743    6744    6745    6743    6744    6745
    6747    6748    6749    6750    6754    6755    6756    6743    6741    6742
    6746    6751    6752    6753    6757    6758    6759    6746    6746       0
    6745    6747    6748    6749    6750    6754    6755    6760    6747    6748
    6749    6750    6754    6756    6760    6751    6752    6753    6757    6758
    6759    6761    6762    6763    6748    6749    6754    6755    6756    6760
    6754    6755    6750    6754    6755    6756    6760    6754    6756    6752
    6753    6757    6758    6759    6761    6762    6763    6764    6765    6766
    6753    6757    6758    6759    6757    6758    6759    6755    6756    6760
    6760    6760    6758    6759    6761    6762    6763    6764    6765    6766
    6767    6768    6769    6759    6761    6762    6763    6761    6762    6763
       0    6762    6763    6764    6765    6766    6767    6768    6769    6770
    6771    6772    6763    6764    6765    6766    6764    6765    6766    6765
    6766    6767    6768    6769    6770    6771    6772    6773    6774    6775
    6766    6767    6768    6769    6767    6768    6769    6768    6769    6770
    6771    6772    6773    6774    6775    6776    6777    6778    6769    6770
    6771    6772    6770    6771    6772    6771    6772    6773    6774    6775
    6776    6777    6778    6779    6780    6781    6772    6773    6774    6775
    6773    6774    6775    6774    6775    6776    6777    6778    6775    6776
    6777    6778    6776    6777    6778    6779    6780    6781    6782    6783
    6784    6777    6778    6779    6780    6781    6782    6783    6784    6778
    6779    6780    6781    6779    6780    6781    6780    6781    6782    6783
    6784    6781    6782    6783    6784    6782    6783    6784    6783    6784
    6784       0    6786    6787    6788    6789    6790    6791    6792    6793
    6794    6795    6796    6797    6787    6788    6789    6790    6791    6792
    6793    6794    6797    6798    6799    6800    6788    6789    6790    6791
    6794    6795    6796    6797    6801    6802    6803    6789    6791    6792
    6793    6794    6798    6799    6800    6804    6805    6806    6790    6791
    6792    6793    6794    6797    6800    6801    6803    6791    6795    6796
    6797    6801    6802    6807    6808    6809    6793    6794    6795    6796
    6797    6801    6803    6807    6793    6794    6798    6799    6800    6804
    6805    6810    6794    6798    6799    6800    6804    6806    6810    6797
    6800    6804    6806    6796    6797    6801    6802    6803    6807    6808
    6809    6811    6812    6813    6814    6801    6802    6801    6802    6803
    6807    6799    6800    6804    6805    6806    6810    6815    6816    6817
    6804    6805    6804    6805    6806    6810    6815    6816    6817    6802
    6803    6807    6808    6809    6807    6808    6809    6811    6812    6813
    6814    6818    6819    6820    6807    6805    6806    6810    6815    6816
    6817    6821    6822    6823    6810    6810       0    6809    6811    6812
    6813    6814    6818    6819    6824    6811    6812    6813    6814    6818
    6820    6824    6815    6816    6817    6821    6822    6823    6825    6826
    6827    6812    6813    6818    6819    6820    6824    6818    6819    6814
    6818    6819    6820    6824    6818    6820    6816    6817    6821    6822
    6823    6825    6826    6827    6828    6829    6830    6817    6821    6822
    6823    6821    6822    6823    6819    6820    6824    6824    6824    6822
    6823    6825    6826    6827    6828    6829    6830    6831    6832    6833
    6823    6825    6826    6827    6825    6826    6827       0    6826    6827
    6828    6829    6830    6831    6832    6833    6834    6835    6836    6827
    6828    6829    6830    6828    6829    6830    6829    6830    6831    6832
    6833    6834    6835    6836    6837    6838    6839    6830    6831    6832
    6833    6831    6832    6833    6832    6833    6834    6835    6836    6837
    6838    6839    6840    6841    6842    6833    6834    6835    6836    6834
    6835    6836    6835    6836    6837    6838    6839    6840    6841    6842
    6843    6844    6845    6836    6837    6838    6839    6837    6838    6839
    6838    6839    6840    6841    6842    6839    6840    6841    6842    6840
    6841    6842    6843    6844    6845    6846    6847    6848    6841    6842
    6843    6844    6845    6846    6847    6848    6842    6843    6844    6845
    6843    6844    6845    6844    6845    6846    6847    6848    6845    6846
    6847    6848    6846    6847    6848    6847    6848    6848       0    6850
    6851    6852    6853    6854    6855    6856    6857    6858    6859    6860
    6861    6851    6852    6853    6854    6855    6856    6857    6858    6861
    6862    6863    6864    6852    6853    6854    6855    6858    6859    6860
    6861    6865    6866    6867    6853    6855    6856    6857    6858    6862
    6863    6864    6868    6869    6870    6854    6855    6856    6857    6858
    6861    6864    6865    6867    6855    6859    6860    6861    6865    6866
    6871    6872    6873    6857    6858    6859    6860    6861    6865    6867
    6871    6857    6858    6862    6863    6864    6868    6869    6874    6858
    6862    6863    6864    6868    6870    6874    6861    6864    6868    6870
    6860    6861    6865    6866    6867    6871    6872    6873    6875    6876
    6877    6878    6865    6866    6865    6866    6867    6871    6863    6864
    6868    6869    6870    6874    6879    6880    6881    6868    6869    6868
    6869    6870    6874    6879    6880    6881    6866    6867    6871    6872
    6873    6871    6872    6873    6875    6876    6877    6878    6882    6883
    6884    6871    6869    6870    6874    6879    6880    6881    6885    6886
    6887    6874    6874       0    6873    6875    6876    6877    6878    6882
    6883    6888    6875    6876    6877    6878    6882    6884    6888    6879
    6880    6881    6885    6886    6887    6889    6890    6891    6876    6877
    6882    6883    6884    6888    6882    6883    6878    6882    6883    6884
    6888    6882    6884    6880    6881    6885    6886    6887    6889    6890
    6891    6892    6893    6894    6881    6885    6886    6887    6885    6886
    6887    6883    6884    6888    6888    6888    6886    6887    6889    6890
    6891    6892    6893    6894    6895    6896    6897    6887    6889    6890
    6891    6889    6890    6891       0    6890    6891    6892    6893    6894
    6895    6896    6897    6898    6899    6900    6891    6892    6893    6894
    6892    6893    6894    6893    6894    6895    6896    6897    6898    6899
    6900    6901    6902    6903    6894    6895    6896    6897    6895    6896
    6897    6896    6897    6898    6899    6900    6901    6902    6903    6904
    6905    6906    6897    6898    6899    6900    6898    6899    6900    6899
    6900    6901    6902    6903    6904    6905    6906    6907    6908    6909
    6900    6901    6902    6903    6901    6902    6903    6902    6903    6904
    6905    6906    6903    6904    6905    6906    6904    6905    6906    6907
    6908    6909    6910    6911    6912    6905    6906    6907    6908    6909
    6910    6911    6912    6906    6907    6908    6909    6907    6908    6909
    6908    6909    6910    6911    6912    6909    6910    6911    6912    6910
    6911    6912    6911    6912    6912       0    6914    6915    6916    6917
    6918    6919    6920    6921    6922    6923    6924    6925    6915    6916
    6917    6918    6919    6920    6921    6922    6925    6926    6927    6928
    6916    6917    6918    6919    6922    6923    6924    6925    6929    6930
    6931    6917    6919    6920    6921    6922    6926    6927    6928    6932
    6933    6934    6918    6919    6920    6921    6922    6925    6928    6929
    6931    6919    6923    6924    6925    6929    6930    6935    6936    6937
    6921    6922    6923    6924    6925    6929    6931    6935    6921    6922
    6926    6927    6928    6932    6933    6938    6922    6926    6927    6928
    6932    6934    6938    6925    6928    6932    6934    6924    6925    6929
    6930    6931    6935    6936    6937    6939    6940    6941    6942    6929
    6930    6929    6930    6931    6935    6927    6928    6932    6933    6934
    6938    6943    6944    6945    6932    6933    6932    6933    6934    6938
    6943    6944    6945    6930    6931    6935    6936    6937    6935    6936
    6937    6939    6940    6941    6942    6946    6947    6948    6935    6933
    6934    6938    6943    6944    6945    6949    6950    6951    6938    6938
       0    6937    6939    6940    6941    6942    6946    6947    6952    6939
    6940    6941    6942    6946    6948    6952    6943    6944    6945    6949
    6950    6951    6953    6954    6955    6940    6941    6946    6947    6948
    6952    6946    6947    6942    6946    6947    6948    6952    6946    6948
    6944    6945    6949    6950    6951    6953    6954    6955    6956    6957
    6958    6945    6949    6950    6951    6949    6950    6951    6947    6948
    6952    6952    6952    6950    6951    6953    6954    6955    6956    6957
    6958    6959    6960    6961    6951    6953    6954    6955    6953    6954
    6955       0    6954    6955    6956    6957    6958    6959    6960    6961
    6962    6963    6964    6955    6956    6957    6958    6956    6957    6958
    6957    6958    6959    6960    6961    6962    6963    6964    6965    6966
    6967    6958    6959    6960    6961    6959    6960    6961    6960    6961
    6962    6963    6964    6965    6966    6967    6968    6969    6970    6961
    6962    6963    6964    6962    6963    6964    6963    6964    6965    6966
    6967    6968    6969    6970    6971    6972    6973    6964    6965    6966
    6967    6965    6966    6967    6966    6967    6968    6969    6970    6967
    6968    6969    6970    6968    6969    6970    6971    6972    6973    6974
    6975    6976    6969    6970    6971    6972    6973    6974    6975    6976
    6970    6971    6972    6973    6971    6972    6973    6972    6973    6974
    6975    6976    6973    6974    6975    6976    6974    6975    6976    6975
    6976    6976       0    6978    6979    6980    6981    6982    6983    6984
    6985    6986    6987    6988    6989    6979    6980    6981    6982    6983
    6984    6985    6986    6989    6990    6991    6992    6980    6981    6982
    6983    6986    6987    6988    6989    6993    6994    6995    6981    6983
    6984    6985    6986    6990    6991    6992    6996    6997    6998    6982
    6983    6984    6985    6986    6989    6992    6993    6995    6983    6987
    6988    6989    6993    6994    6999    7000    7001    6985    6986    6987
    6988    6989    6993    6995    6999    6985    6986    6990    6991    6992
    6996    6997    7002    6986    6990    6991    6992    6996    6998    7002
    6989    6992    6996    6998    6988    6989    6993    6994    6995    6999
    7000    7001    7003    7004    7005    7006    6993    6994    6993    6994
    6995    6999    6991    6992    6996    6997    6998    7002    7007    7008
    7009    6996    6997    6996    6997    6998    7002    7007    7008    7009
    6994    6995    6999    7000    7001    6999    7000    7001    7003    7004
    7005    7006    7010    7011    7012    6999    6997    6998    7002    7007
    7008    7009    7013    7014    7015    7002    7002       0    7001    7003
    7004    7005    7006    7010    7011    7016    7003    7004    7005    7006
    7010    7012    7016    7007    7008    7009    7013    7014    7015    7017
    7018    7019    7004    7005    7010    7011    7012    7016    7010    7011
    7006    7010    7011    7012    7016    7010    7012    7008    7009    7013
    7014    7015    7017    7018    7019    7020    7021    7022    7009    7013
    7014    7015    7013    7014    7015    7011    7012    7016    7016    7016
    7014    7015    7017    7018    7019    7020    7021    7022    7023    7024
    7025    7015    7017    7018    7019    7017    7018    7019       0    7018
    7019    7020    7021    7022    7023    7024    7025    7026    7027    7028
    7019    7020    7021    7022    7020    7021    7022    7021    7022    7023
    7024    7025    7026    7027    7028    7029    7030    7031    7022    7023
    7024    7025    7023    7024    7025    7024    7025    7026    7027    7028
    7029    7030    7031    7032    7033    7034    7025    7026    7027    7028
    7026    7027    7028    7027    7028    7029    7030    7031    7032    7033
    7034    7035    7036    7037    7028    7029    7030    7031    7029    7030
    7031    7030    7031    7032    7033    7034    7031    7032    7033    7034
    7032    7033    7034    7035    7036    7037    7038    7039    7040    7033
    7034    7035    7036    7037    7038    7039    7040    7034    7035    7036
    7037    7035    7036    7037    7036    7037    7038    7039    7040    7037
    7038    7039    7040    7038    7039    7040    7039    7040    7040       0
    7042    7043    7044    7045    7046    7047    7048    7049    7050    7051
    7052    7053    7043    7044    7045    7046    7047    7048    7049    7050
    7053    7054    7055    7056    7044    7045    7046    7047    7050    7051
    7052    7053    7057    7058    7059    7045    7047    7048    7049    7050
    7054    7055    7056    7060    7061    7062    7046    7047    7048    7049
    7050    7053    7056    7057    7059    7047    7051    7052    7053    7057
    7058    7063    7064    7065    7049    7050    7051    7052    7053    7057
    7059    7063    7049    7050    7054    7055    7056    7060    7061    7066
    7050    7054    7055    7056    7060    7062    7066    7053    7056    7060
    7062    7052    7053    7057    7058    7059    7063    7064    7065    7067
    7068    7069    7070    7057    7058    7057    7058    7059    7063    7055
    7056    7060    7061    7062    7066    7071    7072    7073    7060    7061
    7060    7061    7062    7066    7071    7072    7073    7058    7059    7063
    7064    7065    7063    7064    7065    7067    7068    7069    7070    7074
    7075    7076    7063    7061    7062    7066    7071    7072    7073    7077
    7078    7079    7066    7066       0    7065    7067    7068    7069    7070
    7074    7075    7080    7067    7068    7069    7070    7074    7076    7080
    7071    7072    7073    7077    7078    7079    7081    7082    7083    7068
    7069    7074    7075    7076    7080    7074    7075    7070    7074    7075
    7076    7080    7074    7076    7072    7073    7077    7078    7079    7081
    7082    7083    7084    7085    7086    7073    7077    7078    7079    7077
    7078    7079    7075    7076    7080    7080    7080    7078    7079    7081
    7082    7083    7084    7085    7086    7087    7088    7089    7079    7081
    7082    7083    7081    7082    7083       0    7082    7083    7084    7085
    7086    7087    7088    7089    7090    7091    7092    7083    7084    7085
    7086    7084    7085    7086    7085    7086    7087    7088    7089    7090
    7091    7092    7093    7094    7095    7086    7087    7088    7089    7087
    7088    7089    7088    7089    7090    7091    7092    7093    7094    7095
    7096    7097    7098    7089    7090    7091    7092    7090    7091    7092
    7091    7092    7093    7094    7095    7096    7097    7098    7099    7100
    7101    7092    7093    7094    7095    7093    7094    7095    7094    7095
    7096    7097    7098    7095    7096    7097    7098    7096    7097    7098
    7099    7100    7101    7102    7103    7104    7097    7098    7099    7100
    7101    7102    7103    7104    7098    7099    7100    7101    7099    7100
    7101    7100    7101    7102    7103    7104    7101    7102    7103    7104
    7102    7103    7104    7103    7104    7104       0    7106    7107    7108
    7109    7110    7111    7112    7113    7114    7115    7116    7117    7107
    7108    7109    7110    7111    7112    7113    7114    7117    7118    7119
    7120    7108    7109    7110    7111    7114    7115    7116    7117    7121
    7122    7123    7109    7111    7112    7113    7114    7118    7119    7120
    7124    7125    7126    7110    7111    7112    7113    7114    7117    7120
    7121    7123    7111    7115    7116    7117    7121    7122    7127    7128
    7129    7113    7114    7115    7116    7117    7121    7123    7127    7113
    7114    7118    7119    7120    7124    7125    7130    7114    7118    7119
    7120    7124    7126    7130    7117    7120    7124    7126    7116    7117
    7121    7122    7123    7127    7128    7129    7131    7132    7133    7134
    7121    7122    7121    7122    7123    7127    7119    7120    7124    7125
    7126    7130    7135    7136    7137    7124    7125    7124    7125    7126
    7130    7135    7136    7137    7122    7123    7127    7128    7129    7127
    7128    7129    7131    7132    7133    7134    7138    7139    7140    7127
    7125    7126    7130    7135    7136    7137    7141    7142    7143    7130
    7130       0    7129    7131    7132    7133    7134    7138    7139    7144
    7131    7132    7133    7134    7138    7140    7144    7135    7136    7137
    7141    7142    7143    7145    7146    7147    7132    7133    7138    7139
    7140    7144    7138    7139    7134    7138    7139    7140    7144    7138
    7140    7136    7137    7141    7142    7143    7145    7146    7147    7148
    7149    7150    7137    7141    7142    7143    7141    7142    7143    7139
    7140    7144    7144    7144    7142    7143    7145    7146    7147    7148
    7149    7150    7151    7152    7153    7143    7145    7146    7147    7145
    7146    7147       0    7146    7147    7148    7149    7150    7151    7152
    7153    7154    7155    7156    7147    7148    7149    7150    7148    7149
    7150    7149    7150    7151    7152    7153    7154    7155    7156    7157
    7158    7159    7150    7151    7152    7153    7151    7152    7153    7152
    7153    7154    7155    7156    7157    7158    7159    7160    7161    7162
    7153    7154    7155    7156    7154    7155    7156    7155    7156    7157
    7158    7159    7160    7161    7162    7163    7164    7165    7156    7157
    7158    7159    7157    7158    7159    7158    7159    7160    7161    7162
    7159    7160    7161    7162    7160    7161    7162    7163    7164    7165
    7166    7167    7168    7161    7162    7163    7164    7165    7166    7167
    7168    7162    7163    7164    7165    7163    7164    7165    7164    7165
    7166    7167    7168    7165    7166    7167    7168    7166    7167    7168
    7167    7168    7168       0    7170    7171    7172    7173    7174    7175
    7176    7177    7178    7179    7180    7181    7171    7172    7173    7174
    7175    7176    7177    7178    7181    7182    7183    7184    7172    7173
    7174    7175    7178    7179    7180    7181    7185    7186    7187    7173
    7175    7176    7177    7178    7182    7183    7184    7188    7189    7190
    7174    7175    7176    7177    7178    7181    7184    7185    7187    7175
    7179    7180    7181    7185    7186    7191    7192    7193    7177    7178
    7179    7180    7181    7185    7187    7191    7177    7178    7182    7183
    7184    7188    7189    7194    7178    7182    7183    7184    7188    7190
    7194    7181    7184    7188    7190    7180    7181    7185    7186    7187
    7191    7192    7193    7195    7196    7197    7198    7185    7186    7185
    7186    7187    7191    7183    7184    7188    7189    7190    7194    7199
    7200    7201    7188    7189    7188    7189    7190    7194    7199    7200
    7201    7186    7187    7191    7192    7193    7191    7192    7193    7195
    7196    7197    7198    7202    7203    7204    7191    7189    7190    7194
    7199    7200    7201    7205    7206    7207    7194    7194       0    7193
    7195    7196    7197    7198    7202    7203    7208    7195    7196    7197
    7198    7202    7204    7208    7199    7200    7201    7205    7206    7207
    7209    7210    7211    7196    7197    7202    7203    7204    7208    7202
    7203    7198    7202    7203    7204    7208    7202    7204    7200    7201
    7205    7206    7207    7209    7210    7211    7212    7213    7214    7201
    7205    7206    7207    7205    7206    7207    7203    7204    7208    7208
    7208    7206    7207    7209    7210    7211    7212    7213    7214    7215
    7216    7217    7207    7209    7210    7211    7209    7210    7211       0
    7210    7211    7212    7213    7214    7215    7216    7217    7218    7219
    7220    7211    7212    7213    7214    7212    7213    7214    7213    7214
    7215    7216    7217    7218    7219    7220    7221    7222    7223    7214
    7215    7216    7217    7215    7216    7217    7216    7217    7218    7219
    7220    7221    7222    7223    7224    7225    7226    7217    7218    7219
    7220    7218    7219    7220    7219    7220    7221    7222    7223    7224
    7225    7226    7227    7228    7229    7220    7221    7222    7223    7221
    7222    7223    7222    7223    7224    7225    7226    7223    7224    7225
    7226    7224    7225    7226    7227    7228    7229    7230    7231    7232
    7225    7226    7227    7228    7229    7230    7231    7232    7226    7227
    7228    7229    7227    7228    7229    7228    7229    7230    7231    7232
    7229    7230    7231    7232    7230    7231    7232    7231    7232    7232
       0    7234    7235    7236    7237    7238    7239    7240    7241    7242
    7243    7244    7245    7235    7236    7237    7238    7239    7240    7241
    7242    7245    7246    7247    7248    7236    7237    7238    7239    7242
    7243    7244    7245    7249    7250    7251    7237    7239    7240    7241
    7242    7246    7247    7248    7252    7253    7254    7238    7239    7240
    7241    7242    7245    7248    7249    7251    7239    7243    7244    7245
    7249    7250    7255    7256    7257    7241    7242    7243    7244    7245
    7249    7251    7255    7241    7242    7246    7247    7248    7252    7253
    7258    7242    7246    7247    7248    7252    7254    7258    7245    7248
    7252    7254    7244    7245    7249    7250    7251    7255    7256    7257
    7259    7260    7261    7262    7249    7250    7249    7250    7251    7255
    7247    7248    7252    7253    7254    7258    7263    7264    7265    7252
    7253    7252    7253    7254    7258    7263    7264    7265    7250    7251
    7255    7256    7257    7255    7256    7257    7259    7260    7261    7262
    7266    7267    7268    7255    7253    7254    7258    7263    7264    7265
    7269    7270    7271    7258    7258       0    7257    7259    7260    7261
    7262    7266    7267    7272    7259    7260    7261    7262    7266    7268
    7272    7263    7264    7265    7269    7270    7271    7273    7274    7275
    7260    7261    7266    7267    7268    7272    7266    7267    7262    7266
    7267    7268    7272    7266    7268    7264    7265    7269    7270    7271
    7273    7274    7275    7276    7277    7278    7265    7269    7270    7271
    7269    7270    7271    7267    7268    7272    7272    7272    7270    7271
    7273    7274    7275    7276    7277    7278    7279    7280    7281    7271
    7273    7274    7275    7273    7274    7275       0    7274    7275    7276
    7277    7278    7279    7280    7281    7282    7283    7284    7275    7276
    7277    7278    7276    7277    7278    7277    7278    7279    7280    7281
    7282    7283    7284    7285    7286    7287    7278    7279    7280    7281
    7279    7280    7281    7280    7281    7282    7283    7284    7285    7286
    7287    7288    7289    7290    7281    7282    7283    7284    7282    7283
    7284    7283    7284    7285    7286    7287    7288    7289    7290    7291
    7292    7293    7284    7285    7286    7287    7285    7286    7287    7286
    7287    7288    7289    7290    7287    7288    7289    7290    7288    7289
    7290    7291    7292    7293    7294    7295    7296    7289    7290    7291
    7292    7293    7294    7295    7296    7290    7291    7292    7293    7291
    7292    7293    7292    7293    7294    7295    7296    7293    7294    7295
    7296    7294    7295    7296    7295    7296    7296       0    7298    7299
    7300    7301    7302    7303    7304    7305    7306    7307    7308    7309
    7299    7300    7301    7302    7303    7304    7305    7306    7309    7310
    7311    7312    7300    7301    7302    7303    7306    7307    7308    7309
    7313    7314    7315    7301    7303    7304    7305    7306    7310    7311
    7312    7316    7317    7318    7302    7303    7304    7305    7306    7309
    7312    7313    7315    7303    7307    7308    7309    7313    7314    7319
    7320    7321    7305    7306    7307    7308    7309    7313    7315    7319
    7305    7306    7310    7311    7312    7316    7317    7322    7306    7310
    7311    7312    7316    7318    7322    7309    7312    7316    7318    7308
    7309    7313    7314    7315    7319    7320    7321    7323    7324    7325
    7326    7313    7314    7313    7314    7315    7319    7311    7312    7316
    7317    7318    7322    7327    7328    7329    7316    7317    7316    7317
    7318    7322    7327    7328    7329    7314    7315    7319    7320    7321
    7319    7320    7321    7323    7324    7325    7326    7330    7331    7332
    7319    7317    7318    7322    7327    7328    7329    7333    7334    7335
    7322    7322       0    7321    7323    7324    7325    7326    7330    7331
    7336    7323    7324    7325    7326    7330    7332    7336    7327    7328
    7329    7333    7334    7335    7337    7338    7339    7324    7325    7330
    7331    7332    7336    7330    7331    7326    7330    7331    7332    7336
    7330    7332    7328    7329    7333    7334    7335    7337    7338    7339
    7340    7341    7342    7329    7333    7334    7335    7333    7334    7335
    7331    7332    7336    7336    7336    7334    7335    7337    7338    7339
    7340    7341    7342    7343    7344    7345    7335    7337    7338    7339
    7337    7338    7339       0    7338    7339    7340    7341    7342    7343
    7344    7345    7346    7347    7348    7339    7340    7341    7342    7340
    7341    7342    7341    7342    7343    7344    7345    7346    7347    7348
    7349    7350    7351    7342    7343    7344    7345    7343    7344    7345
    7344    7345    7346    7347    7348    7349    7350    7351    7352    7353
    7354    7345    7346    7347    7348    7346    7347    7348    7347    7348
    7349    7350    7351    7352    7353    7354    7355    7356    7357    7348
    7349    7350    7351    7349    7350    7351    7350    7351    7352    7353
    7354    7351    7352    7353    7354    7352    7353    7354    7355    7356
    7357    7358    7359    7360    7353    7354    7355    7356    7357    7358
    7359    7360    7354    7355    7356    7357    7355    7356    7357    7356
    7357    7358    7359    7360    7357    7358    7359    7360    7358    7359
    7360    7359    7360    7360       0    7362    7363    7364    7365    7366
    7367    7368    7369    7370    7371    7372    7373    7363    7364    7365
    7366    7367    7368    7369    7370    7373    7374    7375    7376    7364
    7365    7366    7367    7370    7371    7372    7373    7377    7378    7379
    7365    7367    7368    7369    7370    7374    7375    7376    7380    7381
    7382    7366    7367    7368    7369    7370    7373    7376    7377    7379
    7367    7371    7372    7373    7377    7378    7383    7384    7385    7369
    7370    7371    7372    7373    7377    7379    7383    7369    7370    7374
    7375    7376    7380    7381    7386    7370    7374    7375    7376    7380
    7382    7386    7373    7376    7380    7382    7372    7373    7377    7378
    7379    7383    7384    7385    7387    7388    7389    7390    7377    7378
    7377    7378    7379    7383    7375    7376    7380    7381    7382    7386
    7391    7392    7393    7380    7381    7380    7381    7382    7386    7391
    7392    7393    7378    7379    7383    7384    7385    7383    7384    7385
    7387    7388    7389    7390    7394    7395    7396    7383    7381    7382
    7386    7391    7392    7393    7397    7398    7399    7386    7386       0
    7385    7387    7388    7389    7390    7394    7395    7400    7387    7388
    7389    7390    7394    7396    7400    7391    7392    7393    7397    7398
    7399    7401    7402    7403    7388    7389    7394    7395    7396    7400
    7394    7395    7390    7394    7395    7396    7400    7394    7396    7392
    7393    7397    7398    7399    7401    7402    7403    7404    7405    7406
    7393    7397    7398    7399    7397    7398    7399    7395    7396    7400
    7400    7400    7398    7399    7401    7402    7403    7404    7405    7406
    7407    7408    7409    7399    7401    7402    7403    7401    7402    7403
       0    7402    7403    7404    7405    7406    7407    7408    7409    7410
    7411    7412    7403    7404    7405    7406    7404    7405    7406    7405
    7406    7407    7408    7409    7410    7411    7412    7413    7414    7415
    7406    7407    7408    7409    7407    7408    7409    7408    7409    7410
    7411    7412    7413    7414    7415    7416    7417    7418    7409    7410
    7411    7412    7410    7411    7412    7411    7412    7413    7414    7415
    7416    7417    7418    7419    7420    7421    7412    7413    7414    7415
    7413    7414    7415    7414    7415    7416    7417    7418    7415    7416
    7417    7418    7416    7417    7418    7419    7420    7421    7422    7423
    7424    7417    7418    7419    7420    7421    7422    7423    7424    7418
    7419    7420    7421    7419    7420    7421    7420    7421    7422    7423
    7424    7421    7422    7423    7424    7422    7423    7424    7423    7424
    7424       0    7426    7427    7428    7429    7430    7431    7432    7433
    7434    7435    7436    7437    7427    7428    7429    7430    7431    7432
    7433    7434    7437    7438    7439    7440    7428    7429    7430    7431
    7434    7435    7436    7437    7441    7442    7443    7429    7431    7432
    7433    7434    7438    7439    7440    7444    7445    7446    7430    7431
    7432    7433    7434    7437    7440    7441    7443    7431    7435    7436
    7437    7441    7442    7447    7448    7449    7433    7434    7435    7436
    7437    7441    7443    7447    7433    7434    7438    7439    7440    7444
    7445    7450    7434    7438    7439    7440    7444    7446    7450    7437
    7440    7444    7446    7436    7437    7441    7442    7443    7447    7448
    7449    7451    7452    7453    7454    7441    7442    7441    7442    7443
    7447    7439    7440    7444    7445    7446    7450    7455    7456    7457
    7444    7445    7444    7445    7446    7450    7455    7456    7457    7442
    7443    7447    7448    7449    7447    7448    7449    7451    7452    7453
    7454    7458    7459    7460    7447    7445    7446    7450    7455    7456
    7457    7461    7462    7463    7450    7450       0    7449    7451    7452
    7453    7454    7458    7459    7464    7451    7452    7453    7454    7458
    7460    7464    7455    7456    7457    7461    7462    7463    7465    7466
    7467    7452    7453    7458    7459    7460    7464    7458    7459    7454
    7458    7459    7460    7464    7458    7460    7456    7457    7461    7462
    7463    7465    7466    7467    7468    7469    7470    7457    7461    7462
    7463    7461    7462    7463    7459    7460    7464    7464    7464    7462
    7463    7465    7466    7467    7468    7469    7470    7471    7472    7473
    7463    7465    7466    7467    7465    7466    7467       0    7466    7467
    7468    7469    7470    7471    7472    7473    7474    7475    7476    7467
    7468    7469    7470    7468    7469    7470    7469    7470    7471    7472
    7473    7474    7475    7476    7477    7478    7479    7470    7471    7472
    7473    7471    7472    7473    7472    7473    7474    7475    7476    7477
    7478    7479    7480    7481    7482    7473    7474    7475    7476    7474
    7475    7476    7475    7476    7477    7478    7479    7480    7481    7482
    7483    7484    7485    7476    7477    7478    7479    7477    7478    7479
    7478    7479    7480    7481    7482    7479    7480    7481    7482    7480
    7481    7482    7483    7484    7485    7486    7487    7488    7481    7482
    7483    7484    7485    7486    7487    7488    7482    7483    7484    7485
    7483    7484    7485    7484    7485    7486    7487    7488    7485    7486
    7487    7488    7486    7487    7488    7487    7488    7488       0    7490
    7491    7492    7493    7494    7495    7496    7497    7498    7499    7500
    7501    7491    7492    7493    7494    7495    7496    7497    7498    7501
    7502    7503    7504    7492    7493    7494    7495    7498    7499    7500
    7501    7505    7506    7507    7493    7495    7496    7497    7498    7502
    7503    7504    7508    7509    7510    7494    7495    7496    7497    7498
    7501    7504    7505    7507    7495    7499    7500    7501    7505    7506
    7511    7512    7513    7497    7498    7499    7500    7501    7505    7507
    7511    7497    7498    7502    7503    7504    7508    7509    7514    7498
    7502    7503    7504    7508    7510    7514    7501    7504    7508    7510
    7500    7501    7505    7506    7507    7511    7512    7513    7515    7516
    7517    7518    7505    7506    7505    7506    7507    7511    7503    7504
    7508    7509    7510    7514    7519    7520    7521    7508    7509    7508
    7509    7510    7514    7519    7520    7521    7506    7507    7511    7512
    7513    7511    7512    7513    7515    7516    7517    7518    7522    7523
    7524    7511    7509    7510    7514    7519    7520    7521    7525    7526
    7527    7514    7514       0    7513    7515    7516    7517    7518    7522
    7523    7528    7515    7516    7517    7518    7522    7524    7528    7519
    7520    7521    7525    7526    7527    7529    7530    7531    7516    7517
    7522    7523    7524    7528    7522    7523    7518    7522    7523    7524
    7528    7522    7524    7520    7521    7525    7526    7527    7529    7530
    7531    7532    7533    7534    7521    7525    7526    7527    7525    7526
    7527    7523    7524    7528    7528    7528    7526    7527    7529    7530
    7531    7532    7533    7534    7535    7536    7537    7527    7529    7530
    7531    7529    7530    7531       0    7530    7531    7532    7533    7534
    7535    7536    7537    7538    7539    7540    7531    7532    7533    7534
    7532    7533    7534    7533    7534    7535    7536    7537    7538    7539
    7540    7541    7542    7543    7534    7535    7536    7537    7535    7536
    7537    7536    7537    7538    7539    7540    7541    7542    7543    7544
    7545    7546    7537    7538    7539    7540    7538    7539    7540    7539
    7540    7541    7542    7543    7544    7545    7546    7547    7548    7549
    7540    7541    7542    7543    7541    7542    7543    7542    7543    7544
    7545    7546    7543    7544    7545    7546    7544    7545    7546    7547
    7548    7549    7550    7551    7552    7545    7546    7547    7548    7549
    7550    7551    7552    7546    7547    7548    7549    7547    7548    7549
    7548    7549    7550    7551    7552    7549    7550    7551    7552    7550
    7551    7552    7551    7552    7552       0    7554    7555    7556    7557
    7558    7559    7560    7561    7562    7563    7564    7565    7555    7556
    7557    7558    7559    7560    7561    7562    7565    7566    7567    7568
    7556    7557    7558    7559    7562    7563    7564    7565    7569    7570
    7571    7557    7559    7560    7561    7562    7566    7567    7568    7572
    7573    7574    7558    7559    7560    7561    7562    7565    7568    7569
    7571    7559    7563    7564    7565    7569    7570    7575    7576    7577
    7561    7562    7563    7564    7565    7569    7571    7575    7561    7562
    7566    7567    7568    7572    7573    7578    7562    7566    7567    7568
    7572    7574    7578    7565    7568    7572    7574    7564    7565    7569
    7570    7571    7575    7576    7577    7579    7580    7581    7582    7569
    7570    7569    7570    7571    7575    7567    7568    7572    7573    7574
    7578    7583    7584    7585    7572    7573    7572    7573    7574    7578
    7583    7584    7585    7570    7571    7575    7576    7577    7575    7576
    7577    7579    7580    7581    7582    7586    7587    7588    7575    7573
    7574    7578    7583    7584    7585    7589    7590    7591    7578    7578
       0    7577    7579    7580    7581    7582    7586    7587    7592    7579
    7580    7581    7582    7586    7588    7592    7583    7584    7585    7589
    7590    7591    7593    7594    7595    7580    7581    7586    7587    7588
    7592    7586    7587    7582    7586    7587    7588    7592    7586    7588
    7584    7585    7589    7590    7591    7593    7594    7595    7596    7597
    7598    7585    7589    7590    7591    7589    7590    7591    7587    7588
    7592    7592    7592    7590    7591    7593    7594    7595    7596    7597
    7598    7599    7600    7601    7591    7593    7594    7595    7593    7594
    7595       0    7594    7595    7596    7597    7598    7599    7600    7601
    7602    7603    7604    7595    7596    7597    7598    7596    7597    7598
    7597    7598    7599    7600    7601    7602    7603    7604    7605    7606
    7607    7598    7599    7600    7601    7599    7600    7601    7600    7601
    7602    7603    7604    7605    7606    7607    7608    7609    7610    7601
    7602    7603    7604    7602    7603    7604    7603    7604    7605    7606
    7607    7608    7609    7610    7611    7612    7613    7604    7605    7606
    7607    7605    7606    7607    7606    7607    7608    7609    7610    7607
    7608    7609    7610    7608    7609    7610    7611    7612    7613    7614
    7615    7616    7609    7610    7611    7612    7613    7614    7615    7616
    7610    7611    7612    7613    7611    7612    7613    7612    7613    7614
    7615    7616    7613    7614    7615    7616    7614    7615    7616    7615
    7616    7616       0    7618    7619    7620    7621    7622    7623    7624
    7625    7626    7627    7628    7629    7619    7620    7621    7622    7623
    7624    7625    7626    7629    7630    7631    7632    7620    7621    7622
    7623    7626    7627    7628    7629    7633    7634    7635    7621    7623
    7624    7625    7626    7630    7631    7632    7636    7637    7638    7622
    7623    7624    7625    7626    7629    7632    7633    7635    7623    7627
    7628    7629    7633    7634    7639    7640    7641    7625    7626    7627
    7628    7629    7633    7635    7639    7625    7626    7630    7631    7632
    7636    7637    7642    7626    7630    7631    7632    7636    7638    7642
    7629    7632    7636    7638    7628    7629    7633    7634    7635    7639
    7640    7641    7643    7644    7645    7646    7633    7634    7633    7634
    7635    7639    7631    7632    7636    7637    7638    7642    7647    7648
    7649    7636    7637    7636    7637    7638    7642    7647    7648    7649
    7634    7635    7639    7640    7641    7639    7640    7641    7643    7644
    7645    7646    7650    7651    7652    7639    7637    7638    7642    7647
    7648    7649    7653    7654    7655    7642    7642       0    7641    7643
    7644    7645    7646    7650    7651    7656    7643    7644    7645    7646
    7650    7652    7656    7647    7648    7649    7653    7654    7655    7657
    7658    7659    7644    7645    7650    7651    7652    7656    7650    7651
    7646    7650    7651    7652    7656    7650    7652    7648    7649    7653
    7654    7655    7657    7658    7659    7660    7661    7662    7649    7653
    7654    7655    7653    7654    7655    7651    7652    7656    7656    7656
    7654    7655    7657    7658    7659    7660    7661    7662    7663    7664
    7665    7655    7657    7658    7659    7657    7658    7659       0    7658
    7659    7660    7661    7662    7663    7664    7665    7666    7667    7668
    7659    7660    7661    7662    7660    7661    7662    7661    7662    7663
    7664    7665    7666    7667    7668    7669    7670    7671    7662    7663
    7664    7665    7663    7664    7665    7664    7665    7666    7667    7668
    7669    7670    7671    7672    7673    7674    7665    7666    7667    7668
    7666    7667    7668    7667    7668    7669    7670    7671    7672    7673
    7674    7675    7676    7677    7668    7669    7670    7671    7669    7670
    7671    7670    7671    7672    7673    7674    7671    7672    7673    7674
    7672    7673    7674    7675    7676    7677    7678    7679    7680    7673
    7674    7675    7676    7677    7678    7679    7680    7674    7675    7676
    7677    7675    7676    7677    7676    7677    7678    7679    7680    7677
    7678    7679    7680    7678    7679    7680    7679    7680    7680       0
    7682    7683    7684    7685    7686    7687    7688    7689    7690    7691
    7692    7693    7683    7684    7685    7686    7687    7688    7689    7690
    7693    7694    7695    7696    7684    7685    7686    7687    7690    7691
    7692    7693    7697    7698    7699    7685    7687    7688    7689    7690
    7694    7695    7696    7700    7701    7702    7686    7687    7688    7689
    7690    7693    7696    7697    7699    7687    7691    7692    7693    7697
    7698    7703    7704    7705    7689    7690    7691    7692    7693    7697
    7699    7703    7689    7690    7694    7695    7696    7700    7701    7706
    7690    7694    7695    7696    7700    7702    7706    7693    7696    7700
    7702    7692    7693    7697    7698    7699    7703    7704    7705    7707
    7708    7709    7710    7697    7698    7697    7698    7699    7703    7695
    7696    7700    7701    7702    7706    7711    7712    7713    7700    7701
    7700    7701    7702    7706    7711    7712    7713    7698    7699    7703
    7704    7705    7703    7704    7705    7707    7708    7709    7710    7714
    7715    7716    7703    7701    7702    7706    7711    7712    7713    7717
    7718    7719    7706    7706       0    7705    7707    7708    7709    7710
    7714    7715    7720    7707    7708    7709    7710    7714    7716    7720
    7711    7712    7713    7717    7718    7719    7721    7722    7723    7708
    7709    7714    7715    7716    7720    7714    7715    7710    7714    7715
    7716    7720    7714    7716    7712    7713    7717    7718    7719    7721
    7722    7723    7724    7725    7726    7713    7717    7718    7719    7717
    7718    7719    7715    7716    7720    7720    7720    7718    7719    7721
    7722    7723    7724    7725    7726    7727    7728    7729    7719    7721
    7722    7723    7721    7722    7723       0    7722    7723    7724    7725
    7726    7727    7728    7729    7730    7731    7732    7723    7724    7725
    7726    7724    7725    7726    7725    7726    7727    7728    7729    7730
    7731    7732    7733    7734    7735    7726    7727    7728    7729    7727
    7728    7729    7728    7729    7730    7731    7732    7733    7734    7735
    7736    7737    7738    7729    7730    7731    7732    7730    7731    7732
    7731    7732    7733    7734    7735    7736    7737    7738    7739    7740
    7741    7732    7733    7734    7735    7733    7734    7735    7734    7735
    7736    7737    7738    7735    7736    7737    7738    7736    7737    7738
    7739    7740    7741    7742    7743    7744    7737    7738    7739    7740
    7741    7742    7743    7744    7738    7739    7740    7741    7739    7740
    7741    7740    7741    7742    7743    7744    7741    7742    7743    7744
    7742    7743    7744    7743    7744    7744       0    7746    7747    7748
    7749    7750    7751    7752    7753    7754    7755    7756    7757    7747
    7748    7749    7750    7751    7752    7753    7754    7757    7758    7759
    7760    7748    7749    7750    7751    7754    7755    7756    7757    7761
    7762    7763    7749    7751    7752    7753    7754    7758    7759    7760
    7764    7765    7766    7750    7751    7752    7753    7754    7757    7760
    7761    7763    7751    7755    7756    7757    7761    7762    7767    7768
    7769    7753    7754    7755    7756    7757    7761    7763    7767    7753
    7754    7758    7759    7760    7764    7765    7770    7754    7758    7759
    7760    7764    7766    7770    7757    7760    7764    7766    7756    7757
    7761    7762    7763    7767    7768    7769    7771    7772    7773    7774
    7761    7762    7761    7762    7763    7767    7759    7760    7764    7765
    7766    7770    7775    7776    7777    7764    7765    7764    7765    7766
    7770    7775    7776    7777    7762    7763    7767    7768    7769    7767
    7768    7769    7771    7772    7773    7774    7778    7779    7780    7767
    7765    7766    7770    7775    7776    7777    7781    7782    7783    7770
    7770       0    7769    7771    7772    7773    7774    7778    7779    7784
    7771    7772    7773    7774    7778    7780    7784    7775    7776    7777
    7781    7782    7783    7785    7786    7787    7772    7773    7778    7779
    7780    7784    7778    7779    7774    7778    7779    7780    7784    7778
    7780    7776    7777    7781    7782    7783    7785    7786    7787    7788
    7789    7790    7777    7781    7782    7783    7781    7782    7783    7779
    7780    7784    7784    7784    7782    7783    7785    7786    7787    7788
    7789    7790    7791    7792    7793    7783    7785    7786    7787    7785
    7786    7787       0    7786    7787    7788    7789    7790    7791    7792
    7793    7794    7795    7796    7787    7788    7789    7790    7788    7789
    7790    7789    7790    7791    7792    7793    7794    7795    7796    7797
    7798    7799    7790    7791    7792    7793    7791    7792    7793    7792
    7793    7794    7795    7796    7797    7798    7799    7800    7801    7802
    7793    7794    7795    7796    7794    7795    7796    7795    7796    7797
    7798    7799    7800    7801    7802    7803    7804    7805    7796    7797
    7798    7799    7797    7798    7799    7798    7799    7800    7801    7802
    7799    7800    7801    7802    7800    7801    7802    7803    7804    7805
    7806    7807    7808    7801    7802    7803    7804    7805    7806    7807
    7808    7802    7803    7804    7805    7803    7804    7805    7804    7805
    7806    7807    7808    7805    7806    7807    7808    7806    7807    7808
    7807    7808    7808       0    7810    7811    7812    7813    7814    7815
    7816    7817    7818    7819    7820    7821    7811    7812    7813    7814
    7815    7816    7817    7818    7821    7822    7823    7824    7812    7813
    7814    7815    7818    7819    7820    7821    7825    7826    7827    7813
    7815    7816    7817    7818    7822    7823    7824    7828    7829    7830
    7814    7815    7816    7817    7818    7821    7824    7825    7827    7815
    7819    7820    7821    7825    7826    7831    7832    7833    7817    7818
    7819    7820    7821    7825    7827    7831    7817    7818    7822    7823
    7824    7828    7829    7834    7818    7822    7823    7824    7828    7830
    7834    7821    7824    7828    7830    7820    7821    7825    7826    7827
    7831    7832    7833    7835    7836    7837    7838    7825    7826    7825
    7826    7827    7831    7823    7824    7828    7829    7830    7834    7839
    7840    7841    7828    7829    7828    7829    7830    7834    7839    7840
    7841    7826    7827    7831    7832    7833    7831    7832    7833    7835
    7836    7837    7838    7842    7843    7844    7831    7829    7830    7834
    7839    7840    7841    7845    7846    7847    7834    7834       0    7833
    7835    7836    7837    7838    7842    7843    7848    7835    7836    7837
    7838    7842    7844    7848    7839    7840    7841    7845    7846    7847
    7849    7850    7851    7836    7837    7842    7843    7844    7848    7842
    7843    7838    7842    7843    7844    7848    7842    7844    7840    7841
    7845    7846    7847    7849    7850    7851    7852    7853    7854    7841
    7845    7846    7847    7845    7846    7847    7843    7844    7848    7848
    7848    7846    7847    7849    7850    7851    7852    7853    7854    7855
    7856    7857    7847    7849    7850    7851    7849    7850    7851       0
    7850    7851    7852    7853    7854    7855    7856    7857    7858    7859
    7860    7851    7852    7853    7854    7852    7853    7854    7853    7854
    7855    7856    7857    7858    7859    7860    7861    7862    7863    7854
    7855    7856    7857    7855    7856    7857    7856    7857    7858    7859
    7860    7861    7862    7863    7864    7865    7866    7857    7858    7859
    7860    7858    7859    7860    7859    7860    7861    7862    7863    7864
    7865    7866    7867    7868    7869    7860    7861    7862    7863    7861
    7862    7863    7862    7863    7864    7865    7866    7863    7864    7865
    7866    7864    7865    7866    7867    7868    7869    7870    7871    7872
    7865    7866    7867    7868    7869    7870    7871    7872    7866    7867
    7868    7869    7867    7868    7869    7868    7869    7870    7871    7872
    7869    7870    7871    7872    7870    7871    7872    7871    7872    7872
       0    7874    7875    7876    7877    7878    7879    7880    7881    7882
    7883    7884    7885    7875    7876    7877    7878    7879    7880    7881
    7882    7885    7886    7887    7888    7876    7877    7878    7879    7882
    7883    7884    7885    7889    7890    7891    7877    7879    7880    7881
    7882    7886    7887    7888    7892    7893    7894    7878    7879    7880
    7881    7882    7885    7888    7889    7891    7879    7883    7884    7885
    7889    7890    7895    7896    7897    7881    7882    7883    7884    7885
    7889    7891    7895    7881    7882    7886    7887    7888    7892    7893
    7898    7882    7886    7887    7888    7892    7894    7898    7885    7888
    7892    7894    7884    7885    7889    7890    7891    7895    7896    7897
    7899    7900    7901    7902    7889    7890    7889    7890    7891    7895
    7887    7888    7892    7893    7894    7898    7903    7904    7905    7892
    7893    7892    7893    7894    7898    7903    7904    7905    7890    7891
    7895    7896    7897    7895    7896    7897    7899    7900    7901    7902
    7906    7907    7908    7895    7893    7894    7898    7903    7904    7905
    7909    7910    7911    7898    7898       0    7897    7899    7900    7901
    7902    7906    7907    7912    7899    7900    7901    7902    7906    7908
    7912    7903    7904    7905    7909    7910    7911    7913    7914    7915
    7900    7901    7906    7907    7908    7912    7906    7907    7902    7906
    7907    7908    7912    7906    7908    7904    7905    7909    7910    7911
    7913    7914    7915    7916    7917    7918    7905    7909    7910    7911
    7909    7910    7911    7907    7908    7912    7912    7912    7910    7911
    7913    7914    7915    7916    7917    7918    7919    7920    7921    7911
    7913    7914    7915    7913    7914    7915       0    7914    7915    7916
    7917    7918    7919    7920    7921    7922    7923    7924    7915    7916
    7917    7918    7916    7917    7918    7917    7918    7919    7920    7921
    7922    7923    7924    7925    7926    7927    7918    7919    7920    7921
    7919    7920    7921    7920    7921    7922    7923    7924    7925    7926
    7927    7928    7929    7930    7921    7922    7923    7924    7922    7923
    7924    7923    7924    7925    7926    7927    7928    7929    7930    7931
    7932    7933    7924    7925    7926    7927    7925    7926    7927    7926
    7927    7928    7929    7930    7927    7928    7929    7930    7928    7929
    7930    7931    7932    7933    7934    7935    7936    7929    7930    7931
    7932    7933    7934    7935    7936    7930    7931    7932    7933    7931
    7932    7933    7932    7933    7934    7935    7936    7933    7934    7935
    7936    7934    7935    7936    7935    7936    7936       0    7938    7939
    7940    7941    7942    7943    7944    7945    7946    7947    7948    7949
    7939    7940    7941    7942    7943    7944    7945    7946    7949    7950
    7951    7952    7940    7941    7942    7943    7946    7947    7948    7949
    7953    7954    7955    7941    7943    7944    7945    7946    7950    7951
    7952    7956    7957    7958    7942    7943    7944    7945    7946    7949
    7952    7953    7955    7943    7947    7948    7949    7953    7954    7959
    7960    7961    7945    7946    7947    7948    7949    7953    7955    7959
    7945    7946    7950    7951    7952    7956    7957    7962    7946    7950
    7951    7952    7956    7958    7962    7949    7952    7956    7958    7948
    7949    7953    7954    7955    7959    7960    7961    7963    7964    7965
    7966    7953    7954    7953    7954    7955    7959    7951    7952    7956
    7957    7958    7962    7967    7968    7969    7956    7957    7956    7957
    7958    7962    7967    7968    7969    7954    7955    7959    7960    7961
    7959    7960    7961    7963    7964    7965    7966    7970    7971    7972
    7959    7957    7958    7962    7967    7968    7969    7973    7974    7975
    7962    7962       0    7961    7963    7964    7965    7966    7970    7971
    7976    7963    7964    7965    7966    7970    7972    7976    7967    7968
    7969    7973    7974    7975    7977    7978    7979    7964    7965    7970
    7971    7972    7976    7970    7971    7966    7970    7971    7972    7976
    7970    7972    7968    7969    7973    7974    7975    7977    7978    7979
    7980    7981    7982    7969    7973    7974    7975    7973    7974    7975
    7971    7972    7976    7976    7976    7974    7975    7977    7978    7979
    7980    7981    7982    7983    7984    7985    7975    7977    7978    7979
    7977    7978    7979       0    7978    7979    7980    7981    7982    7983
    7984    7985    7986    7987    7988    7979    7980    7981    7982    7980
    7981    7982    7981    7982    7983    7984    7985    7986    7987    7988
    7989    7990    7991    7982    7983    7984    7985    7983    7984    7985
    7984    7985    7986    7987    7988    7989    7990    7991    7992    7993
    7994    7985    7986    7987    7988    7986    7987    7988    7987    7988
    7989    7990    7991    7992    7993    7994    7995    7996    7997    7988
    7989    7990    7991    7989    7990    7991    7990    7991    7992    7993
    7994    7991    7992    7993    7994    7992    7993    7994    7995    7996
    7997    7998    7999    8000    7993    7994    7995    7996    7997    7998
    7999    8000    7994    7995    7996    7997    7995    7996    7997    7996
    7997    7998    7999    8000    7997    7998    7999    8000    7998    7999
    8000    7999    8000    8000       0    8002    8003    8004    8005    8006
    8007    8008    8009    8010    8011    8012    8013    8003    8004    8005
    8006    8007    8008    8009    8010    8013    8014    8015    8016    8004
    8005    8006    8007    8010    8011    8012    8013    8017    8018    8019
    8005    8007    8008    8009    8010    8014    8015    8016    8020    8021
    8022    8006    8007    8008    8009    8010    8013    8016    8017    8019
    8007    8011    8012    8013    8017    8018    8023    8024    8025    8009
    8010    8011    8012    8013    8017    8019    8023    8009    8010    8014
    8015    8016    8020    8021    8026    8010    8014    8015    8016    8020
    8022    8026    8013    8016    8020    8022    8012    8013    8017    8018
    8019    8023    8024    8025    8027    8028    8029    8030    8017    8018
    8017    8018    8019    8023    8015    8016    8020    8021    8022    8026
    8031    8032    8033    8020    8021    8020    8021    8022    8026    8031
    8032    8033    8018    8019    8023    8024    8025    8023    8024    8025
    8027    8028    8029    8030    8034    8035    8036    8023    8021    8022
    8026    8031    8032    8033    8037    8038    8039    8026    8026       0
    8025    8027    8028    8029    8030    8034    8035    8040    8027    8028
    8029    8030    8034    8036    8040    8031    8032    8033    8037    8038
    8039    8041    8042    8043    8028    8029    8034    8035    8036    8040
    8034    8035    8030    8034    8035    8036    8040    8034    8036    8032
    8033    8037    8038    8039    8041    8042    8043    8044    8045    8046
    8033    8037    8038    8039    8037    8038    8039    8035    8036    8040
    8040    8040    8038    8039    8041    8042    8043    8044    8045    8046
    8047    8048    8049    8039    8041    8042    8043    8041    8042    8043
       0    8042    8043    8044    8045    8046    8047    8048    8049    8050
    8051    8052    8043    8044    8045    8046    8044    8045    8046    8045
    8046    8047    8048    8049    8050    8051    8052    8053    8054    8055
    8046    8047    8048    8049    8047    8048    8049    8048    8049    8050
    8051    8052    8053    8054    8055    8056    8057    8058    8049    8050
    8051    8052    8050    8051    8052    8051    8052    8053    8054    8055
    8056    8057    8058    8059    8060    8061    8052    8053    8054    8055
    8053    8054    8055    8054    8055    8056    8057    8058    8055    8056
    8057    8058    8056    8057    8058    8059    8060    8061    8062    8063
    8064    8057    8058    8059    8060    8061    8062    8063    8064    8058
    8059    8060    8061    8059    8060    8061    8060    8061    8062    8063
    8064    8061    8062    8063    8064    8062    8063    8064    8063    8064
    8064       0    8066    8067    8068    8069    8070    8071    8072    8073
    8074    8075    8076    8077    8067    8068    8069    8070    8071    8072
    8073    8074    8077    8078    8079    8080    8068    8069    8070    8071
    8074    8075    8076    8077    8081    8082    8083    8069    8071    8072
    8073    8074    8078    8079    8080    8084    8085    8086    8070    8071
    8072    8073    8074    8077    8080    8081    8083    8071    8075    8076
    8077    8081    8082    8087    8088    8089    8073    8074    8075    8076
    8077    8081    8083    8087    8073    8074    8078    8079    8080    8084
    8085    8090    8074    8078    8079    8080    8084    8086    8090    8077
    8080    8084    8086    8076    8077    8081    8082    8083    8087    8088
    8089    8091    8092    8093    8094    8081    8082    8081    8082    8083
    8087    8079    8080    8084    8085    8086    8090    8095    8096    8097
    8084    8085    8084    8085    8086    8090    8095    8096    8097    8082
    8083    8087    8088    8089    8087    8088    8089    8091    8092    8093
    8094    8098    8099    8100    8087    8085    8086    8090    8095    8096
    8097    8101    8102    8103    8090    8090       0    8089    8091    8092
    8093    8094    8098    8099    8104    8091    8092    8093    8094    8098
    8100    8104    8095    8096    8097    8101    8102    8103    8105    8106
    8107    8092    8093    8098    8099    8100    8104    8098    8099    8094
    8098    8099    8100    8104    8098    8100    8096    8097    8101    8102
    8103    8105    8106    8107    8108    8109    8110    8097    8101    8102
    8103    8101    8102    8103    8099    8100    8104    8104    8104    8102
    8103    8105    8106    8107    8108    8109    8110    8111    8112    8113
    8103    8105    8106    8107    8105    8106    8107       0    8106    8107
    8108    8109    8110    8111    8112    8113    8114    8115    8116    8107
    8108    8109    8110    8108    8109    8110    8109    8110    8111    8112
    8113    8114    8115    8116    8117    8118    8119    8110    8111    8112
    8113    8111    8112    8113    8112    8113    8114    8115    8116    8117
    8118    8119    8120    8121    8122    8113    8114    8115    8116    8114
    8115    8116    8115    8116    8117    8118    8119    8120    8121    8122
    8123    8124    8125    8116    8117    8118    8119    8117    8118    8119
    8118    8119    8120    8121    8122    8119    8120    8121    8122    8120
    8121    8122    8123    8124    8125    8126    8127    8128    8121    8122
    8123    8124    8125    8126    8127    8128    8122    8123    8124    8125
    8123    8124    8125    8124    8125    8126    8127    8128    8125    8126
    8127    8128    8126    8127    8128    8127    8128    8128       0    8130
    8131    8132    8133    8134    8135    8136    8137    8138    8139    8140
    8141    8131    8132    8133    8134    8135    8136    8137    8138    8141
    8142    8143    8144    8132    8133    8134    8135    8138    8139    8140
    8141    8145    8146    8147    8133    8135    8136    8137    8138    8142
    8143    8144    8148    8149    8150    8134    8135    8136    8137    8138
    8141    8144    8145    8147    8135    8139    8140    8141    8145    8146
    8151    8152    8153    8137    8138    8139    8140    8141    8145    8147
    8151    8137    8138    8142    8143    8144    8148    8149    8154    8138
    8142    8143    8144    8148    8150    8154    8141    8144    8148    8150
    8140    8141    8145    8146    8147    8151    8152    8153    8155    8156
    8157    8158    8145    8146    8145    8146    8147    8151    8143    8144
    8148    8149    8150    8154    8159    8160    8161    8148    8149    8148
    8149    8150    8154    8159    8160    8161    8146    8147    8151    8152
    8153    8151    8152    8153    8155    8156    8157    8158    8162    8163
    8164    8151    8149    8150    8154    8159    8160    8161    8165    8166
    8167    8154    8154       0    8153    8155    8156    8157    8158    8162
    8163    8168    8155    8156    8157    8158    8162    8164    8168    8159
    8160    8161    8165    8166    8167    8169    8170    8171    8156    8157
    8162    8163    8164    8168    8162    8163    8158    8162    8163    8164
    8168    8162    8164    8160    8161    8165    8166    8167    8169    8170
    8171    8172    8173    8174    8161    8165    8166    8167    8165    8166
    8167    8163    8164    8168    8168    8168    8166    8167    8169    8170
    8171    8172    8173    8174    8175    8176    8177    8167    8169    8170
    8171    8169    8170    8171       0    8170    8171    8172    8173    8174
    8175    8176    8177    8178    8179    8180    8171    8172    8173    8174
    8172    8173    8174    8173    8174    8175    8176    8177    8178    8179
    8180    8181    8182    8183    8174    8175    8176    8177    8175    8176
    8177    8176    8177    8178    8179    8180    8181    8182    8183    8184
    8185    8186    8177    8178    8179    8180    8178    8179    8180    8179
    8180    8181    8182    8183    8184    8185    8186    8187    8188    8189
    8180    8181    8182    8183    8181    8182    8183    8182    8183    8184
    8185    8186    8183    8184    8185    8186    8184    8185    8186    8187
    8188    8189    8190    8191    8192    8185    8186    8187    8188    8189
    8190    8191    8192    8186    8187    8188    8189    8187    8188    8189
    8188    8189    8190    8191    8192    8189    8190    8191    8192    8190
    8191    8192    8191    8192    8192       0    8194    8195    8196    8197
    8198    8199    8200    8201    8202    8203    8204    8205    8195    8196
    8197    8198    8199    8200    8201    8202    8205    8206    8207    8208
    8196    8197    8198    8199    8202    8203    8204    8205    8209    8210
    8211    8197    8199    8200    8201    8202    8206    8207    8208    8212
    8213    8214    8198    8199    8200    8201    8202    8205    8208    8209
    8211    8199    8203    8204    8205    8209    8210    8215    8216    8217
    8201    8202    8203    8204    8205    8209    8211    8215    8201    8202
    8206    8207    8208    8212    8213    8218    8202    8206    8207    8208
    8212    8214    8218    8205    8208    8212    8214    8204    8205    8209
    8210    8211    8215    8216    8217    8219    8220    8221    8222    8209
    8210    8209    8210    8211    8215    8207    8208    8212    8213    8214
    8218    8223    8224    8225    8212    8213    8212    8213    8214    8218
    8223    8224    8225    8210    8211    8215    8216    8217    8215    8216
    8217    8219    8220    8221    8222    8226    8227    8228    8215    8213
    8214    8218    8223    8224    8225    8229    8230    8231    8218    8218
       0    8217    8219    8220    8221    8222    8226    8227    8232    8219
    8220    8221    8222    8226    8228    8232    8223    8224    8225    8229
    8230    8231    8233    8234    8235    8220    8221    8226    8227    8228
    8232    8226    8227    8222    8226    8227    8228    8232    8226    8228
    8224    8225    8229    8230    8231    8233    8234    8235    8236    8237
    8238    8225    8229    8230    8231    8229    8230    8231    8227    8228
    8232    8232    8232    8230    8231    8233    8234    8235    8236    8237
    8238    8239    8240    8241    8231    8233    8234    8235    8233    8234
    8235       0    8234    8235    8236    8237    8238    8239    8240    8241
    8242    8243    8244    8235    8236    8237    8238    8236    8237    8238
    8237    8238    8239    8240    8241    8242    8243    8244    8245    8246
    8247    8238    8239    8240    8241    8239    8240    8241    8240    8241
    8242    8243    8244    8245    8246    8247    8248    8249    8250    8241
    8242    8243    8244    8242    8243    8244    8243    8244    8245    8246
    8247    8248    8249    8250    8251    8252    8253    8244    8245    8246
    8247    8245    8246    8247    8246    8247    8248    8249    8250    8247
    8248    8249    8250    8248    8249    8250    8251    8252    8253    8254
    8255    8256    8249    8250    8251    8252    8253    8254    8255    8256
    8250    8251    8252    8253    8251    8252    8253    8252    8253    8254
    8255    8256    8253    8254    8255    8256    8254    8255    8256    8255
    8256    8256       0    8258    8259    8260    8261    8262    8263    8264
    8265    8266    8267    8268    8269    8259    8260    8261    8262    8263
    8264    8265    8266    8269    8270    8271    8272    8260    8261    8262
    8263    8266    8267    8268    8269    8273    8274    8275    8261    8263
    8264    8265    8266    8270    8271    8272    8276    8277    8278    8262
    8263    8264    8265    8266    8269    8272    8273    8275    8263    8267
    8268    8269    8273    8274    8279    8280    8281    8265    8266    8267
    8268    8269    8273    8275    8279    8265    8266    8270    8271    8272
    8276    8277    8282    8266    8270    8271    8272    8276    8278    8282
    8269    8272    8276    8278    8268    8269    8273    8274    8275    8279
    8280    8281    8283    8284    8285    8286    8273    8274    8273    8274
    8275    8279    8271    8272    8276    8277    8278    8282    8287    8288
    8289    8276    8277    8276    8277    8278    8282    8287    8288    8289
    8274    8275    8279    8280    8281    8279    8280    8281    8283    8284
    8285    8286    8290    8291    8292    8279    8277    8278    8282    8287
    8288    8289    8293    8294    8295    8282    8282       0    8281    8283
    8284    8285    8286    8290    8291    8296    8283    8284    8285    8286
    8290    8292    8296    8287    8288    8289    8293    8294    8295    8297
    8298    8299    8284    8285    8290    8291    8292    8296    8290    8291
    8286    8290    8291    8292    8296    8290    8292    8288    8289    8293
    8294    8295    8297    8298    8299    8300    8301    8302    8289    8293
    8294    8295    8293    8294    8295    8291    8292    8296    8296    8296
    8294    8295    8297    8298    8299    8300    8301    8302    8303    8304
    8305    8295    8297    8298    8299    8297    8298    8299       0    8298
    8299    8300    8301    8302    8303    8304    8305    8306    8307    8308
    8299    8300    8301    8302    8300    8301    8302    8301    8302    8303
    8304    8305    8306    8307    8308    8309    8310    8311    8302    8303
    8304    8305    8303    8304    8305    8304    8305    8306    8307    8308
    8309    8310    8311    8312    8313    8314    8305    8306    8307    8308
    8306    8307    8308    8307    8308    8309    8310    8311    8312    8313
    8314    8315    8316    8317    8308    8309    8310    8311    8309    8310
    8311    8310    8311    8312    8313    8314    8311    8312    8313    8314
    8312    8313    8314    8315    8316    8317    8318    8319    8320    8313
    8314    8315    8316    8317    8318    8319    8320    8314    8315    8316
    8317    8315    8316    8317    8316    8317    8318    8319    8320    8317
    8318    8319    8320    8318    8319    8320    8319    8320    8320       0
    8322    8323    8324    8325    8326    8327    8328    8329    8330    8331
    8332    8333    8323    8324    8325    8326    8327    8328    8329    8330
    8333    8334    8335    8336    8324    8325    8326    8327    8330    8331
    8332    8333    8337    8338    8339    8325    8327    8328    8329    8330
    8334    8335    8336    8340    8341    8342    8326    8327    8328    8329
    8330    8333    8336    8337    8339    8327    8331    8332    8333    8337
    8338    8343    8344    8345    8329    8330    8331    8332    8333    8337
    8339    8343    8329    8330    8334    8335    8336    8340    8341    8346
    8330    8334    8335    8336    8340    8342    8346    8333    8336    8340
    8342    8332    8333    8337    8338    8339    8343    8344    8345    8347
    8348    8349    8350    8337    8338    8337    8338    8339    8343    8335
    8336    8340    8341    8342    8346    8351    8352    8353    8340    8341
    8340    8341    8342    8346    8351    8352    8353    8338    8339    8343
    8344    8345    8343    8344    8345    8347    8348    8349    8350    8354
    8355    8356    8343    8341    8342    8346    8351    8352    8353    8357
    8358    8359    8346    8346       0    8345    8347    8348    8349    8350
    8354    8355    8360    8347    8348    8349    8350    8354    8356    8360
    8351    8352    8353    8357    8358    8359    8361    8362    8363    8348
    8349    8354    8355    8356    8360    8354    8355    8350    8354    8355
    8356    8360    8354    8356    8352    8353    8357    8358    8359    8361
    8362    8363    8364    8365    8366    8353    8357    8358    8359    8357
    8358    8359    8355    8356    8360    8360    8360    8358    8359    8361
    8362    8363    8364    8365    8366    8367    8368    8369    8359    8361
    8362    8363    8361    8362    8363       0    8362    8363    8364    8365
    8366    8367    8368    8369    8370    8371    8372    8363    8364    8365
    8366    8364    8365    8366    8365    8366    8367    8368    8369    8370
    8371    8372    8373    8374    8375    8366    8367    8368    8369    8367
    8368    8369    8368    8369    8370    8371    8372    8373    8374    8375
    8376    8377    8378    8369    8370    8371    8372    8370    8371    8372
    8371    8372    8373    8374    8375    8376    8377    8378    8379    8380
    8381    8372    8373    8374    8375    8373    8374    8375    8374    8375
    8376    8377    8378    8375    8376    8377    8378    8376    8377    8378
    8379    8380    8381    8382    8383    8384    8377    8378    8379    8380
    8381    8382    8383    8384    8378    8379    8380    8381    8379    8380
    8381    8380    8381    8382    8383    8384    8381    8382    8383    8384
    8382    8383    8384    8383    8384    8384       0    8386    8387    8388
    8389    8390    8391    8392    8393    8394    8395    8396    8397    8387
    8388    8389    8390    8391    8392    8393    8394    8397    8398    8399
    8400    8388    8389    8390    8391    8394    8395    8396    8397    8401
    8402    8403    8389    8391    8392    8393    8394    8398    8399    8400
    8404    8405    8406    8390    8391    8392    8393    8394    8397    8400
    8401    8403    8391    8395    8396    8397    8401    8402    8407    8408
    8409    8393    8394    8395    8396    8397    8401    8403    8407    8393
    8394    8398    8399    8400    8404    8405    8410    8394    8398    8399
    8400    8404    8406    8410    8397    8400    8404    8406    8396    8397
    8401    8402    8403    8407    8408    8409    8411    8412    8413    8414
    8401    8402    8401    8402    8403    8407    8399    8400    8404    8405
    8406    8410    8415    8416    8417    8404    8405    8404    8405    8406
    8410    8415    8416    8417    8402    8403    8407    8408    8409    8407
    8408    8409    8411    8412    8413    8414    8418    8419    8420    8407
    8405    8406    8410    8415    8416    8417    8421    8422    8423    8410
    8410       0    8409    8411    8412    8413    8414    8418    8419    8424
    8411    8412    8413    8414    8418    8420    8424    8415    8416    8417
    8421    8422    8423    8425    8426    8427    8412    8413    8418    8419
    8420    8424    8418    8419    8414    8418    8419    8420    8424    8418
    8420    8416    8417    8421    8422    8423    8425    8426    8427    8428
    8429    8430    8417    8421    8422    8423    8421    8422    8423    8419
    8420    8424    8424    8424    8422    8423    8425    8426    8427    8428
    8429    8430    8431    8432    8433    8423    8425    8426    8427    8425
    8426    8427       0    8426    8427    8428    8429    8430    8431    8432
    8433    8434    8435    8436    8427    8428    8429    8430    8428    8429
    8430    8429    8430    8431    8432    8433    8434    8435    8436    8437
    8438    8439    8430    8431    8432    8433    8431    8432    8433    8432
    8433    8434    8435    8436    8437    8438    8439    8440    8441    8442
    8433    8434    8435    8436    8434    8435    8436    8435    8436    8437
    8438    8439    8440    8441    8442    8443    8444    8445    8436    8437
    8438    8439    8437    8438    8439    8438    8439    8440    8441    8442
    8439    8440    8441    8442    8440    8441    8442    8443    8444    8445
    8446    8447    8448    8441    8442    8443    8444    8445    8446    8447
    8448    8442    8443    8444    8445    8443    8444    8445    8444    8445
    8446    8447    8448    8445    8446    8447    8448    8446    8447    8448
    8447    8448    8448       0    8450    8451    8452    8453    8454    8455
    8456    8457    8458    8459    8460    8461    8451    8452    8453    8454
    8455    8456    8457    8458    8461    8462    8463    8464    8452    8453
    8454    8455    8458    8459    8460    8461    8465    8466    8467    8453
    8455    8456    8457    8458    8462    8463    8464    8468    8469    8470
    8454    8455    8456    8457    8458    8461    8464    8465    8467    8455
    8459    8460    8461    8465    8466    8471    8472    8473    8457    8458
    8459    8460    8461    8465    8467    8471    8457    8458    8462    8463
    8464    8468    8469    8474    8458    8462    8463    8464    8468    8470
    8474    8461    8464    8468    8470    8460    8461    8465    8466    8467
    8471    8472    8473    8475    8476    8477    8478    8465    8466    8465
    8466    8467    8471    8463    8464    8468    8469    8470    8474    8479
    8480    8481    8468    8469    8468    8469    8470    8474    8479    8480
    8481    8466    8467    8471    8472    8473    8471    8472    8473    8475
    8476    8477    8478    8482    8483    8484    8471    8469    8470    8474
    8479    8480    8481    8485    8486    8487    8474    8474       0    8473
    8475    8476    8477    8478    8482    8483    8488    8475    8476    8477
    8478    8482    8484    8488    8479    8480    8481    8485    8486    8487
    8489    8490    8491    8476    8477    8482    8483    8484    8488    8482
    8483    8478    8482    8483    8484    8488    8482    8484    8480    8481
    8485    8486    8487    8489    8490    8491    8492    8493    8494    8481
    8485    8486    8487    8485    8486    8487    8483    8484    8488    8488
    8488    8486    8487    8489    8490    8491    8492    8493    8494    8495
    8496    8497    8487    8489    8490    8491    8489    8490    8491       0
    8490    8491    8492    8493    8494    8495    8496    8497    8498    8499
    8500    8491    8492    8493    8494    8492    8493    8494    8493    8494
    8495    8496    8497    8498    8499    8500    8501    8502    8503    8494
    8495    8496    8497    8495    8496    8497    8496    8497    8498    8499
    8500    8501    8502    8503    8504    8505    8506    8497    8498    8499
    8500    8498    8499    8500    8499    8500    8501    8502    8503    8504
    8505    8506    8507    8508    8509    8500    8501    8502    8503    8501
    8502    8503    8502    8503    8504    8505    8506    8503    8504    8505
    8506    8504    8505    8506    8507    8508    8509    8510    8511    8512
    8505    8506    8507    8508    8509    8510    8511    8512    8506    8507
    8508    8509    8507    8508    8509    8508    8509    8510    8511    8512
    8509    8510    8511    8512    8510    8511    8512    8511    8512    8512
       0    8514    8515    8516    8517    8518    8519    8520    8521    8522
    8523    8524    8525    8515    8516    8517    8518    8519    8520    8521
    8522    8525    8526    8527    8528    8516    8517    8518    8519    8522
    8523    8524    8525    8529    8530    8531    8517    8519    8520    8521
    8522    8526    8527    8528    8532    8533    8534    8518    8519    8520
    8521    8522    8525    8528    8529    8531    8519    8523    8524    8525
    8529    8530    8535    8536    8537    8521    8522    8523    8524    8525
    8529    8531    8535    8521    8522    8526    8527    8528    8532    8533
    8538    8522    8526    8527    8528    8532    8534    8538    8525    8528
    8532    8534    8524    8525    8529    8530    8531    8535    8536    8537
    8539    8540    8541    8542    8529    8530    8529    8530    8531    8535
    8527    8528    8532    8533    8534    8538    8543    8544    8545    8532
    8533    8532    8533    8534    8538    8543    8544    8545    8530    8531
    8535    8536    8537    8535    8536    8537    8539    8540    8541    8542
    8546    8547    8548    8535    8533    8534    8538    8543    8544    8545
    8549    8550    8551    8538    8538       0    8537    8539    8540    8541
    8542    8546    8547    8552    8539    8540    8541    8542    8546    8548
    8552    8543    8544    8545    8549    8550    8551    8553    8554    8555
    8540    8541    8546    8547    8548    8552    8546    8547    8542    8546
    8547    8548    8552    8546    8548    8544    8545    8549    8550    8551
    8553    8554    8555    8556    8557    8558    8545    8549    8550    8551
    8549    8550    8551    8547    8548    8552    8552    8552    8550    8551
    8553    8554    8555    8556    8557    8558    8559    8560    8561    8551
    8553    8554    8555    8553    8554    8555       0    8554    8555    8556
    8557    8558    8559    8560    8561    8562    8563    8564    8555    8556
    8557    8558    8556    8557    8558    8557    8558    8559    8560    8561
    8562    8563    8564    8565    8566    8567    8558    8559    8560    8561
    8559    8560    8561    8560    8561    8562    8563    8564    8565    8566
    8567    8568    8569    8570    8561    8562    8563    8564    8562    8563
    8564    8563    8564    8565    8566    8567    8568    8569    8570    8571
    8572    8573    8564    8565    8566    8567    8565    8566    8567    8566
    8567    8568    8569    8570    8567    8568    8569    8570    8568    8569
    8570    8571    8572    8573    8574    8575    8576    8569    8570    8571
    8572    8573    8574    8575    8576    8570    8571    8572    8573    8571
    8572    8573    8572    8573    8574    8575    8576    8573    8574    8575
    8576    8574    8575    8576    8575    8576    8576       0    8578    8579
    8580    8581    8582    8583    8584    8585    8586    8587    8588    8589
    8579    8580    8581    8582    8583    8584    8585    8586    8589    8590
    8591    8592    8580    8581    8582    8583    8586    8587    8588    8589
    8593    8594    8595    8581    8583    8584    8585    8586    8590    8591
    8592    8596    8597    8598    8582    8583    8584    8585    8586    8589
    8592    8593    8595    8583    8587    8588    8589    8593    8594    8599
    8600    8601    8585    8586    8587    8588    8589    8593    8595    8599
    8585    8586    8590    8591    8592    8596    8597    8602    8586    8590
    8591    8592    8596    8598    8602    8589    8592    8596    8598    8588
    8589    8593    8594    8595    8599    8600    8601    8603    8604    8605
    8606    8593    8594    8593    8594    8595    8599    8591    8592    8596
    8597    8598    8602    8607    8608    8609    8596    8597    8596    8597
    8598    8602    8607    8608    8609    8594    8595    8599    8600    8601
    8599    8600    8601    8603    8604    8605    8606    8610    8611    8612
    8599    8597    8598    8602    8607    8608    8609    8613    8614    8615
    8602    8602       0    8601    8603    8604    8605    8606    8610    8611
    8616    8603    8604    8605    8606    8610    8612    8616    8607    8608
    8609    8613    8614    8615    8617    8618    8619    8604    8605    8610
    8611    8612    8616    8610    8611    8606    8610    8611    8612    8616
    8610    8612    8608    8609    8613    8614    8615    8617    8618    8619
    8620    8621    8622    8609    8613    8614    8615    8613    8614    8615
    8611    8612    8616    8616    8616    8614    8615    8617    8618    8619
    8620    8621    8622    8623    8624    8625    8615    8617    8618    8619
    8617    8618    8619       0    8618    8619    8620    8621    8622    8623
    8624    8625    8626    8627    8628    8619    8620    8621    8622    8620
    8621    8622    8621    8622    8623    8624    8625    8626    8627    8628
    8629    8630    8631    8622    8623    8624    8625    8623    8624    8625
    8624    8625    8626    8627    8628    8629    8630    8631    8632    8633
    8634    8625    8626    8627    8628    8626    8627    8628    8627    8628
    8629    8630    8631    8632    8633    8634    8635    8636    8637    8628
    8629    8630    8631    8629    8630    8631    8630    8631    8632    8633
    8634    8631    8632    8633    8634    8632    8633    8634    8635    8636
    8637    8638    8639    8640    8633    8634    8635    8636    8637    8638
    8639    8640    8634    8635    8636    8637    8635    8636    8637    8636
    8637    8638    8639    8640    8637    8638    8639    8640    8638    8639
    8640    8639    8640    8640       0    8642    8643    8644    8645    8646
    8647    8648    8649    8650    8651    8652    8653    8643    8644    8645
    8646    8647    8648    8649    8650    8653    8654    8655    8656    8644
    8645    8646    8647    8650    8651    8652    8653    8657    8658    8659
    8645    8647    8648    8649    8650    8654    8655    8656    8660    8661
    8662    8646    8647    8648    8649    8650    8653    8656    8657    8659
    8647    8651    8652    8653    8657    8658    8663    8664    8665    8649
    8650    8651    8652    8653    8657    8659    8663    8649    8650    8654
    8655    8656    8660    8661    8666    8650    8654    8655    8656    8660
    8662    8666    8653    8656    8660    8662    8652    8653    8657    8658
    8659    8663    8664    8665    8667    8668    8669    8670    8657    8658
    8657    8658    8659    8663    8655    8656    8660    8661    8662    8666
    8671    8672    8673    8660    8661    8660    8661    8662    8666    8671
    8672    8673    8658    8659    8663    8664    8665    8663    8664    8665
    8667    8668    8669    8670    8674    8675    8676    8663    8661    8662
    8666    8671    8672    8673    8677    8678    8679    8666    8666       0
    8665    8667    8668    8669    8670    8674    8675    8680    8667    8668
    8669    8670    8674    8676    8680    8671    8672    8673    8677    8678
    8679    8681    8682    8683    8668    8669    8674    8675    8676    8680
    8674    8675    8670    8674    8675    8676    8680    8674    8676    8672
    8673    8677    8678    8679    8681    8682    8683    8684    8685    8686
    8673    8677    8678    8679    8677    8678    8679    8675    8676    8680
    8680    8680    8678    8679    8681    8682    8683    8684    8685    8686
    8687    8688    8689    8679    8681    8682    8683    8681    8682    8683
       0    8682    8683    8684    8685    8686    8687    8688    8689    8690
    8691    8692    8683    8684    8685    8686    8684    8685    8686    8685
    8686    8687    8688    8689    8690    8691    8692    8693    8694    8695
    8686    8687    8688    8689    8687    8688    8689    8688    8689    8690
    8691    8692    8693    8694    8695    8696    8697    8698    8689    8690
    8691    8692    8690    8691    8692    8691    8692    8693    8694    8695
    8696    8697    8698    8699    8700    8701    8692    8693    8694    8695
    8693    8694    8695    8694    8695    8696    8697    8698    8695    8696
    8697    8698    8696    8697    8698    8699    8700    8701    8702    8703
    8704    8697    8698    8699    8700    8701    8702    8703    8704    8698
    8699    8700    8701    8699    8700    8701    8700    8701    8702    8703
    8704    8701    8702    8703    8704    8702    8703    8704    8703    8704
    8704       0    8706    8707    8708    8709    8710    8711    8712    8713
    8714    8715    8716    8717    8707    8708    8709    8710    8711    8712
    8713    8714    8717    8718    8719    8720    8708    8709    8710    8711
    8714    8715    8716    8717    8721    8722    8723    8709    8711    8712
    8713    8714    8718    8719    8720    8724    8725    8726    8710    8711
    8712    8713    8714    8717    8720    8721    8723    8711    8715    8716
    8717    8721    8722    8727    8728    8729    8713    8714    8715    8716
    8717    8721    8723    8727    8713    8714    8718    8719    8720    8724
    8725    8730    8714    8718    8719    8720    8724    8726    8730    8717
    8720    8724    8726    8716    8717    8721    8722    8723    8727    8728
    8729    8731    8732    8733    8734    8721    8722    8721    8722    8723
    8727    8719    8720    8724    8725    8726    8730    8735    8736    8737
    8724    8725    8724    8725    8726    8730    8735    8736    8737    8722
    8723    8727    8728    8729    8727    8728    8729    8731    8732    8733
    8734    8738    8739    8740    8727    8725    8726    8730    8735    8736
    8737    8741    8742    8743    8730    8730       0    8729    8731    8732
    8733    8734    8738    8739    8744    8731    8732    8733    8734    8738
    8740    8744    8735    8736    8737    8741    8742    8743    8745    8746
    8747    8732    8733    8738    8739    8740    8744    8738    8739    8734
    8738    8739    8740    8744    8738    8740    8736    8737    8741    8742
    8743    8745    8746    8747    8748    8749    8750    8737    8741    8742
    8743    8741    8742    8743    8739    8740    8744    8744    8744    8742
    8743    8745    8746    8747    8748    8749    8750    8751    8752    8753
    8743    8745    8746    8747    8745    8746    8747       0    8746    8747
    8748    8749    8750    8751    8752    8753    8754    8755    8756    8747
    8748    8749    8750    8748    8749    8750    8749    8750    8751    8752
    8753    8754    8755    8756    8757    8758    8759    8750    8751    8752
    8753    8751    8752    8753    8752    8753    8754    8755    8756    8757
    8758    8759    8760    8761    8762    8753    8754    8755    8756    8754
    8755    8756    8755    8756    8757    8758    8759    8760    8761    8762
    8763    8764    8765    8756    8757    8758    8759    8757    8758    8759
    8758    8759    8760    8761    8762    8759    8760    8761    8762    8760
    8761    8762    8763    8764    8765    8766    8767    8768    8761    8762
    8763    8764    8765    8766    8767    8768    8762    8763    8764    8765
    8763    8764    8765    8764    8765    8766    8767    8768    8765    8766
    8767    8768    8766    8767    8768    8767    8768    8768       0    8770
    8771    8772    8773    8774    8775    8776    8777    8778    8779    8780
    8781    8771    8772    8773    8774    8775    8776    8777    8778    8781
    8782    8783    8784    8772    8773    8774    8775    8778    8779    8780
    8781    8785    8786    8787    8773    8775    8776    8777    8778    8782
    8783    8784    8788    8789    8790    8774    8775    8776    8777    8778
    8781    8784    8785    8787    8775    8779    8780    8781    8785    8786
    8791    8792    8793    8777    8778    8779    8780    8781    8785    8787
    8791    8777    8778    8782    8783    8784    8788    8789    8794    8778
    8782    8783    8784    8788    8790    8794    8781    8784    8788    8790
    8780    8781    8785    8786    8787    8791    8792    8793    8795    8796
    8797    8798    8785    8786    8785    8786    8787    8791    8783    8784
    8788    8789    8790    8794    8799    8800    8801    8788    8789    8788
    8789    8790    8794    8799    8800    8801    8786    8787    8791    8792
    8793    8791    8792    8793    8795    8796    8797    8798    8802    8803
    8804    8791    8789    8790    8794    8799    8800    8801    8805    8806
    8807    8794    8794       0    8793    8795    8796    8797    8798    8802
    8803    8808    8795    8796    8797    8798    8802    8804    8808    8799
    8800    8801    8805    8806    8807    8809    8810    8811    8796    8797
    8802    8803    8804    8808    8802    8803    8798    8802    8803    8804
    8808    8802    8804    8800    8801    8805    8806    8807    8809    8810
    8811    8812    8813    8814    8801    8805    8806    8807    8805    8806
    8807    8803    8804    8808    8808    8808    8806    8807    8809    8810
    8811    8812    8813    8814    8815    8816    8817    8807    8809    8810
    8811    8809    8810    8811       0    8810    8811    8812    8813    8814
    8815    8816    8817    8818    8819    8820    8811    8812    8813    8814
    8812    8813    8814    8813    8814    8815    8816    8817    8818    8819
    8820    8821    8822    8823    8814    8815    8816    8817    8815    8816
    8817    8816    8817    8818    8819    8820    8821    8822    8823    8824
    8825    8826    8817    8818    8819    8820    8818    8819    8820    8819
    8820    8821    8822    8823    8824    8825    8826    8827    8828    8829
    8820    8821    8822    8823    8821    8822    8823    8822    8823    8824
    8825    8826    8823    8824    8825    8826    8824    8825    8826    8827
    8828    8829    8830    8831    8832    8825    8826    8827    8828    8829
    8830    8831    8832    8826    8827    8828    8829    8827    8828    8829
    8828    8829    8830    8831    8832    8829    8830    8831    8832    8830
    8831    8832    8831    8832    8832       0    8834    8835    8836    8837
    8838    8839    8840    8841    8842    8843    8844    8845    8835    8836
    8837    8838    8839    8840    8841    8842    8845    8846    8847    8848
    8836    8837    8838    8839    8842    8843    8844    8845    8849    8850
    8851    8837    8839    8840    8841    8842    8846    8847    8848    8852
    8853    8854    8838    8839    8840    8841    8842    8845    8848    8849
    8851    8839    8843    8844    8845    8849    8850    8855    8856    8857
    8841    8842    8843    8844    8845    8849    8851    8855    8841    8842
    8846    8847    8848    8852    8853    8858    8842    8846    8847    8848
    8852    8854    8858    8845    8848    8852    8854    8844    8845    8849
    8850    8851    8855    8856    8857    8859    8860    8861    8862    8849
    8850    8849    8850    8851    8855    8847    8848    8852    8853    8854
    8858    8863    8864    8865    8852    8853    8852    8853    8854    8858
    8863    8864    8865    8850    8851    8855    8856    8857    8855    8856
    8857    8859    8860    8861    8862    8866    8867    8868    8855    8853
    8854    8858    8863    8864    8865    8869    8870    8871    8858    8858
       0    8857    8859    8860    8861    8862    8866    8867    8872    8859
    8860    8861    8862    8866    8868    8872    8863    8864    8865    8869
    8870    8871    8873    8874    8875    8860    8861    8866    8867    8868
    8872    8866    8867    8862    8866    8867    8868    8872    8866    8868
    8864    8865    8869    8870    8871    8873    8874    8875    8876    8877
    8878    8865    8869    8870    8871    8869    8870    8871    8867    8868
    8872    8872    8872    8870    8871    8873    8874    8875    8876    8877
    8878    8879    8880    8881    8871    8873    8874    8875    8873    8874
    8875       0    8874    8875    8876    8877    8878    8879    8880    8881
    8882    8883    8884    8875    8876    8877    8878    8876    8877    8878
    8877    8878    8879    8880    8881    8882    8883    8884    8885    8886
    8887    8878    8879    8880    8881    8879    8880    8881    8880    8881
    8882    8883    8884    8885    8886    8887    8888    8889    8890    8881
    8882    8883    8884    8882    8883    8884    8883    8884    8885    8886
    8887    8888    8889    8890    8891    8892    8893    8884    8885    8886
    8887    8885    8886    8887    8886    8887    8888    8889    8890    8887
    8888    8889    8890    8888    8889    8890    8891    8892    8893    8894
    8895    8896    8889    8890    8891    8892    8893    8894    8895    8896
    8890    8891    8892    8893    8891    8892    8893    8892    8893    8894
    8895    8896    8893    8894    8895    8896    8894    8895    8896    8895
    8896    8896       0    8898    8899    8900    8901    8902    8903    8904
    8905    8906    8907    8908    8909    8899    8900    8901    8902    8903
    8904    8905    8906    8909    8910    8911    8912    8900    8901    8902
    8903    8906    8907    8908    8909    8913    8914    8915    8901    8903
    8904    8905    8906    8910    8911    8912    8916    8917    8918    8902
    8903    8904    8905    8906    8909    8912    8913    8915    8903    8907
    8908    8909    8913    8914    8919    8920    8921    8905    8906    8907
    8908    8909    8913    8915    8919    8905    8906    8910    8911    8912
    8916    8917    8922    8906    8910    8911    8912    8916    8918    8922
    8909    8912    8916    8918    8908    8909    8913    8914    8915    8919
    8920    8921    8923    8924    8925    8926    8913    8914    8913    8914
    8915    8919    8911    8912    8916    8917    8918    8922    8927    8928
    8929    8916    8917    8916    8917    8918    8922    8927    8928    8929
    8914    8915    8919    8920    8921    8919    8920    8921    8923    8924
    8925    8926    8930    8931    8932    8919    8917    8918    8922    8927
    8928    8929    8933    8934    8935    8922    8922       0    8921    8923
    8924    8925    8926    8930    8931    8936    8923    8924    8925    8926
    8930    8932    8936    8927    8928    8929    8933    8934    8935    8937
    8938    8939    8924    8925    8930    8931    8932    8936    8930    8931
    8926    8930    8931    8932    8936    8930    8932    8928    8929    8933
    8934    8935    8937    8938    8939    8940    8941    8942    8929    8933
    8934    8935    8933    8934    8935    8931    8932    8936    8936    8936
    8934    8935    8937    8938    8939    8940    8941    8942    8943    8944
    8945    8935    8937    8938    8939    8937    8938    8939       0    8938
    8939    8940    8941    8942    8943    8944    8945    8946    8947    8948
    8939    8940    8941    8942    8940    8941    8942    8941    8942    8943
    8944    8945    8946    8947    8948    8949    8950    8951    8942    8943
    8944    8945    8943    8944    8945    8944    8945    8946    8947    8948
    8949    8950    8951    8952    8953    8954    8945    8946    8947    8948
    8946    8947    8948    8947    8948    8949    8950    8951    8952    8953
    8954    8955    8956    8957    8948    8949    8950    8951    8949    8950
    8951    8950    8951    8952    8953    8954    8951    8952    8953    8954
    8952    8953    8954    8955    8956    8957    8958    8959    8960    8953
    8954    8955    8956    8957    8958    8959    8960    8954    8955    8956
    8957    8955    8956    8957    8956    8957    8958    8959    8960    8957
    8958    8959    8960    8958    8959    8960    8959    8960    8960       0
    8962    8963    8964    8965    8966    8967    8968    8969    8970    8971
    8972    8973    8963    8964    8965    8966    8967    8968    8969    8970
    8973    8974    8975    8976    8964    8965    8966    8967    8970    8971
    8972    8973    8977    8978    8979    8965    8967    8968    8969    8970
    8974    8975    8976    8980    8981    8982    8966    8967    8968    8969
    8970    8973    8976    8977    8979    8967    8971    8972    8973    8977
    8978    8983    8984    8985    8969    8970    8971    8972    8973    8977
    8979    8983    8969    8970    8974    8975    8976    8980    8981    8986
    8970    8974    8975    8976    8980    8982    8986    8973    8976    8980
    8982    8972    8973    8977    8978    8979    8983    8984    8985    8987
    8988    8989    8990    8977    8978    8977    8978    8979    8983    8975
    8976    8980    8981    8982    8986    8991    8992    8993    8980    8981
    8980    8981    8982    8986    8991    8992    8993    8978    8979    8983
    8984    8985    8983    8984    8985    8987    8988    8989    8990    8994
    8995    8996    8983    8981    8982    8986    8991    8992    8993    8997
    8998    8999    8986    8986       0    8985    8987    8988    8989    8990
    8994    8995    9000    8987    8988    8989    8990    8994    8996    9000
    8991    8992    8993    8997    8998    8999    9001    9002    9003    8988
    8989    8994    8995    8996    9000    8994    8995    8990    8994    8995
    8996    9000    8994    8996    8992    8993    8997    8998    8999    9001
    9002    9003    9004    9005    9006    8993    8997    8998    8999    8997
    8998    8999    8995    8996    9000    9000    9000    8998    8999    9001
    9002    9003    9004    9005    9006    9007    9008    9009    8999    9001
    9002    9003    9001    9002    9003       0    9002    9003    9004    9005
    9006    9007    9008    9009    9010    9011    9012    9003    9004    9005
    9006    9004    9005    9006    9005    9006    9007    9008    9009    9010
    9011    9012    9013    9014    9015    9006    9007    9008    9009    9007
    9008    9009    9008    9009    9010    9011    9012    9013    9014    9015
    9016    9017    9018    9009    9010    9011    9012    9010    9011    9012
    9011    9012    9013    9014    9015    9016    9017    9018    9019    9020
    9021    9012    9013    9014    9015    9013    9014    9015    9014    9015
    9016    9017    9018    9015    9016    9017    9018    9016    9017    9018
    9019    9020    9021    9022    9023    9024    9017    9018    9019    9020
    9021    9022    9023    9024    9018    9019    9020    9021    9019    9020
    9021    9020    9021    9022    9023    9024    9021    9022    9023    9024
    9022    9023    9024    9023    9024    9024       0    9026    9027    9028
    9029    9030    9031    9032    9033    9034    9035    9036    9037    9027
    9028    9029    9030    9031    9032    9033    9034    9037    9038    9039
    9040    9028    9029    9030    9031    9034    9035    9036    9037    9041
    9042    9043    9029    9031    9032    9033    9034    9038    9039    9040
    9044    9045    9046    9030    9031    9032    9033    9034    9037    9040
    9041    9043    9031    9035    9036    9037    9041    9042    9047    9048
    9049    9033    9034    9035    9036    9037    9041    9043    9047    9033
    9034    9038    9039    9040    9044    9045    9050    9034    9038    9039
    9040    9044    9046    9050    9037    9040    9044    9046    9036    9037
    9041    9042    9043    9047    9048    9049    9051    9052    9053    9054
    9041    9042    9041    9042    9043    9047    9039    9040    9044    9045
    9046    9050    9055    9056    9057    9044    9045    9044    9045    9046
    9050    9055    9056    9057    9042    9043    9047    9048    9049    9047
    9048    9049    9051    9052    9053    9054    9058    9059    9060    9047
    9045    9046    9050    9055    9056    9057    9061    9062    9063    9050
    9050       0    9049    9051    9052    9053    9054    9058    9059    9064
    9051    9052    9053    9054    9058    9060    9064    9055    9056    9057
    9061    9062    9063    9065    9066    9067    9052    9053    9058    9059
    9060    9064    9058    9059    9054    9058    9059    9060    9064    9058
    9060    9056    9057    9061    9062    9063    9065    9066    9067    9068
    9069    9070    9057    9061    9062    9063    9061    9062    9063    9059
    9060    9064    9064    9064    9062    9063    9065    9066    9067    9068
    9069    9070    9071    9072    9073    9063    9065    9066    9067    9065
    9066    9067       0    9066    9067    9068    9069    9070    9071    9072
    9073    9074    9075    9076    9067    9068    9069    9070    9068    9069
    9070    9069    9070    9071    9072    9073    9074    9075    9076    9077
    9078    9079    9070    9071    9072    9073    9071    9072    9073    9072
    9073    9074    9075    9076    9077    9078    9079    9080    9081    9082
    9073    9074    9075    9076    9074    9075    9076    9075    9076    9077
    9078    9079    9080    9081    9082    9083    9084    9085    9076    9077
    9078    9079    9077    9078    9079    9078    9079    9080    9081    9082
    9079    9080    9081    9082    9080    9081    9082    9083    9084    9085
    9086    9087    9088    9081    9082    9083    9084    9085    9086    9087
    9088    9082    9083    9084    9085    9083    9084    9085    9084    9085
    9086    9087    9088    9085    9086    9087    9088    9086    9087    9088
    9087    9088    9088       0    9090    9091    9092    9093    9094    9095
    9096    9097    9098    9099    9100    9101    9091    9092    9093    9094
    9095    9096    9097    9098    9101    9102    9103    9104    9092    9093
    9094    9095    9098    9099    9100    9101    9105    9106    9107    9093
    9095    9096    9097    9098    9102    9103    9104    9108    9109    9110
    9094    9095    9096    9097    9098    9101    9104    9105    9107    9095
    9099    9100    9101    9105    9106    9111    9112    9113    9097    9098
    9099    9100    9101    9105    9107    9111    9097    9098    9102    9103
    9104    9108    9109    9114    9098    9102    9103    9104    9108    9110
    9114    9101    9104    9108    9110    9100    9101    9105    9106    9107
    9111    9112    9113    9115    9116    9117    9118    9105    9106    9105
    9106    9107    9111    9103    9104    9108    9109    9110    9114    9119
    9120    9121    9108    9109    9108    9109    9110    9114    9119    9120
    9121    9106    9107    9111    9112    9113    9111    9112    9113    9115
    9116    9117    9118    9122    9123    9124    9111    9109    9110    9114
    9119    9120    9121    9125    9126    9127    9114    9114       0    9113
    9115    9116    9117    9118    9122    9123    9128    9115    9116    9117
    9118    9122    9124    9128    9119    9120    9121    9125    9126    9127
    9129    9130    9131    9116    9117    9122    9123    9124    9128    9122
    9123    9118    9122    9123    9124    9128    9122    9124    9120    9121
    9125    9126    9127    9129    9130    9131    9132    9133    9134    9121
    9125    9126    9127    9125    9126    9127    9123    9124    9128    9128
    9128    9126    9127    9129    9130    9131    9132    9133    9134    9135
    9136    9137    9127    9129    9130    9131    9129    9130    9131       0
    9130    9131    9132    9133    9134    9135    9136    9137    9138    9139
    9140    9131    9132    9133    9134    9132    9133    9134    9133    9134
    9135    9136    9137    9138    9139    9140    9141    9142    9143    9134
    9135    9136    9137    9135    9136    9137    9136    9137    9138    9139
    9140    9141    9142    9143    9144    9145    9146    9137    9138    9139
    9140    9138    9139    9140    9139    9140    9141    9142    9143    9144
    9145    9146    9147    9148    9149    9140    9141    9142    9143    9141
    9142    9143    9142    9143    9144    9145    9146    9143    9144    9145
    9146    9144    9145    9146    9147    9148    9149    9150    9151    9152
    9145    9146    9147    9148    9149    9150    9151    9152    9146    9147
    9148    9149    9147    9148    9149    9148    9149    9150    9151    9152
    9149    9150    9151    9152    9150    9151    9152    9151    9152    9152
       0    9154    9155    9156    9157    9158    9159    9160    9161    9162
    9163    9164    9165    9155    9156    9157    9158    9159    9160    9161
    9162    9165    9166    9167    9168    9156    9157    9158    9159    9162
    9163    9164    9165    9169    9170    9171    9157    9159    9160    9161
    9162    9166    9167    9168    9172    9173    9174    9158    9159    9160
    9161    9162    9165    9168    9169    9171    9159    9163    9164    9165
    9169    9170    9175    9176    9177    9161    9162    9163    9164    9165
    9169    9171    9175    9161    9162    9166    9167    9168    9172    9173
    9178    9162    9166    9167    9168    9172    9174    9178    9165    9168
    9172    9174    9164    9165    9169    9170    9171    9175    9176    9177
    9179    9180    9181    9182    9169    9170    9169    9170    9171    9175
    9167    9168    9172    9173    9174    9178    9183    9184    9185    9172
    9173    9172    9173    9174    9178    9183    9184    9185    9170    9171
    9175    9176    9177    9175    9176    9177    9179    9180    9181    9182
    9186    9187    9188    9175    9173    9174    9178    9183    9184    9185
    9189    9190    9191    9178    9178       0    9177    9179    9180    9181
    9182    9186    9187    9192    9179    9180    9181    9182    9186    9188
    9192    9183    9184    9185    9189    9190    9191    9193    9194    9195
    9180    9181    9186    9187    9188    9192    9186    9187    9182    9186
    9187    9188    9192    9186    9188    9184    9185    9189    9190    9191
    9193    9194    9195    9196    9197    9198    9185    9189    9190    9191
    9189    9190    9191    9187    9188    9192    9192    9192    9190    9191
    9193    9194    9195    9196    9197    9198    9199    9200    9201    9191
    9193    9194    9195    9193    9194    9195       0    9194    9195    9196
    9197    9198    9199    9200    9201    9202    9203    9204    9195    9196
    9197    9198    9196    9197    9198    9197    9198    9199    9200    9201
    9202    9203    9204    9205    9206    9207    9198    9199    9200    9201
    9199    9200    9201    9200    9201    9202    9203    9204    9205    9206
    9207    9208    9209    9210    9201    9202    9203    9204    9202    9203
    9204    9203    9204    9205    9206    9207    9208    9209    9210    9211
    9212    9213    9204    9205    9206    9207    9205    9206    9207    9206
    9207    9208    9209    9210    9207    9208    9209    9210    9208    9209
    9210    9211    9212    9213    9214    9215    9216    9209    9210    9211
    9212    9213    9214    9215    9216    9210    9211    9212    9213    9211
    9212    9213    9212    9213    9214    9215    9216    9213    9214    9215
    9216    9214    9215    9216    9215    9216    9216       0    9218    9219
    9220    9221    9222    9223    9224    9225    9226    9227    9228    9229
    9219    9220    9221    9222    9223    9224    9225    9226    9229    9230
    9231    9232    9220    9221    9222    9223    9226    9227    9228    9229
    9233    9234    9235    9221    9223    9224    9225    9226    9230    9231
    9232    9236    9237    9238    9222    9223    9224    9225    9226    9229
    9232    9233    9235    9223    9227    9228    9229    9233    9234    9239
    9240    9241    9225    9226    9227    9228    9229    9233    9235    9239
    9225    9226    9230    9231    9232    9236    9237    9242    9226    9230
    9231    9232    9236    9238    9242    9229    9232    9236    9238    9228
    9229    9233    9234    9235    9239    9240    9241    9243    9244    9245
    9246    9233    9234    9233    9234    9235    9239    9231    9232    9236
    9237    9238    9242    9247    9248    9249    9236    9237    9236    9237
    9238    9242    9247    9248    9249    9234    9235    9239    9240    9241
    9239    9240    9241    9243    9244    9245    9246    9250    9251    9252
    9239    9237    9238    9242    9247    9248    9249    9253    9254    9255
    9242    9242       0    9241    9243    9244    9245    9246    9250    9251
    9256    9243    9244    9245    9246    9250    9252    9256    9247    9248
    9249    9253    9254    9255    9257    9258    9259    9244    9245    9250
    9251    9252    9256    9250    9251    9246    9250    9251    9252    9256
    9250    9252    9248    9249    9253    9254    9255    9257    9258    9259
    9260    9261    9262    9249    9253    9254    9255    9253    9254    9255
    9251    9252    9256    9256    9256    9254    9255    9257    9258    9259
    9260    9261    9262    9263    9264    9265    9255    9257    9258    9259
    9257    9258    9259       0    9258    9259    9260    9261    9262    9263
    9264    9265    9266    9267    9268    9259    9260    9261    9262    9260
    9261    9262    9261    9262    9263    9264    9265    9266    9267    9268
    9269    9270    9271    9262    9263    9264    9265    9263    9264    9265
    9264    9265    9266    9267    9268    9269    9270    9271    9272    9273
    9274    9265    9266    9267    9268    9266    9267    9268    9267    9268
    9269    9270    9271    9272    9273    9274    9275    9276    9277    9268
    9269    9270    9271    9269    9270    9271    9270    9271    9272    9273
    9274    9271    9272    9273    9274    9272    9273    9274    9275    9276
    9277    9278    9279    9280    9273    9274    9275    9276    9277    9278
    9279    9280    9274    9275    9276    9277    9275    9276    9277    9276
    9277    9278    9279    9280    9277    9278    9279    9280    9278    9279
    9280    9279    9280    9280       0    9282    9283    9284    9285    9286
    9287    9288    9289    9290    9291    9292    9293    9283    9284    9285
    9286    9287    9288    9289    9290    9293    9294    9295    9296    9284
    9285    9286    9287    9290    9291    9292    9293    9297    9298    9299
    9285    9287    9288    9289    9290    9294    9295    9296    9300    9301
    9302    9286    9287    9288    9289    9290    9293    9296    9297    9299
    9287    9291    9292    9293    9297    9298    9303    9304    9305    9289
    9290    9291    9292    9293    9297    9299    9303    9289    9290    9294
    9295    9296    9300    9301    9306    9290    9294    9295    9296    9300
    9302    9306    9293    9296    9300    9302    9292    9293    9297    9298
    9299    9303    9304    9305    9307    9308    9309    9310    9297    9298
    9297    9298    9299    9303    9295    9296    9300    9301    9302    9306
    9311    9312    9313    9300    9301    9300    9301    9302    9306    9311
    9312    9313    9298    9299    9303    9304    9305    9303    9304    9305
    9307    9308    9309    9310    9314    9315    9316    9303    9301    9302
    9306    9311    9312    9313    9317    9318    9319    9306    9306       0
    9305    9307    9308    9309    9310    9314    9315    9320    9307    9308
    9309    9310    9314    9316    9320    9311    9312    9313    9317    9318
    9319    9321    9322    9323    9308    9309    9314    9315    9316    9320
    9314    9315    9310    9314    9315    9316    9320    9314    9316    9312
    9313    9317    9318    9319    9321    9322    9323    9324    9325    9326
    9313    9317    9318    9319    9317    9318    9319    9315    9316    9320
    9320    9320    9318    9319    9321    9322    9323    9324    9325    9326
    9327    9328    9329    9319    9321    9322    9323    9321    9322    9323
       0    9322    9323    9324    9325    9326    9327    9328    9329    9330
    9331    9332    9323    9324    9325    9326    9324    9325    9326    9325
    9326    9327    9328    9329    9330    9331    9332    9333    9334    9335
    9326    9327    9328    9329    9327    9328    9329    9328    9329    9330
    9331    9332    9333    9334    9335    9336    9337    9338    9329    9330
    9331    9332    9330    9331    9332    9331    9332    9333    9334    9335
    9336    9337    9338    9339    9340    9341    9332    9333    9334    9335
    9333    9334    9335    9334    9335    9336    9337    9338    9335    9336
    9337    9338    9336    9337    9338    9339    9340    9341    9342    9343
    9344    9337    9338    9339    9340    9341    9342    9343    9344    9338
    9339    9340    9341    9339    9340    9341    9340    9341    9342    9343
    9344    9341    9342    9343    9344    9342    9343    9344    9343    9344
    9344       0    9346    9347    9348    9349    9350    9351    9352    9353
    9354    9355    9356    9357    9347    9348    9349    9350    9351    9352
    9353    9354    9357    9358    9359    9360    9348    9349    9350    9351
    9354    9355    9356    9357    9361    9362    9363    9349    9351    9352
    9353    9354    9358    9359    9360    9364    9365    9366    9350    9351
    9352    9353    9354    9357    9360    9361    9363    9351    9355    9356
    9357    9361    9362    9367    9368    9369    9353    9354    9355    9356
    9357    9361    9363    9367    9353    9354    9358    9359    9360    9364
    9365    9370    9354    9358    9359    9360    9364    9366    9370    9357
    9360    9364    9366    9356    9357    9361    9362    9363    9367    9368
    9369    9371    9372    9373    9374    9361    9362    9361    9362    9363
    9367    9359    9360    9364    9365    9366    9370    9375    9376    9377
    9364    9365    9364    9365    9366    9370    9375    9376    9377    9362
    9363    9367    9368    9369    9367    9368    9369    9371    9372    9373
    9374    9378    9379    9380    9367    9365    9366    9370    9375    9376
    9377    9381    9382    9383    9370    9370       0    9369    9371    9372
    9373    9374    9378    9379    9384    9371    9372    9373    9374    9378
    9380    9384    9375    9376    9377    9381    9382    9383    9385    9386
    9387    9372    9373    9378    9379    9380    9384    9378    9379    9374
    9378    9379    9380    9384    9378    9380    9376    9377    9381    9382
    9383    9385    9386    9387    9388    9389    9390    9377    9381    9382
    9383    9381    9382    9383    9379    9380    9384    9384    9384    9382
    9383    9385    9386    9387    9388    9389    9390    9391    9392    9393
    9383    9385    9386    9387    9385    9386    9387       0    9386    9387
    9388    9389    9390    9391    9392    9393    9394    9395    9396    9387
    9388    9389    9390    9388    9389    9390    9389    9390    9391    9392
    9393    9394    9395    9396    9397    9398    9399    9390    9391    9392
    9393    9391    9392    9393    9392    9393    9394    9395    9396    9397
    9398    9399    9400    9401    9402    9393    9394    9395    9396    9394
    9395    9396    9395    9396    9397    9398    9399    9400    9401    9402
    9403    9404    9405    9396    9397    9398    9399    9397    9398    9399
    9398    9399    9400    9401    9402    9399    9400    9401    9402    9400
    9401    9402    9403    9404    9405    9406    9407    9408    9401    9402
    9403    9404    9405    9406    9407    9408    9402    9403    9404    9405
    9403    9404    9405    9404    9405    9406    9407    9408    9405    9406
    9407    9408    9406    9407    9408    9407    9408    9408       0    9410
    9411    9412    9413    9414    9415    9416    9417    9418    9419    9420
    9421    9411    9412    9413    9414    9415    9416    9417    9418    9421
    9422    9423    9424    9412    9413    9414    9415    9418    9419    9420
    9421    9425    9426    9427    9413    9415    9416    9417    9418    9422
    9423    9424    9428    9429    9430    9414    9415    9416    9417    9418
    9421    9424    9425    9427    9415    9419    9420    9421    9425    9426
    9431    9432    9433    9417    9418    9419    9420    9421    9425    9427
    9431    9417    9418    9422    9423    9424    9428    9429    9434    9418
    9422    9423    9424    9428    9430    9434    9421    9424    9428    9430
    9420    9421    9425    9426    9427    9431    9432    9433    9435    9436
    9437    9438    9425    9426    9425    9426    9427    9431    9423    9424
    9428    9429    9430    9434    9439    9440    9441    9428    9429    9428
    9429    9430    9434    9439    9440    9441    9426    9427    9431    9432
    9433    9431    9432    9433    9435    9436    9437    9438    9442    9443
    9444    9431    9429    9430    9434    9439    9440    9441    9445    9446
    9447    9434    9434       0    9433    9435    9436    9437    9438    9442
    9443    9448    9435    9436    9437    9438    9442    9444    9448    9439
    9440    9441    9445    9446    9447    9449    9450    9451    9436    9437
    9442    9443    9444    9448    9442    9443    9438    9442    9443    9444
    9448    9442    9444    9440    9441    9445    9446    9447    9449    9450
    9451    9452    9453    9454    9441    9445    9446    9447    9445    9446
    9447    9443    9444    9448    9448    9448    9446    9447    9449    9450
    9451    9452    9453    9454    9455    9456    9457    9447    9449    9450
    9451    9449    9450    9451       0    9450    9451    9452    9453    9454
    9455    9456    9457    9458    9459    9460    9451    9452    9453    9454
    9452    9453    9454    9453    9454    9455    9456    9457    9458    9459
    9460    9461    9462    9463    9454    9455    9456    9457    9455    9456
    9457    9456    9457    9458    9459    9460    9461    9462    9463    9464
    9465    9466    9457    9458    9459    9460    9458    9459    9460    9459
    9460    9461    9462    9463    9464    9465    9466    9467    9468    9469
    9460    9461    9462    9463    9461    9462    9463    9462    9463    9464
    9465    9466    9463    9464    9465    9466    9464    9465    9466    9467
    9468    9469    9470    9471    9472    9465    9466    9467    9468    9469
    9470    9471    9472    9466    9467    9468    9469    9467    9468    9469
    9468    9469    9470    9471    9472    9469    9470    9471    9472    9470
    9471    9472    9471    9472    9472       0    9474    9475    9476    9477
    9478    9479    9480    9481    9482    9483    9484    9485    9475    9476
    9477    9478    9479    9480    9481    9482    9485    9486    9487    9488
    9476    9477    9478    9479    9482    9483    9484    9485    9489    9490
    9491    9477    9479    9480    9481    9482    9486    9487    9488    9492
    9493    9494    9478    9479    9480    9481    9482    9485    9488    9489
    9491    9479    9483    9484    9485    9489    9490    9495    9496    9497
    9481    9482    9483    9484    9485    9489    9491    9495    9481    9482
    9486    9487    9488    9492    9493    9498    9482    9486    9487    9488
    9492    9494    9498    9485    9488    9492    9494    9484    9485    9489
    9490    9491    9495    9496    9497    9499    9500    9501    9502    9489
    9490    9489    9490    9491    9495    9487    9488    9492    9493    9494
    9498    9503    9504    9505    9492    9493    9492    9493    9494    9498
    9503    9504    9505    9490    9491    9495    9496    9497    9495    9496
    9497    9499    9500    9501    9502    9506    9507    9508    9495    9493
    9494    9498    9503    9504    9505    9509    9510    9511    9498    9498
       0    9497    9499    9500    9501    9502    9506    9507    9512    9499
    9500    9501    9502    9506    9508    9512    9503    9504    9505    9509
    9510    9511    9513    9514    9515    9500    9501    9506    9507    9508
    9512    9506    9507    9502    9506    9507    9508    9512    9506    9508
    9504    9505    9509    9510    9511    9513    9514    9515    9516    9517
    9518    9505    9509    9510    9511    9509    9510    9511    9507    9508
    9512    9512    9512    9510    9511    9513    9514    9515    9516    9517
    9518    9519    9520    9521    9511    9513    9514    9515    9513    9514
    9515       0    9514    9515    9516    9517    9518    9519    9520    9521
    9522    9523    9524    9515    9516    9517    9518    9516    9517    9518
    9517    9518    9519    9520    9521    9522    9523    9524    9525    9526
    9527    9518    9519    9520    9521    9519    9520    9521    9520    9521
    9522    9523    9524    9525    9526    9527    9528    9529    9530    9521
    9522    9523    9524    9522    9523    9524    9523    9524    9525    9526
    9527    9528    9529    9530    9531    9532    9533    9524    9525    9526
    9527    9525    9526    9527    9526    9527    9528    9529    9530    9527
    9528    9529    9530    9528    9529    9530    9531    9532    9533    9534
    9535    9536    9529    9530    9531    9532    9533    9534    9535    9536
    9530    9531    9532    9533    9531    9532    9533    9532    9533    9534
    9535    9536    9533    9534    9535    9536    9534    9535    9536    9535
    9536    9536       0    9538    9539    9540    9541    9542    9543    9544
    9545    9546    9547    9548    9549    9539    9540    9541    9542    9543
    9544    9545    9546    9549    9550    9551    9552    9540    9541    9542
    9543    9546    9547    9548    9549    9553    9554    9555    9541    9543
    9544    9545    9546    9550    9551    9552    9556    9557    9558    9542
    9543    9544    9545    9546    9549    9552    9553    9555    9543    9547
    9548    9549    9553    9554    9559    9560    9561    9545    9546    9547
    9548    9549    9553    9555    9559    9545    9546    9550    9551    9552
    9556    9557    9562    9546    9550    9551    9552    9556    9558    9562
    9549    9552    9556    9558    9548    9549    9553    9554    9555    9559
    9560    9561    9563    9564    9565    9566    9553    9554    9553    9554
    9555    9559    9551    9552    9556    9557    9558    9562    9567    9568
    9569    9556    9557    9556    9557    9558    9562    9567    9568    9569
    9554    9555    9559    9560    9561    9559    9560    9561    9563    9564
    9565    9566    9570    9571    9572    9559    9557    9558    9562    9567
    9568    9569    9573    9574    9575    9562    9562       0    9561    9563
    9564    9565    9566    9570    9571    9576    9563    9564    9565    9566
    9570    9572    9576    9567    9568    9569    9573    9574    9575    9577
    9578    9579    9564    9565    9570    9571    9572    9576    9570    9571
    9566    9570    9571    9572    9576    9570    9572    9568    9569    9573
    9574    9575    9577    9578    9579    9580    9581    9582    9569    9573
    9574    9575    9573    9574    9575    9571    9572    9576    9576    9576
    9574    9575    9577    9578    9579    9580    9581    9582    9583    9584
    9585    9575    9577    9578    9579    9577    9578    9579       0    9578
    9579    9580    9581    9582    9583    9584    9585    9586    9587    9588
    9579    9580    9581    9582    9580    9581    9582    9581    9582    9583
    9584    9585    9586    9587    9588    9589    9590    9591    9582    9583
    9584    9585    9583    9584    9585    9584    9585    9586    9587    9588
    9589    9590    9591    9592    9593    9594    9585    9586    9587    9588
    9586    9587    9588    9587    9588    9589    9590    9591    9592    9593
    9594    9595    9596    9597    9588    9589    9590    9591    9589    9590
    9591    9590    9591    9592    9593    9594    9591    9592    9593    9594
    9592    9593    9594    9595    9596    9597    9598    9599    9600    9593
    9594    9595    9596    9597    9598    9599    9600    9594    9595    9596
    9597    9595    9596    9597    9596    9597    9598    9599    9600    9597
    9598    9599    9600    9598    9599    9600    9599    9600    9600       0
    9602    9603    9604    9605    9606    9607    9608    9609    9610    9611
    9612    9613    9603    9604    9605    9606    9607    9608    9609    9610
    9613    9614    9615    9616    9604    9605    9606    9607    9610    9611
    9612    9613    9617    9618    9619    9605    9607    9608    9609    9610
    9614    9615    9616    9620    9621    9622    9606    9607    9608    9609
    9610    9613    9616    9617    9619    9607    9611    9612    9613    9617
    9618    9623    9624    9625    9609    9610    9611    9612    9613    9617
    9619    9623    9609    9610    9614    9615    9616    9620    9621    9626
    9610    9614    9615    9616    9620    9622    9626    9613    9616    9620
    9622    9612    9613    9617    9618    9619    9623    9624    9625    9627
    9628    9629    9630    9617    9618    9617    9618    9619    9623    9615
    9616    9620    9621    9622    9626    9631    9632    9633    9620    9621
    9620    9621    9622    9626    9631    9632    9633    9618    9619    9623
    9624    9625    9623    9624    9625    9627    9628    9629    9630    9634
    9635    9636    9623    9621    9622    9626    9631    9632    9633    9637
    9638    9639    9626    9626       0    9625    9627    9628    9629    9630
    9634    9635    9640    9627    9628    9629    9630    9634    9636    9640
    9631    9632    9633    9637    9638    9639    9641    9642    9643    9628
    9629    9634    9635    9636    9640    9634    9635    9630    9634    9635
    9636    9640    9634    9636    9632    9633    9637    9638    9639    9641
    9642    9643    9644    9645    9646    9633    9637    9638    9639    9637
    9638    9639    9635    9636    9640    9640    9640    9638    9639    9641
    9642    9643    9644    9645    9646    9647    9648    9649    9639    9641
    9642    9643    9641    9642    9643       0    9642    9643    9644    9645
    9646    9647    9648    9649    9650    9651    9652    9643    9644    9645
    9646    9644    9645    9646    9645    9646    9647    9648    9649    9650
    9651    9652    9653    9654    9655    9646    9647    9648    9649    9647
    9648    9649    9648    9649    9650    9651    9652    9653    9654    9655
    9656    9657    9658    9649    9650    9651    9652    9650    9651    9652
    9651    9652    9653    9654    9655    9656    9657    9658    9659    9660
    9661    9652    9653    9654    9655    9653    9654    9655    9654    9655
    9656    9657    9658    9655    9656    9657    9658    9656    9657    9658
    9659    9660    9661    9662    9663    9664    9657    9658    9659    9660
    9661    9662    9663    9664    9658    9659    9660    9661    9659    9660
    9661    9660    9661    9662    9663    9664    9661    9662    9663    9664
    9662    9663    9664    9663    9664    9664       0    9666    9667    9668
    9669    9670    9671    9672    9673    9674    9675    9676    9677    9667
    9668    9669    9670    9671    9672    9673    9674    9677    9678    9679
    9680    9668    9669    9670    9671    9674    9675    9676    9677    9681
    9682    9683    9669    9671    9672    9673    9674    9678    9679    9680
    9684    9685    9686    9670    9671    9672    9673    9674    9677    9680
    9681    9683    9671    9675    9676    9677    9681    9682    9687    9688
    9689    9673    9674    9675    9676    9677    9681    9683    9687    9673
    9674    9678    9679    9680    9684    9685    9690    9674    9678    9679
    9680    9684    9686    9690    9677    9680    9684    9686    9676    9677
    9681    9682    9683    9687    9688    9689    9691    9692    9693    9694
    9681    9682    9681    9682    9683    9687    9679    9680    9684    9685
    9686    9690    9695    9696    9697    9684    9685    9684    9685    9686
    9690    9695    9696    9697    9682    9683    9687    9688    9689    9687
    9688    9689    9691    9692    9693    9694    9698    9699    9700    9687
    9685    9686    9690    9695    9696    9697    9701    9702    9703    9690
    9690       0    9689    9691    9692    9693    9694    9698    9699    9704
    9691    9692    9693    9694    9698    9700    9704    9695    9696    9697
    9701    9702    9703    9705    9706    9707    9692    9693    9698    9699
    9700    9704    9698    9699    9694    9698    9699    9700    9704    9698
    9700    9696    9697    9701    9702    9703    9705    9706    9707    9708
    9709    9710    9697    9701    9702    9703    9701    9702    9703    9699
    9700    9704    9704    9704    9702    9703    9705    9706    9707    9708
    9709    9710    9711    9712    9713    9703    9705    9706    9707    9705
    9706    9707       0    9706    9707    9708    9709    9710    9711    9712
    9713    9714    9715    9716    9707    9708    9709    9710    9708    9709
    9710    9709    9710    9711    9712    9713    9714    9715    9716    9717
    9718    9719    9710    9711    9712    9713    9711    9712    9713    9712
    9713    9714    9715    9716    9717    9718    9719    9720    9721    9722
    9713    9714    9715    9716    9714    9715    9716    9715    9716    9717
    9718    9719    9720    9721    9722    9723    9724    9725    9716    9717
    9718    9719    9717    9718    9719    9718    9719    9720    9721    9722
    9719    9720    9721    9722    9720    9721    9722    9723    9724    9725
    9726    9727    9728    9721    9722    9723    9724    9725    9726    9727
    9728    9722    9723    9724    9725    9723    9724    9725    9724    9725
    9726    9727    9728    9725    9726    9727    9728    9726    9727    9728
    9727    9728    9728       0    9730    9731    9732    9733    9734    9735
    9736    9737    9738    9739    9740    9741    9731    9732    9733    9734
    9735    9736    9737    9738    9741    9742    9743    9744    9732    9733
    9734    9735    9738    9739    9740    9741    9745    9746    9747    9733
    9735    9736    9737    9738    9742    9743    9744    9748    9749    9750
    9734    9735    9736    9737    9738    9741    9744    9745    9747    9735
    9739    9740    9741    9745    9746    9751    9752    9753    9737    9738
    9739    9740    9741    9745    9747    9751    9737    9738    9742    9743
    9744    9748    9749    9754    9738    9742    9743    9744    9748    9750
    9754    9741    9744    9748    9750    9740    9741    9745    9746    9747
    9751    9752    9753    9755    9756    9757    9758    9745    9746    9745
    9746    9747    9751    9743    9744    9748    9749    9750    9754    9759
    9760    9761    9748    9749    9748    9749    9750    9754    9759    9760
    9761    9746    9747    9751    9752    9753    9751    9752    9753    9755
    9756    9757    9758    9762    9763    9764    9751    9749    9750    9754
    9759    9760    9761    9765    9766    9767    9754    9754       0    9753
    9755    9756    9757    9758    9762    9763    9768    9755    9756    9757
    9758    9762    9764    9768    9759    9760    9761    9765    9766    9767
    9769    9770    9771    9756    9757    9762    9763    9764    9768    9762
    9763    9758    9762    9763    9764    9768    9762    9764    9760    9761
    9765    9766    9767    9769    9770    9771    9772    9773    9774    9761
    9765    9766    9767    9765    9766    9767    9763    9764    9768    9768
    9768    9766    9767    9769    9770    9771    9772    9773    9774    9775
    9776    9777    9767    9769    9770    9771    9769    9770    9771       0
    9770    9771    9772    9773    9774    9775    9776    9777    9778    9779
    9780    9771    9772    9773    9774    9772    9773    9774    9773    9774
    9775    9776    9777    9778    9779    9780    9781    9782    9783    9774
    9775    9776    9777    9775    9776    9777    9776    9777    9778    9779
    9780    9781    9782    9783    9784    9785    9786    9777    9778    9779
    9780    9778    9779    9780    9779    9780    9781    9782    9783    9784
    9785    9786    9787    9788    9789    9780    9781    9782    9783    9781
    9782    9783    9782    9783    9784    9785    9786    9783    9784    9785
    9786    9784    9785    9786    9787    9788    9789    9790    9791    9792
    9785    9786    9787    9788    9789    9790    9791    9792    9786    9787
    9788    9789    9787    9788    9789    9788    9789    9790    9791    9792
    9789    9790    9791    9792    9790    9791    9792    9791    9792    9792
       0    9794    9795    9796    9797    9798    9799    9800    9801    9802
    9803    9804    9805    9795    9796    9797    9798    9799    9800    9801
    9802    9805    9806    9807    9808    9796    9797    9798    9799    9802
    9803    9804    9805    9809    9810    9811    9797    9799    9800    9801
    9802    9806    9807    9808    9812    9813    9814    9798    9799    9800
    9801    9802    9805    9808    9809    9811    9799    9803    9804    9805
    9809    9810    9815    9816    9817    9801    9802    9803    9804    9805
    9809    9811    9815    9801    9802    9806    9807    9808    9812    9813
    9818    9802    9806    9807    9808    9812    9814    9818    9805    9808
    9812    9814    9804    9805    9809    9810    9811    9815    9816    9817
    9819    9820    9821    9822    9809    9810    9809    9810    9811    9815
    9807    9808    9812    9813    9814    9818    9823    9824    9825    9812
    9813    9812    9813    9814    9818    9823    9824    9825    9810    9811
    9815    9816    9817    9815    9816    9817    9819    9820    9821    9822
    9826    9827    9828    9815    9813    9814    9818    9823    9824    9825
    9829    9830    9831    9818    9818       0    9817    9819    9820    9821
    9822    9826    9827    9832    9819    9820    9821    9822    9826    9828
    9832    9823    9824    9825    9829    9830    9831    9833    9834    9835
    9820    9821    9826    9827    9828    9832    9826    9827    9822    9826
    9827    9828    9832    9826    9828    9824    9825    9829    9830    9831
    9833    9834    9835    9836    9837    9838    9825    9829    9830    9831
    9829    9830    9831    9827    9828    9832    9832    9832    9830    9831
    9833    9834    9835    9836    9837    9838    9839    9840    9841    9831
    9833    9834    9835    9833    9834    9835       0    9834    9835    9836
    9837    9838    9839    9840    9841    9842    9843    9844    9835    9836
    9837    9838    9836    9837    9838    9837    9838    9839    9840    9841
    9842    9843    9844    9845    9846    9847    9838    9839    9840    9841
    9839    9840    9841    9840    9841    9842    9843    9844    9845    9846
    9847    9848    9849    9850    9841    9842    9843    9844    9842    9843
    9844    9843    9844    9845    9846    9847    9848    9849    9850    9851
    9852    9853    9844    9845    9846    9847    9845    9846    9847    9846
    9847    9848    9849    9850    9847    9848    9849    9850    9848    9849
    9850    9851    9852    9853    9854    9855    9856    9849    9850    9851
    9852    9853    9854    9855    9856    9850    9851    9852    9853    9851
    9852    9853    9852    9853    9854    9855    9856    9853    9854    9855
    9856    9854    9855    9856    9855    9856    9856       0    9858    9859
    9860    9861    9862    9863    9864    9865    9866    9867    9868    9869
    9859    9860    9861    9862    9863    9864    9865    9866    9869    9870
    9871    9872    9860    9861    9862    9863    9866    9867    9868    9869
    9873    9874    9875    9861    9863    9864    9865    9866    9870    9871
    9872    9876    9877    9878    9862    9863    9864    9865    9866    9869
    9872    9873    9875    9863    9867    9868    9869    9873    9874    9879
    9880    9881    9865    9866    9867    9868    9869    9873    9875    9879
    9865    9866    9870    9871    9872    9876    9877    9882    9866    9870
    9871    9872    9876    9878    9882    9869    9872    9876    9878    9868
    9869    9873    9874    9875    9879    9880    9881    9883    9884    9885
    9886    9873    9874    9873    9874    9875    9879    9871    9872    9876
    9877    9878    9882    9887    9888    9889    9876    9877    9876    9877
    9878    9882    9887    9888    9889    9874    9875    9879    9880    9881
    9879    9880    9881    9883    9884    9885    9886    9890    9891    9892
    9879    9877    9878    9882    9887    9888    9889    9893    9894    9895
    9882    9882       0    9881    9883    9884    9885    9886    9890    9891
    9896    9883    9884    9885    9886    9890    9892    9896    9887    9888
    9889    9893    9894    9895    9897    9898    9899    9884    9885    9890
    9891    9892    9896    9890    9891    9886    9890    9891    9892    9896
    9890    9892    9888    9889    9893    9894    9895    9897    9898    9899
    9900    9901    9902    9889    9893    9894    9895    9893    9894    9895
    9891    9892    9896    9896    9896    9894    9895    9897    9898    9899
    9900    9901    9902    9903    9904    9905    9895    9897    9898    9899
    9897    9898    9899       0    9898    9899    9900    9901    9902    9903
    9904    9905    9906    9907    9908    9899    9900    9901    9902    9900
    9901    9902    9901    9902    9903    9904    9905    9906    9907    9908
    9909    9910    9911    9902    9903    9904    9905    9903    9904    9905
    9904    9905    9906    9907    9908    9909    9910    9911    9912    9913
    9914    9905    9906    9907    9908    9906    9907    9908    9907    9908
    9909    9910    9911    9912    9913    9914    9915    9916    9917    9908
    9909    9910    9911    9909    9910    9911    9910    9911    9912    9913
    9914    9911    9912    9913    9914    9912    9913    9914    9915    9916
    9917    9918    9919    9920    9913    9914    9915    9916    9917    9918
    9919    9920    9914    9915    9916    9917    9915    9916    9917    9916
    9917    9918    9919    9920    9917    9918    9919    9920    9918    9919
    9920    9919    9920    9920       0    9922    9923    9924    9925    9926
    9927    9928    9929    9930    9931    9932    9933    9923    9924    9925
    9926    9927    9928    9929    9930    9933    9934    9935    9936    9924
    9925    9926    9927    9930    9931    9932    9933    9937    9938    9939
    9925    9927    9928    9929    9930    9934    9935    9936    9940    9941
    9942    9926    9927    9928    9929    9930    9933    9936    9937    9939
    9927    9931    9932    9933    9937    9938    9943    9944    9945    9929
    9930    9931    9932    9933    9937    9939    9943    9929    9930    9934
    9935    9936    9940    9941    9946    9930    9934    9935    9936    9940
    9942    9946    9933    9936    9940    9942    9932    9933    9937    9938
    9939    9943    9944    9945    9947    9948    9949    9950    9937    9938
    9937    9938    9939    9943    9935    9936    9940    9941    9942    9946
    9951    9952    9953    9940    9941    9940    9941    9942    9946    9951
    9952    9953    9938    9939    9943    9944    9945    9943    9944    9945
    9947    9948    9949    9950    9954    9955    9956    9943    9941    9942
    9946    9951    9952    9953    9957    9958    9959    9946    9946       0
    9945    9947    9948    9949    9950    9954    9955    9960    9947    9948
    9949    9950    9954    9956    9960    9951    9952    9953    9957    9958
    9959    9961    9962    9963    9948    9949    9954    9955    9956    9960
    9954    9955    9950    9954    9955    9956    9960    9954    9956    9952
    9953    9957    9958    9959    9961    9962    9963    9964    9965    9966
    9953    9957    9958    9959    9957    9958    9959    9955    9956    9960
    9960    9960    9958    9959    9961    9962    9963    9964    9965    9966
    9967    9968    9969    9959    9961    9962    9963    9961    9962    9963
       0    9962    9963    9964    9965    9966    9967    9968    9969    9970
    9971    9972    9963    9964    9965    9966    9964    9965    9966    9965
    9966    9967    9968    9969    9970    9971    9972    9973    9974    9975
    9966    9967    9968    9969    9967    9968    9969    9968    9969    9970
    9971    9972    9973    9974    9975    9976    9977    9978    9969    9970
    9971    9972    9970    9971    9972    9971    9972    9973    9974    9975
    9976    9977    9978    9979    9980    9981    9972    9973    9974    9975
    9973    9974    9975    9974    9975    9976    9977    9978    9975    9976
    9977    9978    9976    9977    9978    9979    9980    9981    9982    9983
    9984    9977    9978    9979    9980    9981    9982    9983    9984    9978
    9979    9980    9981    9979    9980    9981    9980    9981    9982    9983
    9984    9981    9982    9983    9984    9982    9983    9984    9983    9984
    9984       0    9986    9987    9988    9989    9990    9991    9992    9993
    9994    9995    9996    9997    9987    9988    9989    9990    9991    9992
    9993    9994    9997    9998    9999   10000    9988    9989    9990    9991
    9994    9995    9996    9997   10001   10002   10003    9989    9991    9992
    9993    9994    9998    9999   10000   10004   10005   10006    9990    9991
    9992    9993    9994    9997   10000   10001   10003    9991    9995    9996
    9997   10001   10002   10007   10008   10009    9993    9994    9995    9996
    9997   10001   10003   10007    9993    9994    9998    9999   10000   10004
   10005   10010    9994    9998    9999   10000   10004   10006   10010    9997
   10000   10004   10006    9996    9997   10001   10002   10003   10007   10008
   10009   10011   10012   10013   10014   10001   10002   10001   10002   10003
   10007    9999   10000   10004   10005   10006   10010   10015   10016   10017
   10004   10005   10004   10005   10006   10010   10015   10016   10017   10002
   10003   10007   10008   10009   10007   10008   10009   10011   10012   10013
   10014   10018   10019   10020   10007   10005   10006   10010   10015   10016
   10017   10021   10022   10023   10010   10010       0   10009   10011   10012
   10013   10014   10018   10019   10024   10011   10012   10013   10014   10018
   10020   10024   10015   10016   10017   10021   10022   10023   10025   10026
   10027   10012   10013   10018   10019   10020   10024   10018   10019   10014
   10018   10019   10020   10024   10018   10020   10016   10017   10021   10022
   10023   10025   10026   10027   10028   10029   10030   10017   10021   10022
   10023   10021   10022   10023   10019   10020   10024   10024   10024   10022
   10023   10025   10026   10027   10028   10029   10030   10031   10032   10033
   10023   10025   10026   10027   10025   10026   10027       0   10026   10027
   10028   10029   10030   10031   10032   10033   10034   10035   10036   10027
   10028   10029   10030   10028   10029   10030   10029   10030   10031   10032
   10033   10034   10035   10036   10037   10038   10039   10030   10031   10032
   10033   10031   10032   10033   10032   10033   10034   10035   10036   10037
   10038   10039   10040   10041   10042   10033   10034   10035   10036   10034
   10035   10036   10035   10036   10037   10038   10039   10040   10041   10042
   10043   10044   10045   10036   10037   10038   10039   10037   10038   10039
   10038   10039   10040   10041   10042   10039   10040   10041   10042   10040
   10041   10042   10043   10044   10045   10046   10047   10048   10041   10042
   10043   10044   10045   10046   10047   10048   10042   10043   10044   10045
   10043   10044   10045   10044   10045   10046   10047   10048   10045   10046
   10047   10048   10046   10047   10048   10047   10048   10048       0   10050
   10051   10052   10053   10054   10055   10056   10057   10058   10059   10060
   10061   10051   10052   10053   10054   10055   10056   10057   10058   10061
   10062   10063   10064   10052   10053   10054   10055   10058   10059   10060
   10061   10065   10066   10067   10053   10055   10056   10057   10058   10062
   10063   10064   10068   10069   10070   10054   10055   10056   10057   10058
   10061   10064   10065   10067   10055   10059   10060   10061   10065   10066
   10071   10072   10073   10057   10058   10059   10060   10061   10065   10067
   10071   10057   10058   10062   10063   10064   10068   10069   10074   10058
   10062   10063   10064   10068   10070   10074   10061   10064   10068   10070
   10060   10061   10065   10066   10067   10071   10072   10073   10075   10076
   10077   10078   10065   10066   10065   10066   10067   10071   10063   10064
   10068   10069   10070   10074   10079   10080   10081   10068   10069   10068
   10069   10070   10074   10079   10080   10081   10066   10067   10071   10072
   10073   10071   10072   10073   10075   10076   10077   10078   10082   10083
   10084   10071   10069   10070   10074   10079   10080   10081   10085   10086
   10087   10074   10074       0   10073   10075   10076   10077   10078   10082
   10083   10088   10075   10076   10077   10078   10082   10084   10088   10079
   10080   10081   10085   10086   10087   10089   10090   10091   10076   10077
   10082   10083   10084   10088   10082   10083   10078   10082   10083   10084
   10088   10082   10084   10080   10081   10085   10086   10087   10089   10090
   10091   10092   10093   10094   10081   10085   10086   10087   10085   10086
   10087   10083   10084   10088   10088   10088   10086   10087   10089   10090
   10091   10092   10093   10094   10095   10096   10097   10087   10089   10090
   10091   10089   10090   10091       0   10090   10091   10092   10093   10094
   10095   10096   10097   10098   10099   10100   10091   10092   10093   10094
   10092   10093   10094   10093   10094   10095   10096   10097   10098   10099
   10100   10101   10102   10103   10094   10095   10096   10097   10095   10096
   10097   10096   10097   10098   10099   10100   10101   10102   10103   10104
   10105   10106   10097   10098   10099   10100   10098   10099   10100   10099
   10100   10101   10102   10103   10104   10105   10106   10107   10108   10109
   10100   10101   10102   10103   10101   10102   10103   10102   10103   10104
   10105   10106   10103   10104   10105   10106   10104   10105   10106   10107
   10108   10109   10110   10111   10112   10105   10106   10107   10108   10109
   10110   10111   10112   10106   10107   10108   10109   10107   10108   10109
   10108   10109   10110   10111   10112   10109   10110   10111   10112   10110
   10111   10112   10111   10112   10112       0   10114   10115   10116   10117
   10118   10119   10120   10121   10122   10123   10124   10125   10115   10116
   10117   10118   10119   10120   10121   10122   10125   10126   10127   10128
   10116   10117   10118   10119   10122   10123   10124   10125   10129   10130
   10131   10117   10119   10120   10121   10122   10126   10127   10128   10132
   10133   10134   10118   10119   10120   10121   10122   10125   10128   10129
   10131   10119   10123   10124   10125   10129   10130   10135   10136   10137
   10121   10122   10123   10124   10125   10129   10131   10135   10121   10122
   10126   10127   10128   10132   10133   10138   10122   10126   10127   10128
   10132   10134   10138   10125   10128   10132   10134   10124   10125   10129
   10130   10131   10135   10136   10137   10139   10140   10141   10142   10129
   10130   10129   10130   10131   10135   10127   10128   10132   10133   10134
   10138   10143   10144   10145   10132   10133   10132   10133   10134   10138
   10143   10144   10145   10130   10131   10135   10136   10137   10135   10136
   10137   10139   10140   10141   10142   10146   10147   10148   10135   10133
   10134   10138   10143   10144   10145   10149   10150   10151   10138   10138
       0   10137   10139   10140   10141   10142   10146   10147   10152   10139
   10140   10141   10142   10146   10148   10152   10143   10144   10145   10149
   10150   10151   10153   10154   10155   10140   10141   10146   10147   10148
   10152   10146   10147   10142   10146   10147   10148   10152   10146   10148
   10144   10145   10149   10150   10151   10153   10154   10155   10156   10157
   10158   10145   10149   10150   10151   10149   10150   10151   10147   10148
   10152   10152   10152   10150   10151   10153   10154   10155   10156   10157
   10158   10159   10160   10161   10151   10153   10154   10155   10153   10154
   10155       0   10154   10155   10156   10157   10158   10159   10160   10161
   10162   10163   10164   10155   10156   10157   10158   10156   10157   10158
   10157   10158   10159   10160   10161   10162   10163   10164   10165   10166
   10167   10158   10159   10160   10161   10159   10160   10161   10160   10161
   10162   10163   10164   10165   10166   10167   10168   10169   10170   10161
   10162   10163   10164   10162   10163   10164   10163   10164   10165   10166
   10167   10168   10169   10170   10171   10172   10173   10164   10165   10166
   10167   10165   10166   10167   10166   10167   10168   10169   10170   10167
   10168   10169   10170   10168   10169   10170   10171   10172   10173   10174
   10175   10176   10169   10170   10171   10172   10173   10174   10175   10176
   10170   10171   10172   10173   10171   10172   10173   10172   10173   10174
   10175   10176   10173   10174   10175   10176   10174   10175   10176   10175
   10176   10176       0   10178   10179   10180   10181   10182   10183   10184
   10185   10186   10187   10188   10189   10179   10180   10181   10182   10183
   10184   10185   10186   10189   10190   10191   10192   10180   10181   10182
   10183   10186   10187   10188   10189   10193   10194   10195   10181   10183
   10184   10185   10186   10190   10191   10192   10196   10197   10198   10182
   10183   10184   10185   10186   10189   10192   10193   10195   10183   10187
   10188   10189   10193   10194   10199   10200   10201   10185   10186   10187
   10188   10189   10193   10195   10199   10185   10186   10190   10191   10192
   10196   10197   10202   10186   10190   10191   10192   10196   10198   10202
   10189   10192   10196   10198   10188   10189   10193   10194   10195   10199
   10200   10201   10203   10204   10205   10206   10193   10194   10193   10194
   10195   10199   10191   10192   10196   10197   10198   10202   10207   10208
   10209   10196   10197   10196   10197   10198   10202   10207   10208   10209
   10194   10195   10199   10200   10201   10199   10200   10201   10203   10204
   10205   10206   10210   10211   10212   10199   10197   10198   10202   10207
   10208   10209   10213   10214   10215   10202   10202       0   10201   10203
   10204   10205   10206   10210   10211   10216   10203   10204   10205   10206
   10210   10212   10216   10207   10208   10209   10213   10214   10215   10217
   10218   10219   10204   10205   10210   10211   10212   10216   10210   10211
   10206   10210   10211   10212   10216   10210   10212   10208   10209   10213
   10214   10215   10217   10218   10219   10220   10221   10222   10209   10213
   10214   10215   10213   10214   10215   10211   10212   10216   10216   10216
   10214   10215   10217   10218   10219   10220   10221   10222   10223   10224
   10225   10215   10217   10218   10219   10217   10218   10219       0   10218
   10219   10220   10221   10222   10223   10224   10225   10226   10227   10228
   10219   10220   10221   10222   10220   10221   10222   10221   10222   10223
   10224   10225   10226   10227   10228   10229   10230   10231   10222   10223
   10224   10225   10223   10224   10225   10224   10225   10226   10227   10228
   10229   10230   10231   10232   10233   10234   10225   10226   10227   10228
   10226   10227   10228   10227   10228   10229   10230   10231   10232   10233
   10234   10235   10236   10237   10228   10229   10230   10231   10229   10230
   10231   10230   10231   10232   10233   10234   10231   10232   10233   10234
   10232   10233   10234   10235   10236   10237   10238   10239   10240   10233
   10234   10235   10236   10237   10238   10239   10240   10234   10235   10236
   10237   10235   10236   10237   10236   10237   10238   10239   10240   10237
   10238   10239   10240   10238   10239   10240   10239   10240   10240       0
   10242   10243   10244   10245   10246   10247   10248   10249   10250   10251
   10252   10253   10243   10244   10245   10246   10247   10248   10249   10250
   10253   10254   10255   10256   10244   10245   10246   10247   10250   10251
   10252   10253   10257   10258   10259   10245   10247   10248   10249   10250
   10254   10255   10256   10260   10261   10262   10246   10247   10248   10249
   10250   10253   10256   10257   10259   10247   10251   10252   10253   10257
   10258   10263   10264   10265   10249   10250   10251   10252   10253   10257
   10259   10263   10249   10250   10254   10255   10256   10260   10261   10266
   10250   10254   10255   10256   10260   10262   10266   10253   10256   10260
   10262   10252   10253   10257   10258   10259   10263   10264   10265   10267
   10268   10269   10270   10257   10258   10257   10258   10259   10263   10255
   10256   10260   10261   10262   10266   10271   10272   10273   10260   10261
   10260   10261   10262   10266   10271   10272   10273   10258   10259   10263
   10264   10265   10263   10264   10265   10267   10268   10269   10270   10274
   10275   10276   10263   10261   10262   10266   10271   10272   10273   10277
   10278   10279   10266   10266       0   10265   10267   10268   10269   10270
   10274   10275   10280   10267   10268   10269   10270   10274   10276   10280
   10271   10272   10273   10277   10278   10279   10281   10282   10283   10268
   10269   10274   10275   10276   10280   10274   10275   10270   10274   10275
   10276   10280   10274   10276   10272   10273   10277   10278   10279   10281
   10282   10283   10284   10285   10286   10273   10277   10278   10279   10277
   10278   10279   10275   10276   10280   10280   10280   10278   10279   10281
   10282   10283   10284   10285   10286   10287   10288   10289   10279   10281
   10282   10283   10281   10282   10283       0   10282   10283   10284   10285
   10286   10287   10288   10289   10290   10291   10292   10283   10284   10285
   10286   10284   10285   10286   10285   10286   10287   10288   10289   10290
   10291   10292   10293   10294   10295   10286   10287   10288   10289   10287
   10288   10289   10288   10289   10290   10291   10292   10293   10294   10295
   10296   10297   10298   10289   10290   10291   10292   10290   10291   10292
   10291   10292   10293   10294   10295   10296   10297   10298   10299   10300
   10301   10292   10293   10294   10295   10293   10294   10295   10294   10295
   10296   10297   10298   10295   10296   10297   10298   10296   10297   10298
   10299   10300   10301   10302   10303   10304   10297   10298   10299   10300
   10301   10302   10303   10304   10298   10299   10300   10301   10299   10300
   10301   10300   10301   10302   10303   10304   10301   10302   10303   10304
   10302   10303   10304   10303   10304   10304       0   10306   10307   10308
   10309   10310   10311   10312   10313   10314   10315   10316   10317   10307
   10308   10309   10310   10311   10312   10313   10314   10317   10318   10319
   10320   10308   10309   10310   10311   10314   10315   10316   10317   10321
   10322   10323   10309   10311   10312   10313   10314   10318   10319   10320
   10324   10325   10326   10310   10311   10312   10313   10314   10317   10320
   10321   10323   10311   10315   10316   10317   10321   10322   10327   10328
   10329   10313   10314   10315   10316   10317   10321   10323   10327   10313
   10314   10318   10319   10320   10324   10325   10330   10314   10318   10319
   10320   10324   10326   10330   10317   10320   10324   10326   10316   10317
   10321   10322   10323   10327   10328   10329   10331   10332   10333   10334
   10321   10322   10321   10322   10323   10327   10319   10320   10324   10325
   10326   10330   10335   10336   10337   10324   10325   10324   10325   10326
   10330   10335   10336   10337   10322   10323   10327   10328   10329   10327
   10328   10329   10331   10332   10333   10334   10338   10339   10340   10327
   10325   10326   10330   10335   10336   10337   10341   10342   10343   10330
   10330       0   10329   10331   10332   10333   10334   10338   10339   10344
   10331   10332   10333   10334   10338   10340   10344   10335   10336   10337
   10341   10342   10343   10345   10346   10347   10332   10333   10338   10339
   10340   10344   10338   10339   10334   10338   10339   10340   10344   10338
   10340   10336   10337   10341   10342   10343   10345   10346   10347   10348
   10349   10350   10337   10341   10342   10343   10341   10342   10343   10339
   10340   10344   10344   10344   10342   10343   10345   10346   10347   10348
   10349   10350   10351   10352   10353   10343   10345   10346   10347   10345
   10346   10347       0   10346   10347   10348   10349   10350   10351   10352
   10353   10354   10355   10356   10347   10348   10349   10350   10348   10349
   10350   10349   10350   10351   10352   10353   10354   10355   10356   10357
   10358   10359   10350   10351   10352   10353   10351   10352   10353   10352
   10353   10354   10355   10356   10357   10358   10359   10360   10361   10362
   10353   10354   10355   10356   10354   10355   10356   10355   10356   10357
   10358   10359   10360   10361   10362   10363   10364   10365   10356   10357
   10358   10359   10357   10358   10359   10358   10359   10360   10361   10362
   10359   10360   10361   10362   10360   10361   10362   10363   10364   10365
   10366   10367   10368   10361   10362   10363   10364   10365   10366   10367
   10368   10362   10363   10364   10365   10363   10364   10365   10364   10365
   10366   10367   10368   10365   10366   10367   10368   10366   10367   10368
   10367   10368   10368       0   10370   10371   10372   10373   10374   10375
   10376   10377   10378   10379   10380   10381   10371   10372   10373   10374
   10375   10376   10377   10378   10381   10382   10383   10384   10372   10373
   10374   10375   10378   10379   10380   10381   10385   10386   10387   10373
   10375   10376   10377   10378   10382   10383   10384   10388   10389   10390
   10374   10375   10376   10377   10378   10381   10384   10385   10387   10375
   10379   10380   10381   10385   10386   10391   10392   10393   10377   10378
   10379   10380   10381   10385   10387   10391   10377   10378   10382   10383
   10384   10388   10389   10394   10378   10382   10383   10384   10388   10390
   10394   10381   10384   10388   10390   10380   10381   10385   10386   10387
   10391   10392   10393   10395   10396   10397   10398   10385   10386   10385
   10386   10387   10391   10383   10384   10388   10389   10390   10394   10399
   10400   10401   10388   10389   10388   10389   10390   10394   10399   10400
   10401   10386   10387   10391   10392   10393   10391   10392   10393   10395
   10396   10397   10398   10402   10403   10404   10391   10389   10390   10394
   10399   10400   10401   10405   10406   10407   10394   10394       0   10393
   10395   10396   10397   10398   10402   10403   10408   10395   10396   10397
   10398   10402   10404   10408   10399   10400   10401   10405   10406   10407
   10409   10410   10411   10396   10397   10402   10403   10404   10408   10402
   10403   10398   10402   10403   10404   10408   10402   10404   10400   10401
   10405   10406   10407   10409   10410   10411   10412   10413   10414   10401
   10405   10406   10407   10405   10406   10407   10403   10404   10408   10408
   10408   10406   10407   10409   10410   10411   10412   10413   10414   10415
   10416   10417   10407   10409   10410   10411   10409   10410   10411       0
   10410   10411   10412   10413   10414   10415   10416   10417   10418   10419
   10420   10411   10412   10413   10414   10412   10413   10414   10413   10414
   10415   10416   10417   10418   10419   10420   10421   10422   10423   10414
   10415   10416   10417   10415   10416   10417   10416   10417   10418   10419
   10420   10421   10422   10423   10424   10425   10426   10417   10418   10419
   10420   10418   10419   10420   10419   10420   10421   10422   10423   10424
   10425   10426   10427   10428   10429   10420   10421   10422   10423   10421
   10422   10423   10422   10423   10424   10425   10426   10423   10424   10425
   10426   10424   10425   10426   10427   10428   10429   10430   10431   10432
   10425   10426   10427   10428   10429   10430   10431   10432   10426   10427
   10428   10429   10427   10428   10429   10428   10429   10430   10431   10432
   10429   10430   10431   10432   10430   10431   10432   10431   10432   10432
       0   10434   10435   10436   10437   10438   10439   10440   10441   10442
   10443   10444   10445   10435   10436   10437   10438   10439   10440   10441
   10442   10445   10446   10447   10448   10436   10437   10438   10439   10442
   10443   10444   10445   10449   10450   10451   10437   10439   10440   10441
   10442   10446   10447   10448   10452   10453   10454   10438   10439   10440
   10441   10442   10445   10448   10449   10451   10439   10443   10444   10445
   10449   10450   10455   10456   10457   10441   10442   10443   10444   10445
   10449   10451   10455   10441   10442   10446   10447   10448   10452   10453
   10458   10442   10446   10447   10448   10452   10454   10458   10445   10448
   10452   10454   10444   10445   10449   10450   10451   10455   10456   10457
   10459   10460   10461   10462   10449   10450   10449   10450   10451   10455
   10447   10448   10452   10453   10454   10458   10463   10464   10465   10452
   10453   10452   10453   10454   10458   10463   10464   10465   10450   10451
   10455   10456   10457   10455   10456   10457   10459   10460   10461   10462
   10466   10467   10468   10455   10453   10454   10458   10463   10464   10465
   10469   10470   10471   10458   10458       0   10457   10459   10460   10461
   10462   10466   10467   10472   10459   10460   10461   10462   10466   10468
   10472   10463   10464   10465   10469   10470   10471   10473   10474   10475
   10460   10461   10466   10467   10468   10472   10466   10467   10462   10466
   10467   10468   10472   10466   10468   10464   10465   10469   10470   10471
   10473   10474   10475   10476   10477   10478   10465   10469   10470   10471
   10469   10470   10471   10467   10468   10472   10472   10472   10470   10471
   10473   10474   10475   10476   10477   10478   10479   10480   10481   10471
   10473   10474   10475   10473   10474   10475       0   10474   10475   10476
   10477   10478   10479   10480   10481   10482   10483   10484   10475   10476
   10477   10478   10476   10477   10478   10477   10478   10479   10480   10481
   10482   10483   10484   10485   10486   10487   10478   10479   10480   10481
   10479   10480   10481   10480   10481   10482   10483   10484   10485   10486
   10487   10488   10489   10490   10481   10482   10483   10484   10482   10483
   10484   10483   10484   10485   10486   10487   10488   10489   10490   10491
   10492   10493   10484   10485   10486   10487   10485   10486   10487   10486
   10487   10488   10489   10490   10487   10488   10489   10490   10488   10489
   10490   10491   10492   10493   10494   10495   10496   10489   10490   10491
   10492   10493   10494   10495   10496   10490   10491   10492   10493   10491
   10492   10493   10492   10493   10494   10495   10496   10493   10494   10495
   10496   10494   10495   10496   10495   10496   10496       0   10498   10499
   10500   10501   10502   10503   10504   10505   10506   10507   10508   10509
   10499   10500   10501   10502   10503   10504   10505   10506   10509   10510
   10511   10512   10500   10501   10502   10503   10506   10507   10508   10509
   10513   10514   10515   10501   10503   10504   10505   10506   10510   10511
   10512   10516   10517   10518   10502   10503   10504   10505   10506   10509
   10512   10513   10515   10503   10507   10508   10509   10513   10514   10519
   10520   10521   10505   10506   10507   10508   10509   10513   10515   10519
   10505   10506   10510   10511   10512   10516   10517   10522   10506   10510
   10511   10512   10516   10518   10522   10509   10512   10516   10518   10508
   10509   10513   10514   10515   10519   10520   10521   10523   10524   10525
   10526   10513   10514   10513   10514   10515   10519   10511   10512   10516
   10517   10518   10522   10527   10528   10529   10516   10517   10516   10517
   10518   10522   10527   10528   10529   10514   10515   10519   10520   10521
   10519   10520   10521   10523   10524   10525   10526   10530   10531   10532
   10519   10517   10518   10522   10527   10528   10529   10533   10534   10535
   10522   10522       0   10521   10523   10524   10525   10526   10530   10531
   10536   10523   10524   10525   10526   10530   10532   10536   10527   10528
   10529   10533   10534   10535   10537   10538   10539   10524   10525   10530
   10531   10532   10536   10530   10531   10526   10530   10531   10532   10536
   10530   10532   10528   10529   10533   10534   10535   10537   10538   10539
   10540   10541   10542   10529   10533   10534   10535   10533   10534   10535
   10531   10532   10536   10536   10536   10534   10535   10537   10538   10539
   10540   10541   10542   10543   10544   10545   10535   10537   10538   10539
   10537   10538   10539       0   10538   10539   10540   10541   10542   10543
   10544   10545   10546   10547   10548   10539   10540   10541   10542   10540
   10541   10542   10541   10542   10543   10544   10545   10546   10547   10548
   10549   10550   10551   10542   10543   10544   10545   10543   10544   10545
   10544   10545   10546   10547   10548   10549   10550   10551   10552   10553
   10554   10545   10546   10547   10548   10546   10547   10548   10547   10548
   10549   10550   10551   10552   10553   10554   10555   10556   10557   10548
   10549   10550   10551   10549   10550   10551   10550   10551   10552   10553
   10554   10551   10552   10553   10554   10552   10553   10554   10555   10556
   10557   10558   10559   10560   10553   10554   10555   10556   10557   10558
   10559   10560   10554   10555   10556   10557   10555   10556   10557   10556
   10557   10558   10559   10560   10557   10558   10559   10560   10558   10559
   10560   10559   10560   10560       0   10562   10563   10564   10565   10566
   10567   10568   10569   10570   10571   10572   10573   10563   10564   10565
   10566   10567   10568   10569   10570   10573   10574   10575   10576   10564
   10565   10566   10567   10570   10571   10572   10573   10577   10578   10579
   10565   10567   10568   10569   10570   10574   10575   10576   10580   10581
   10582   10566   10567   10568   10569   10570   10573   10576   10577   10579
   10567   10571   10572   10573   10577   10578   10583   10584   10585   10569
   10570   10571   10572   10573   10577   10579   10583   10569   10570   10574
   10575   10576   10580   10581   10586   10570   10574   10575   10576   10580
   10582   10586   10573   10576   10580   10582   10572   10573   10577   10578
   10579   10583   10584   10585   10587   10588   10589   10590   10577   10578
   10577   10578   10579   10583   10575   10576   10580   10581   10582   10586
   10591   10592   10593   10580   10581   10580   10581   10582   10586   10591
   10592   10593   10578   10579   10583   10584   10585   10583   10584   10585
   10587   10588   10589   10590   10594   10595   10596   10583   10581   10582
   10586   10591   10592   10593   10597   10598   10599   10586   10586       0
   10585   10587   10588   10589   10590   10594   10595   10600   10587   10588
   10589   10590   10594   10596   10600   10591   10592   10593   10597   10598
   10599   10601   10602   10603   10588   10589   10594   10595   10596   10600
   10594   10595   10590   10594   10595   10596   10600   10594   10596   10592
   10593   10597   10598   10599   10601   10602   10603   10604   10605   10606
   10593   10597   10598   10599   10597   10598   10599   10595   10596   10600
   10600   10600   10598   10599   10601   10602   10603   10604   10605   10606
   10607   10608   10609   10599   10601   10602   10603   10601   10602   10603
       0   10602   10603   10604   10605   10606   10607   10608   10609   10610
   10611   10612   10603   10604   10605   10606   10604   10605   10606   10605
   10606   10607   10608   10609   10610   10611   10612   10613   10614   10615
   10606   10607   10608   10609   10607   10608   10609   10608   10609   10610
   10611   10612   10613   10614   10615   10616   10617   10618   10609   10610
   10611   10612   10610   10611   10612   10611   10612   10613   10614   10615
   10616   10617   10618   10619   10620   10621   10612   10613   10614   10615
   10613   10614   10615   10614   10615   10616   10617   10618   10615   10616
   10617   10618   10616   10617   10618   10619   10620   10621   10622   10623
   10624   10617   10618   10619   10620   10621   10622   10623   10624   10618
   10619   10620   10621   10619   10620   10621   10620   10621   10622   10623
   10624   10621   10622   10623   10624   10622   10623   10624   10623   10624
   10624       0   10626   10627   10628   10629   10630   10631   10632   10633
   10634   10635   10636   10637   10627   10628   10629   10630   10631   10632
   10633   10634   10637   10638   10639   10640   10628   10629   10630   10631
   10634   10635   10636   10637   10641   10642   10643   10629   10631   10632
   10633   10634   10638   10639   10640   10644   10645   10646   10630   10631
   10632   10633   10634   10637   10640   10641   10643   10631   10635   10636
   10637   10641   10642   10647   10648   10649   10633   10634   10635   10636
   10637   10641   10643   10647   10633   10634   10638   10639   10640   10644
   10645   10650   10634   10638   10639   10640   10644   10646   10650   10637
   10640   10644   10646   10636   10637   10641   10642   10643   10647   10648
   10649   10651   10652   10653   10654   10641   10642   10641   10642   10643
   10647   10639   10640   10644   10645   10646   10650   10655   10656   10657
   10644   10645   10644   10645   10646   10650   10655   10656   10657   10642
   10643   10647   10648   10649   10647   10648   10649   10651   10652   10653
   10654   10658   10659   10660   10647   10645   10646   10650   10655   10656
   10657   10661   10662   10663   10650   10650       0   10649   10651   10652
   10653   10654   10658   10659   10664   10651   10652   10653   10654   10658
   10660   10664   10655   10656   10657   10661   10662   10663   10665   10666
   10667   10652   10653   10658   10659   10660   10664   10658   10659   10654
   10658   10659   10660   10664   10658   10660   10656   10657   10661   10662
   10663   10665   10666   10667   10668   10669   10670   10657   10661   10662
   10663   10661   10662   10663   10659   10660   10664   10664   10664   10662
   10663   10665   10666   10667   10668   10669   10670   10671   10672   10673
   10663   10665   10666   10667   10665   10666   10667       0   10666   10667
   10668   10669   10670   10671   10672   10673   10674   10675   10676   10667
   10668   10669   10670   10668   10669   10670   10669   10670   10671   10672
   10673   10674   10675   10676   10677   10678   10679   10670   10671   10672
   10673   10671   10672   10673   10672   10673   10674   10675   10676   10677
   10678   10679   10680   10681   10682   10673   10674   10675   10676   10674
   10675   10676   10675   10676   10677   10678   10679   10680   10681   10682
   10683   10684   10685   10676   10677   10678   10679   10677   10678   10679
   10678   10679   10680   10681   10682   10679   10680   10681   10682   10680
   10681   10682   10683   10684   10685   10686   10687   10688   10681   10682
   10683   10684   10685   10686   10687   10688   10682   10683   10684   10685
   10683   10684   10685   10684   10685   10686   10687   10688   10685   10686
   10687   10688   10686   10687   10688   10687   10688   10688       0   10690
   10691   10692   10693   10694   10695   10696   10697   10698   10699   10700
   10701   10691   10692   10693   10694   10695   10696   10697   10698   10701
   10702   10703   10704   10692   10693   10694   10695   10698   10699   10700
   10701   10705   10706   10707   10693   10695   10696   10697   10698   10702
   10703   10704   10708   10709   10710   10694   10695   10696   10697   10698
   10701   10704   10705   10707   10695   10699   10700   10701   10705   10706
   10711   10712   10713   10697   10698   10699   10700   10701   10705   10707
   10711   10697   10698   10702   10703   10704   10708   10709   10714   10698
   10702   10703   10704   10708   10710   10714   10701   10704   10708   10710
   10700   10701   10705   10706   10707   10711   10712   10713   10715   10716
   10717   10718   10705   10706   10705   10706   10707   10711   10703   10704
   10708   10709   10710   10714   10719   10720   10721   10708   10709   10708
   10709   10710   10714   10719   10720   10721   10706   10707   10711   10712
   10713   10711   10712   10713   10715   10716   10717   10718   10722   10723
   10724   10711   10709   10710   10714   10719   10720   10721   10725   10726
   10727   10714   10714       0   10713   10715   10716   10717   10718   10722
   10723   10728   10715   10716   10717   10718   10722   10724   10728   10719
   10720   10721   10725   10726   10727   10729   10730   10731   10716   10717
   10722   10723   10724   10728   10722   10723   10718   10722   10723   10724
   10728   10722   10724   10720   10721   10725   10726   10727   10729   10730
   10731   10732   10733   10734   10721   10725   10726   10727   10725   10726
   10727   10723   10724   10728   10728   10728   10726   10727   10729   10730
   10731   10732   10733   10734   10735   10736   10737   10727   10729   10730
   10731   10729   10730   10731       0   10730   10731   10732   10733   10734
   10735   10736   10737   10738   10739   10740   10731   10732   10733   10734
   10732   10733   10734   10733   10734   10735   10736   10737   10738   10739
   10740   10741   10742   10743   10734   10735   10736   10737   10735   10736
   10737   10736   10737   10738   10739   10740   10741   10742   10743   10744
   10745   10746   10737   10738   10739   10740   10738   10739   10740   10739
   10740   10741   10742   10743   10744   10745   10746   10747   10748   10749
   10740   10741   10742   10743   10741   10742   10743   10742   10743   10744
   10745   10746   10743   10744   10745   10746   10744   10745   10746   10747
   10748   10749   10750   10751   10752   10745   10746   10747   10748   10749
   10750   10751   10752   10746   10747   10748   10749   10747   10748   10749
   10748   10749   10750   10751   10752   10749   10750   10751   10752   10750
   10751   10752   10751   10752   10752       0   10754   10755   10756   10757
   10758   10759   10760   10761   10762   10763   10764   10765   10755   10756
   10757   10758   10759   10760   10761   10762   10765   10766   10767   10768
   10756   10757   10758   10759   10762   10763   10764   10765   10769   10770
   10771   10757   10759   10760   10761   10762   10766   10767   10768   10772
   10773   10774   10758   10759   10760   10761   10762   10765   10768   10769
   10771   10759   10763   10764   10765   10769   10770   10775   10776   10777
   10761   10762   10763   10764   10765   10769   10771   10775   10761   10762
   10766   10767   10768   10772   10773   10778   10762   10766   10767   10768
   10772   10774   10778   10765   10768   10772   10774   10764   10765   10769
   10770   10771   10775   10776   10777   10779   10780   10781   10782   10769
   10770   10769   10770   10771   10775   10767   10768   10772   10773   10774
   10778   10783   10784   10785   10772   10773   10772   10773   10774   10778
   10783   10784   10785   10770   10771   10775   10776   10777   10775   10776
   10777   10779   10780   10781   10782   10786   10787   10788   10775   10773
   10774   10778   10783   10784   10785   10789   10790   10791   10778   10778
       0   10777   10779   10780   10781   10782   10786   10787   10792   10779
   10780   10781   10782   10786   10788   10792   10783   10784   10785   10789
   10790   10791   10793   10794   10795   10780   10781   10786   10787   10788
   10792   10786   10787   10782   10786   10787   10788   10792   10786   10788
   10784   10785   10789   10790   10791   10793   10794   10795   10796   10797
   10798   10785   10789   10790   10791   10789   10790   10791   10787   10788
   10792   10792   10792   10790   10791   10793   10794   10795   10796   10797
   10798   10799   10800   10801   10791   10793   10794   10795   10793   10794
   10795       0   10794   10795   10796   10797   10798   10799   10800   10801
   10802   10803   10804   10795   10796   10797   10798   10796   10797   10798
   10797   10798   10799   10800   10801   10802   10803   10804   10805   10806
   10807   10798   10799   10800   10801   10799   10800   10801   10800   10801
   10802   10803   10804   10805   10806   10807   10808   10809   10810   10801
   10802   10803   10804   10802   10803   10804   10803   10804   10805   10806
   10807   10808   10809   10810   10811   10812   10813   10804   10805   10806
   10807   10805   10806   10807   10806   10807   10808   10809   10810   10807
   10808   10809   10810   10808   10809   10810   10811   10812   10813   10814
   10815   10816   10809   10810   10811   10812   10813   10814   10815   10816
   10810   10811   10812   10813   10811   10812   10813   10812   10813   10814
   10815   10816   10813   10814   10815   10816   10814   10815   10816   10815
   10816   10816       0   10818   10819   10820   10821   10822   10823   10824
   10825   10826   10827   10828   10829   10819   10820   10821   10822   10823
   10824   10825   10826   10829   10830   10831   10832   10820   10821   10822
   10823   10826   10827   10828   10829   10833   10834   10835   10821   10823
   10824   10825   10826   10830   10831   10832   10836   10837   10838   10822
   10823   10824   10825   10826   10829   10832   10833   10835   10823   10827
   10828   10829   10833   10834   10839   10840   10841   10825   10826   10827
   10828   10829   10833   10835   10839   10825   10826   10830   10831   10832
   10836   10837   10842   10826   10830   10831   10832   10836   10838   10842
   10829   10832   10836   10838   10828   10829   10833   10834   10835   10839
   10840   10841   10843   10844   10845   10846   10833   10834   10833   10834
   10835   10839   10831   10832   10836   10837   10838   10842   10847   10848
   10849   10836   10837   10836   10837   10838   10842   10847   10848   10849
   10834   10835   10839   10840   10841   10839   10840   10841   10843   10844
   10845   10846   10850   10851   10852   10839   10837   10838   10842   10847
   10848   10849   10853   10854   10855   10842   10842       0   10841   10843
   10844   10845   10846   10850   10851   10856   10843   10844   10845   10846
   10850   10852   10856   10847   10848   10849   10853   10854   10855   10857
   10858   10859   10844   10845   10850   10851   10852   10856   10850   10851
   10846   10850   10851   10852   10856   10850   10852   10848   10849   10853
   10854   10855   10857   10858   10859   10860   10861   10862   10849   10853
   10854   10855   10853   10854   10855   10851   10852   10856   10856   10856
   10854   10855   10857   10858   10859   10860   10861   10862   10863   10864
   10865   10855   10857   10858   10859   10857   10858   10859       0   10858
   10859   10860   10861   10862   10863   10864   10865   10866   10867   10868
   10859   10860   10861   10862   10860   10861   10862   10861   10862   10863
   10864   10865   10866   10867   10868   10869   10870   10871   10862   10863
   10864   10865   10863   10864   10865   10864   10865   10866   10867   10868
   10869   10870   10871   10872   10873   10874   10865   10866   10867   10868
   10866   10867   10868   10867   10868   10869   10870   10871   10872   10873
   10874   10875   10876   10877   10868   10869   10870   10871   10869   10870
   10871   10870   10871   10872   10873   10874   10871   10872   10873   10874
   10872   10873   10874   10875   10876   10877   10878   10879   10880   10873
   10874   10875   10876   10877   10878   10879   10880   10874   10875   10876
   10877   10875   10876   10877   10876   10877   10878   10879   10880   10877
   10878   10879   10880   10878   10879   10880   10879   10880   10880       0
   10882   10883   10884   10885   10886   10887   10888   10889   10890   10891
   10892   10893   10883   10884   10885   10886   10887   10888   10889   10890
   10893   10894   10895   10896   10884   10885   10886   10887   10890   10891
   10892   10893   10897   10898   10899   10885   10887   10888   10889   10890
   10894   10895   10896   10900   10901   10902   10886   10887   10888   10889
   10890   10893   10896   10897   10899   10887   10891   10892   10893   10897
   10898   10903   10904   10905   10889   10890   10891   10892   10893   10897
   10899   10903   10889   10890   10894   10895   10896   10900   10901   10906
   10890   10894   10895   10896   10900   10902   10906   10893   10896   10900
   10902   10892   10893   10897   10898   10899   10903   10904   10905   10907
   10908   10909   10910   10897   10898   10897   10898   10899   10903   10895
   10896   10900   10901   10902   10906   10911   10912   10913   10900   10901
   10900   10901   10902   10906   10911   10912   10913   10898   10899   10903
   10904   10905   10903   10904   10905   10907   10908   10909   10910   10914
   10915   10916   10903   10901   10902   10906   10911   10912   10913   10917
   10918   10919   10906   10906       0   10905   10907   10908   10909   10910
   10914   10915   10920   10907   10908   10909   10910   10914   10916   10920
   10911   10912   10913   10917   10918   10919   10921   10922   10923   10908
   10909   10914   10915   10916   10920   10914   10915   10910   10914   10915
   10916   10920   10914   10916   10912   10913   10917   10918   10919   10921
   10922   10923   10924   10925   10926   10913   10917   10918   10919   10917
   10918   10919   10915   10916   10920   10920   10920   10918   10919   10921
   10922   10923   10924   10925   10926   10927   10928   10929   10919   10921
   10922   10923   10921   10922   10923       0   10922   10923   10924   10925
   10926   10927   10928   10929   10930   10931   10932   10923   10924   10925
   10926   10924   10925   10926   10925   10926   10927   10928   10929   10930
   10931   10932   10933   10934   10935   10926   10927   10928   10929   10927
   10928   10929   10928   10929   10930   10931   10932   10933   10934   10935
   10936   10937   10938   10929   10930   10931   10932   10930   10931   10932
   10931   10932   10933   10934   10935   10936   10937   10938   10939   10940
   10941   10932   10933   10934   10935   10933   10934   10935   10934   10935
   10936   10937   10938   10935   10936   10937   10938   10936   10937   10938
   10939   10940   10941   10942   10943   10944   10937   10938   10939   10940
   10941   10942   10943   10944   10938   10939   10940   10941   10939   10940
   10941   10940   10941   10942   10943   10944   10941   10942   10943   10944
   10942   10943   10944   10943   10944   10944       0   10946   10947   10948
   10949   10950   10951   10952   10953   10954   10955   10956   10957   10947
   10948   10949   10950   10951   10952   10953   10954   10957   10958   10959
   10960   10948   10949   10950   10951   10954   10955   10956   10957   10961
   10962   10963   10949   10951   10952   10953   10954   10958   10959   10960
   10964   10965   10966   10950   10951   10952   10953   10954   10957   10960
   10961   10963   10951   10955   10956   10957   10961   10962   10967   10968
   10969   10953   10954   10955   10956   10957   10961   10963   10967   10953
   10954   10958   10959   10960   10964   10965   10970   10954   10958   10959
   10960   10964   10966   10970   10957   10960   10964   10966   10956   10957
   10961   10962   10963   10967   10968   10969   10971   10972   10973   10974
   10961   10962   10961   10962   10963   10967   10959   10960   10964   10965
   10966   10970   10975   10976   10977   10964   10965   10964   10965   10966
   10970   10975   10976   10977   10962   10963   10967   10968   10969   10967
   10968   10969   10971   10972   10973   10974   10978   10979   10980   10967
   10965   10966   10970   10975   10976   10977   10981   10982   10983   10970
   10970       0   10969   10971   10972   10973   10974   10978   10979   10984
   10971   10972   10973   10974   10978   10980   10984   10975   10976   10977
   10981   10982   10983   10985   10986   10987   10972   10973   10978   10979
   10980   10984   10978   10979   10974   10978   10979   10980   10984   10978
   10980   10976   10977   10981   10982   10983   10985   10986   10987   10988
   10989   10990   10977   10981   10982   10983   10981   10982   10983   10979
   10980   10984   10984   10984   10982   10983   10985   10986   10987   10988
   10989   10990   10991   10992   10993   10983   10985   10986   10987   10985
   10986   10987       0   10986   10987   10988   10989   10990   10991   10992
   10993   10994   10995   10996   10987   10988   10989   10990   10988   10989
   10990   10989   10990   10991   10992   10993   10994   10995   10996   10997
   10998   10999   10990   10991   10992   10993   10991   10992   10993   10992
   10993   10994   10995   10996   10997   10998   10999   11000   11001   11002
   10993   10994   10995   10996   10994   10995   10996   10995   10996   10997
   10998   10999   11000   11001   11002   11003   11004   11005   10996   10997
   10998   10999   10997   10998   10999   10998   10999   11000   11001   11002
   10999   11000   11001   11002   11000   11001   11002   11003   11004   11005
   11006   11007   11008   11001   11002   11003   11004   11005   11006   11007
   11008   11002   11003   11004   11005   11003   11004   11005   11004   11005
   11006   11007   11008   11005   11006   11007   11008   11006   11007   11008
   11007   11008   11008       0   11010   11011   11012   11013   11014   11015
   11016   11017   11018   11019   11020   11021   11011   11012   11013   11014
   11015   11016   11017   11018   11021   11022   11023   11024   11012   11013
   11014   11015   11018   11019   11020   11021   11025   11026   11027   11013
   11015   11016   11017   11018   11022   11023   11024   11028   11029   11030
   11014   11015   11016   11017   11018   11021   11024   11025   11027   11015
   11019   11020   11021   11025   11026   11031   11032   11033   11017   11018
   11019   11020   11021   11025   11027   11031   11017   11018   11022   11023
   11024   11028   11029   11034   11018   11022   11023   11024   11028   11030
   11034   11021   11024   11028   11030   11020   11021   11025   11026   11027
   11031   11032   11033   11035   11036   11037   11038   11025   11026   11025
   11026   11027   11031   11023   11024   11028   11029   11030   11034   11039
   11040   11041   11028   11029   11028   11029   11030   11034   11039   11040
   11041   11026   11027   11031   11032   11033   11031   11032   11033   11035
   11036   11037   11038   11042   11043   11044   11031   11029   11030   11034
   11039   11040   11041   11045   11046   11047   11034   11034       0   11033
   11035   11036   11037   11038   11042   11043   11048   11035   11036   11037
   11038   11042   11044   11048   11039   11040   11041   11045   11046   11047
   11049   11050   11051   11036   11037   11042   11043   11044   11048   11042
   11043   11038   11042   11043   11044   11048   11042   11044   11040   11041
   11045   11046   11047   11049   11050   11051   11052   11053   11054   11041
   11045   11046   11047   11045   11046   11047   11043   11044   11048   11048
   11048   11046   11047   11049   11050   11051   11052   11053   11054   11055
   11056   11057   11047   11049   11050   11051   11049   11050   11051       0
   11050   11051   11052   11053   11054   11055   11056   11057   11058   11059
   11060   11051   11052   11053   11054   11052   11053   11054   11053   11054
   11055   11056   11057   11058   11059   11060   11061   11062   11063   11054
   11055   11056   11057   11055   11056   11057   11056   11057   11058   11059
   11060   11061   11062   11063   11064   11065   11066   11057   11058   11059
   11060   11058   11059   11060   11059   11060   11061   11062   11063   11064
   11065   11066   11067   11068   11069   11060   11061   11062   11063   11061
   11062   11063   11062   11063   11064   11065   11066   11063   11064   11065
   11066   11064   11065   11066   11067   11068   11069   11070   11071   11072
   11065   11066   11067   11068   11069   11070   11071   11072   11066   11067
   11068   11069   11067   11068   11069   11068   11069   11070   11071   11072
   11069   11070   11071   11072   11070   11071   11072   11071   11072   11072
       0   11074   11075   11076   11077   11078   11079   11080   11081   11082
   11083   11084   11085   11075   11076   11077   11078   11079   11080   11081
   11082   11085   11086   11087   11088   11076   11077   11078   11079   11082
   11083   11084   11085   11089   11090   11091   11077   11079   11080   11081
   11082   11086   11087   11088   11092   11093   11094   11078   11079   11080
   11081   11082   11085   11088   11089   11091   11079   11083   11084   11085
   11089   11090   11095   11096   11097   11081   11082   11083   11084   11085
   11089   11091   11095   11081   11082   11086   11087   11088   11092   11093
   11098   11082   11086   11087   11088   11092   11094   11098   11085   11088
   11092   11094   11084   11085   11089   11090   11091   11095   11096   11097
   11099   11100   11101   11102   11089   11090   11089   11090   11091   11095
   11087   11088   11092   11093   11094   11098   11103   11104   11105   11092
   11093   11092   11093   11094   11098   11103   11104   11105   11090   11091
   11095   11096   11097   11095   11096   11097   11099   11100   11101   11102
   11106   11107   11108   11095   11093   11094   11098   11103   11104   11105
   11109   11110   11111   11098   11098       0   11097   11099   11100   11101
   11102   11106   11107   11112   11099   11100   11101   11102   11106   11108
   11112   11103   11104   11105   11109   11110   11111   11113   11114   11115
   11100   11101   11106   11107   11108   11112   11106   11107   11102   11106
   11107   11108   11112   11106   11108   11104   11105   11109   11110   11111
   11113   11114   11115   11116   11117   11118   11105   11109   11110   11111
   11109   11110   11111   11107   11108   11112   11112   11112   11110   11111
   11113   11114   11115   11116   11117   11118   11119   11120   11121   11111
   11113   11114   11115   11113   11114   11115       0   11114   11115   11116
   11117   11118   11119   11120   11121   11122   11123   11124   11115   11116
   11117   11118   11116   11117   11118   11117   11118   11119   11120   11121
   11122   11123   11124   11125   11126   11127   11118   11119   11120   11121
   11119   11120   11121   11120   11121   11122   11123   11124   11125   11126
   11127   11128   11129   11130   11121   11122   11123   11124   11122   11123
   11124   11123   11124   11125   11126   11127   11128   11129   11130   11131
   11132   11133   11124   11125   11126   11127   11125   11126   11127   11126
   11127   11128   11129   11130   11127   11128   11129   11130   11128   11129
   11130   11131   11132   11133   11134   11135   11136   11129   11130   11131
   11132   11133   11134   11135   11136   11130   11131   11132   11133   11131
   11132   11133   11132   11133   11134   11135   11136   11133   11134   11135
   11136   11134   11135   11136   11135   11136   11136       0   11138   11139
   11140   11141   11142   11143   11144   11145   11146   11147   11148   11149
   11139   11140   11141   11142   11143   11144   11145   11146   11149   11150
   11151   11152   11140   11141   11142   11143   11146   11147   11148   11149
   11153   11154   11155   11141   11143   11144   11145   11146   11150   11151
   11152   11156   11157   11158   11142   11143   11144   11145   11146   11149
   11152   11153   11155   11143   11147   11148   11149   11153   11154   11159
   11160   11161   11145   11146   11147   11148   11149   11153   11155   11159
   11145   11146   11150   11151   11152   11156   11157   11162   11146   11150
   11151   11152   11156   11158   11162   11149   11152   11156   11158   11148
   11149   11153   11154   11155   11159   11160   11161   11163   11164   11165
   11166   11153   11154   11153   11154   11155   11159   11151   11152   11156
   11157   11158   11162   11167   11168   11169   11156   11157   11156   11157
   11158   11162   11167   11168   11169   11154   11155   11159   11160   11161
   11159   11160   11161   11163   11164   11165   11166   11170   11171   11172
   11159   11157   11158   11162   11167   11168   11169   11173   11174   11175
   11162   11162       0   11161   11163   11164   11165   11166   11170   11171
   11176   11163   11164   11165   11166   11170   11172   11176   11167   11168
   11169   11173   11174   11175   11177   11178   11179   11164   11165   11170
   11171   11172   11176   11170   11171   11166   11170   11171   11172   11176
   11170   11172   11168   11169   11173   11174   11175   11177   11178   11179
   11180   11181   11182   11169   11173   11174   11175   11173   11174   11175
   11171   11172   11176   11176   11176   11174   11175   11177   11178   11179
   11180   11181   11182   11183   11184   11185   11175   11177   11178   11179
   11177   11178   11179       0   11178   11179   11180   11181   11182   11183
   11184   11185   11186   11187   11188   11179   11180   11181   11182   11180
   11181   11182   11181   11182   11183   11184   11185   11186   11187   11188
   11189   11190   11191   11182   11183   11184   11185   11183   11184   11185
   11184   11185   11186   11187   11188   11189   11190   11191   11192   11193
   11194   11185   11186   11187   11188   11186   11187   11188   11187   11188
   11189   11190   11191   11192   11193   11194   11195   11196   11197   11188
   11189   11190   11191   11189   11190   11191   11190   11191   11192   11193
   11194   11191   11192   11193   11194   11192   11193   11194   11195   11196
   11197   11198   11199   11200   11193   11194   11195   11196   11197   11198
   11199   11200   11194   11195   11196   11197   11195   11196   11197   11196
   11197   11198   11199   11200   11197   11198   11199   11200   11198   11199
   11200   11199   11200   11200       0   11202   11203   11204   11205   11206
   11207   11208   11209   11210   11211   11212   11213   11203   11204   11205
   11206   11207   11208   11209   11210   11213   11214   11215   11216   11204
   11205   11206   11207   11210   11211   11212   11213   11217   11218   11219
   11205   11207   11208   11209   11210   11214   11215   11216   11220   11221
   11222   11206   11207   11208   11209   11210   11213   11216   11217   11219
   11207   11211   11212   11213   11217   11218   11223   11224   11225   11209
   11210   11211   11212   11213   11217   11219   11223   11209   11210   11214
   11215   11216   11220   11221   11226   11210   11214   11215   11216   11220
   11222   11226   11213   11216   11220   11222   11212   11213   11217   11218
   11219   11223   11224   11225   11227   11228   11229   11230   11217   11218
   11217   11218   11219   11223   11215   11216   11220   11221   11222   11226
   11231   11232   11233   11220   11221   11220   11221   11222   11226   11231
   11232   11233   11218   11219   11223   11224   11225   11223   11224   11225
   11227   11228   11229   11230   11234   11235   11236   11223   11221   11222
   11226   11231   11232   11233   11237   11238   11239   11226   11226       0
   11225   11227   11228   11229   11230   11234   11235   11240   11227   11228
   11229   11230   11234   11236   11240   11231   11232   11233   11237   11238
   11239   11241   11242   11243   11228   11229   11234   11235   11236   11240
   11234   11235   11230   11234   11235   11236   11240   11234   11236   11232
   11233   11237   11238   11239   11241   11242   11243   11244   11245   11246
   11233   11237   11238   11239   11237   11238   11239   11235   11236   11240
   11240   11240   11238   11239   11241   11242   11243   11244   11245   11246
   11247   11248   11249   11239   11241   11242   11243   11241   11242   11243
       0   11242   11243   11244   11245   11246   11247   11248   11249   11250
   11251   11252   11243   11244   11245   11246   11244   11245   11246   11245
   11246   11247   11248   11249   11250   11251   11252   11253   11254   11255
   11246   11247   11248   11249   11247   11248   11249   11248   11249   11250
   11251   11252   11253   11254   11255   11256   11257   11258   11249   11250
   11251   11252   11250   11251   11252   11251   11252   11253   11254   11255
   11256   11257   11258   11259   11260   11261   11252   11253   11254   11255
   11253   11254   11255   11254   11255   11256   11257   11258   11255   11256
   11257   11258   11256   11257   11258   11259   11260   11261   11262   11263
   11264   11257   11258   11259   11260   11261   11262   11263   11264   11258
   11259   11260   11261   11259   11260   11261   11260   11261   11262   11263
   11264   11261   11262   11263   11264   11262   11263   11264   11263   11264
   11264       0   11266   11267   11268   11269   11270   11271   11272   11273
   11274   11275   11276   11277   11267   11268   11269   11270   11271   11272
   11273   11274   11277   11278   11279   11280   11268   11269   11270   11271
   11274   11275   11276   11277   11281   11282   11283   11269   11271   11272
   11273   11274   11278   11279   11280   11284   11285   11286   11270   11271
   11272   11273   11274   11277   11280   11281   11283   11271   11275   11276
   11277   11281   11282   11287   11288   11289   11273   11274   11275   11276
   11277   11281   11283   11287   11273   11274   11278   11279   11280   11284
   11285   11290   11274   11278   11279   11280   11284   11286   11290   11277
   11280   11284   11286   11276   11277   11281   11282   11283   11287   11288
   11289   11291   11292   11293   11294   11281   11282   11281   11282   11283
   11287   11279   11280   11284   11285   11286   11290   11295   11296   11297
   11284   11285   11284   11285   11286   11290   11295   11296   11297   11282
   11283   11287   11288   11289   11287   11288   11289   11291   11292   11293
   11294   11298   11299   11300   11287   11285   11286   11290   11295   11296
   11297   11301   11302   11303   11290   11290       0   11289   11291   11292
   11293   11294   11298   11299   11304   11291   11292   11293   11294   11298
   11300   11304   11295   11296   11297   11301   11302   11303   11305   11306
   11307   11292   11293   11298   11299   11300   11304   11298   11299   11294
   11298   11299   11300   11304   11298   11300   11296   11297   11301   11302
   11303   11305   11306   11307   11308   11309   11310   11297   11301   11302
   11303   11301   11302   11303   11299   11300   11304   11304   11304   11302
   11303   11305   11306   11307   11308   11309   11310   11311   11312   11313
   11303   11305   11306   11307   11305   11306   11307       0   11306   11307
   11308   11309   11310   11311   11312   11313   11314   11315   11316   11307
   11308   11309   11310   11308   11309   11310   11309   11310   11311   11312
   11313   11314   11315   11316   11317   11318   11319   11310   11311   11312
   11313   11311   11312   11313   11312   11313   11314   11315   11316   11317
   11318   11319   11320   11321   11322   11313   11314   11315   11316   11314
   11315   11316   11315   11316   11317   11318   11319   11320   11321   11322
   11323   11324   11325   11316   11317   11318   11319   11317   11318   11319
   11318   11319   11320   11321   11322   11319   11320   11321   11322   11320
   11321   11322   11323   11324   11325   11326   11327   11328   11321   11322
   11323   11324   11325   11326   11327   11328   11322   11323   11324   11325
   11323   11324   11325   11324   11325   11326   11327   11328   11325   11326
   11327   11328   11326   11327   11328   11327   11328   11328       0   11330
   11331   11332   11333   11334   11335   11336   11337   11338   11339   11340
   11341   11331   11332   11333   11334   11335   11336   11337   11338   11341
   11342   11343   11344   11332   11333   11334   11335   11338   11339   11340
   11341   11345   11346   11347   11333   11335   11336   11337   11338   11342
   11343   11344   11348   11349   11350   11334   11335   11336   11337   11338
   11341   11344   11345   11347   11335   11339   11340   11341   11345   11346
   11351   11352   11353   11337   11338   11339   11340   11341   11345   11347
   11351   11337   11338   11342   11343   11344   11348   11349   11354   11338
   11342   11343   11344   11348   11350   11354   11341   11344   11348   11350
   11340   11341   11345   11346   11347   11351   11352   11353   11355   11356
   11357   11358   11345   11346   11345   11346   11347   11351   11343   11344
   11348   11349   11350   11354   11359   11360   11361   11348   11349   11348
   11349   11350   11354   11359   11360   11361   11346   11347   11351   11352
   11353   11351   11352   11353   11355   11356   11357   11358   11362   11363
   11364   11351   11349   11350   11354   11359   11360   11361   11365   11366
   11367   11354   11354       0   11353   11355   11356   11357   11358   11362
   11363   11368   11355   11356   11357   11358   11362   11364   11368   11359
   11360   11361   11365   11366   11367   11369   11370   11371   11356   11357
   11362   11363   11364   11368   11362   11363   11358   11362   11363   11364
   11368   11362   11364   11360   11361   11365   11366   11367   11369   11370
   11371   11372   11373   11374   11361   11365   11366   11367   11365   11366
   11367   11363   11364   11368   11368   11368   11366   11367   11369   11370
   11371   11372   11373   11374   11375   11376   11377   11367   11369   11370
   11371   11369   11370   11371       0   11370   11371   11372   11373   11374
   11375   11376   11377   11378   11379   11380   11371   11372   11373   11374
   11372   11373   11374   11373   11374   11375   11376   11377   11378   11379
   11380   11381   11382   11383   11374   11375   11376   11377   11375   11376
   11377   11376   11377   11378   11379   11380   11381   11382   11383   11384
   11385   11386   11377   11378   11379   11380   11378   11379   11380   11379
   11380   11381   11382   11383   11384   11385   11386   11387   11388   11389
   11380   11381   11382   11383   11381   11382   11383   11382   11383   11384
   11385   11386   11383   11384   11385   11386   11384   11385   11386   11387
   11388   11389   11390   11391   11392   11385   11386   11387   11388   11389
   11390   11391   11392   11386   11387   11388   11389   11387   11388   11389
   11388   11389   11390   11391   11392   11389   11390   11391   11392   11390
   11391   11392   11391   11392   11392       0   11394   11395   11396   11397
   11398   11399   11400   11401   11402   11403   11404   11405   11395   11396
   11397   11398   11399   11400   11401   11402   11405   11406   11407   11408
   11396   11397   11398   11399   11402   11403   11404   11405   11409   11410
   11411   11397   11399   11400   11401   11402   11406   11407   11408   11412
   11413   11414   11398   11399   11400   11401   11402   11405   11408   11409
   11411   11399   11403   11404   11405   11409   11410   11415   11416   11417
   11401   11402   11403   11404   11405   11409   11411   11415   11401   11402
   11406   11407   11408   11412   11413   11418   11402   11406   11407   11408
   11412   11414   11418   11405   11408   11412   11414   11404   11405   11409
   11410   11411   11415   11416   11417   11419   11420   11421   11422   11409
   11410   11409   11410   11411   11415   11407   11408   11412   11413   11414
   11418   11423   11424   11425   11412   11413   11412   11413   11414   11418
   11423   11424   11425   11410   11411   11415   11416   11417   11415   11416
   11417   11419   11420   11421   11422   11426   11427   11428   11415   11413
   11414   11418   11423   11424   11425   11429   11430   11431   11418   11418
       0   11417   11419   11420   11421   11422   11426   11427   11432   11419
   11420   11421   11422   11426   11428   11432   11423   11424   11425   11429
   11430   11431   11433   11434   11435   11420   11421   11426   11427   11428
   11432   11426   11427   11422   11426   11427   11428   11432   11426   11428
   11424   11425   11429   11430   11431   11433   11434   11435   11436   11437
   11438   11425   11429   11430   11431   11429   11430   11431   11427   11428
   11432   11432   11432   11430   11431   11433   11434   11435   11436   11437
   11438   11439   11440   11441   11431   11433   11434   11435   11433   11434
   11435       0   11434   11435   11436   11437   11438   11439   11440   11441
   11442   11443   11444   11435   11436   11437   11438   11436   11437   11438
   11437   11438   11439   11440   11441   11442   11443   11444   11445   11446
   11447   11438   11439   11440   11441   11439   11440   11441   11440   11441
   11442   11443   11444   11445   11446   11447   11448   11449   11450   11441
   11442   11443   11444   11442   11443   11444   11443   11444   11445   11446
   11447   11448   11449   11450   11451   11452   11453   11444   11445   11446
   11447   11445   11446   11447   11446   11447   11448   11449   11450   11447
   11448   11449   11450   11448   11449   11450   11451   11452   11453   11454
   11455   11456   11449   11450   11451   11452   11453   11454   11455   11456
   11450   11451   11452   11453   11451   11452   11453   11452   11453   11454
   11455   11456   11453   11454   11455   11456   11454   11455   11456   11455
   11456   11456       0   11458   11459   11460   11461   11462   11463   11464
   11465   11466   11467   11468   11469   11459   11460   11461   11462   11463
   11464   11465   11466   11469   11470   11471   11472   11460   11461   11462
   11463   11466   11467   11468   11469   11473   11474   11475   11461   11463
   11464   11465   11466   11470   11471   11472   11476   11477   11478   11462
   11463   11464   11465   11466   11469   11472   11473   11475   11463   11467
   11468   11469   11473   11474   11479   11480   11481   11465   11466   11467
   11468   11469   11473   11475   11479   11465   11466   11470   11471   11472
   11476   11477   11482   11466   11470   11471   11472   11476   11478   11482
   11469   11472   11476   11478   11468   11469   11473   11474   11475   11479
   11480   11481   11483   11484   11485   11486   11473   11474   11473   11474
   11475   11479   11471   11472   11476   11477   11478   11482   11487   11488
   11489   11476   11477   11476   11477   11478   11482   11487   11488   11489
   11474   11475   11479   11480   11481   11479   11480   11481   11483   11484
   11485   11486   11490   11491   11492   11479   11477   11478   11482   11487
   11488   11489   11493   11494   11495   11482   11482       0   11481   11483
   11484   11485   11486   11490   11491   11496   11483   11484   11485   11486
   11490   11492   11496   11487   11488   11489   11493   11494   11495   11497
   11498   11499   11484   11485   11490   11491   11492   11496   11490   11491
   11486   11490   11491   11492   11496   11490   11492   11488   11489   11493
   11494   11495   11497   11498   11499   11500   11501   11502   11489   11493
   11494   11495   11493   11494   11495   11491   11492   11496   11496   11496
   11494   11495   11497   11498   11499   11500   11501   11502   11503   11504
   11505   11495   11497   11498   11499   11497   11498   11499       0   11498
   11499   11500   11501   11502   11503   11504   11505   11506   11507   11508
   11499   11500   11501   11502   11500   11501   11502   11501   11502   11503
   11504   11505   11506   11507   11508   11509   11510   11511   11502   11503
   11504   11505   11503   11504   11505   11504   11505   11506   11507   11508
   11509   11510   11511   11512   11513   11514   11505   11506   11507   11508
   11506   11507   11508   11507   11508   11509   11510   11511   11512   11513
   11514   11515   11516   11517   11508   11509   11510   11511   11509   11510
   11511   11510   11511   11512   11513   11514   11511   11512   11513   11514
   11512   11513   11514   11515   11516   11517   11518   11519   11520   11513
   11514   11515   11516   11517   11518   11519   11520   11514   11515   11516
   11517   11515   11516   11517   11516   11517   11518   11519   11520   11517
   11518   11519   11520   11518   11519   11520   11519   11520   11520       0
   11522   11523   11524   11525   11526   11527   11528   11529   11530   11531
   11532   11533   11523   11524   11525   11526   11527   11528   11529   11530
   11533   11534   11535   11536   11524   11525   11526   11527   11530   11531
   11532   11533   11537   11538   11539   11525   11527   11528   11529   11530
   11534   11535   11536   11540   11541   11542   11526   11527   11528   11529
   11530   11533   11536   11537   11539   11527   11531   11532   11533   11537
   11538   11543   11544   11545   11529   11530   11531   11532   11533   11537
   11539   11543   11529   11530   11534   11535   11536   11540   11541   11546
   11530   11534   11535   11536   11540   11542   11546   11533   11536   11540
   11542   11532   11533   11537   11538   11539   11543   11544   11545   11547
   11548   11549   11550   11537   11538   11537   11538   11539   11543   11535
   11536   11540   11541   11542   11546   11551   11552   11553   11540   11541
   11540   11541   11542   11546   11551   11552   11553   11538   11539   11543
   11544   11545   11543   11544   11545   11547   11548   11549   11550   11554
   11555   11556   11543   11541   11542   11546   11551   11552   11553   11557
   11558   11559   11546   11546       0   11545   11547   11548   11549   11550
   11554   11555   11560   11547   11548   11549   11550   11554   11556   11560
   11551   11552   11553   11557   11558   11559   11561   11562   11563   11548
   11549   11554   11555   11556   11560   11554   11555   11550   11554   11555
   11556   11560   11554   11556   11552   11553   11557   11558   11559   11561
   11562   11563   11564   11565   11566   11553   11557   11558   11559   11557
   11558   11559   11555   11556   11560   11560   11560   11558   11559   11561
   11562   11563   11564   11565   11566   11567   11568   11569   11559   11561
   11562   11563   11561   11562   11563       0   11562   11563   11564   11565
   11566   11567   11568   11569   11570   11571   11572   11563   11564   11565
   11566   11564   11565   11566   11565   11566   11567   11568   11569   11570
   11571   11572   11573   11574   11575   11566   11567   11568   11569   11567
   11568   11569   11568   11569   11570   11571   11572   11573   11574   11575
   11576   11577   11578   11569   11570   11571   11572   11570   11571   11572
   11571   11572   11573   11574   11575   11576   11577   11578   11579   11580
   11581   11572   11573   11574   11575   11573   11574   11575   11574   11575
   11576   11577   11578   11575   11576   11577   11578   11576   11577   11578
   11579   11580   11581   11582   11583   11584   11577   11578   11579   11580
   11581   11582   11583   11584   11578   11579   11580   11581   11579   11580
   11581   11580   11581   11582   11583   11584   11581   11582   11583   11584
   11582   11583   11584   11583   11584   11584       0   11586   11587   11588
   11589   11590   11591   11592   11593   11594   11595   11596   11597   11587
   11588   11589   11590   11591   11592   11593   11594   11597   11598   11599
   11600   11588   11589   11590   11591   11594   11595   11596   11597   11601
   11602   11603   11589   11591   11592   11593   11594   11598   11599   11600
   11604   11605   11606   11590   11591   11592   11593   11594   11597   11600
   11601   11603   11591   11595   11596   11597   11601   11602   11607   11608
   11609   11593   11594   11595   11596   11597   11601   11603   11607   11593
   11594   11598   11599   11600   11604   11605   11610   11594   11598   11599
   11600   11604   11606   11610   11597   11600   11604   11606   11596   11597
   11601   11602   11603   11607   11608   11609   11611   11612   11613   11614
   11601   11602   11601   11602   11603   11607   11599   11600   11604   11605
   11606   11610   11615   11616   11617   11604   11605   11604   11605   11606
   11610   11615   11616   11617   11602   11603   11607   11608   11609   11607
   11608   11609   11611   11612   11613   11614   11618   11619   11620   11607
   11605   11606   11610   11615   11616   11617   11621   11622   11623   11610
   11610       0   11609   11611   11612   11613   11614   11618   11619   11624
   11611   11612   11613   11614   11618   11620   11624   11615   11616   11617
   11621   11622   11623   11625   11626   11627   11612   11613   11618   11619
   11620   11624   11618   11619   11614   11618   11619   11620   11624   11618
   11620   11616   11617   11621   11622   11623   11625   11626   11627   11628
   11629   11630   11617   11621   11622   11623   11621   11622   11623   11619
   11620   11624   11624   11624   11622   11623   11625   11626   11627   11628
   11629   11630   11631   11632   11633   11623   11625   11626   11627   11625
   11626   11627       0   11626   11627   11628   11629   11630   11631   11632
   11633   11634   11635   11636   11627   11628   11629   11630   11628   11629
   11630   11629   11630   11631   11632   11633   11634   11635   11636   11637
   11638   11639   11630   11631   11632   11633   11631   11632   11633   11632
   11633   11634   11635   11636   11637   11638   11639   11640   11641   11642
   11633   11634   11635   11636   11634   11635   11636   11635   11636   11637
   11638   11639   11640   11641   11642   11643   11644   11645   11636   11637
   11638   11639   11637   11638   11639   11638   11639   11640   11641   11642
   11639   11640   11641   11642   11640   11641   11642   11643   11644   11645
   11646   11647   11648   11641   11642   11643   11644   11645   11646   11647
   11648   11642   11643   11644   11645   11643   11644   11645   11644   11645
   11646   11647   11648   11645   11646   11647   11648   11646   11647   11648
   11647   11648   11648       0   11650   11651   11652   11653   11654   11655
   11656   11657   11658   11659   11660   11661   11651   11652   11653   11654
   11655   11656   11657   11658   11661   11662   11663   11664   11652   11653
   11654   11655   11658   11659   11660   11661   11665   11666   11667   11653
   11655   11656   11657   11658   11662   11663   11664   11668   11669   11670
   11654   11655   11656   11657   11658   11661   11664   11665   11667   11655
   11659   11660   11661   11665   11666   11671   11672   11673   11657   11658
   11659   11660   11661   11665   11667   11671   11657   11658   11662   11663
   11664   11668   11669   11674   11658   11662   11663   11664   11668   11670
   11674   11661   11664   11668   11670   11660   11661   11665   11666   11667
   11671   11672   11673   11675   11676   11677   11678   11665   11666   11665
   11666   11667   11671   11663   11664   11668   11669   11670   11674   11679
   11680   11681   11668   11669   11668   11669   11670   11674   11679   11680
   11681   11666   11667   11671   11672   11673   11671   11672   11673   11675
   11676   11677   11678   11682   11683   11684   11671   11669   11670   11674
   11679   11680   11681   11685   11686   11687   11674   11674       0   11673
   11675   11676   11677   11678   11682   11683   11688   11675   11676   11677
   11678   11682   11684   11688   11679   11680   11681   11685   11686   11687
   11689   11690   11691   11676   11677   11682   11683   11684   11688   11682
   11683   11678   11682   11683   11684   11688   11682   11684   11680   11681
   11685   11686   11687   11689   11690   11691   11692   11693   11694   11681
   11685   11686   11687   11685   11686   11687   11683   11684   11688   11688
   11688   11686   11687   11689   11690   11691   11692   11693   11694   11695
   11696   11697   11687   11689   11690   11691   11689   11690   11691       0
   11690   11691   11692   11693   11694   11695   11696   11697   11698   11699
   11700   11691   11692   11693   11694   11692   11693   11694   11693   11694
   11695   11696   11697   11698   11699   11700   11701   11702   11703   11694
   11695   11696   11697   11695   11696   11697   11696   11697   11698   11699
   11700   11701   11702   11703   11704   11705   11706   11697   11698   11699
   11700   11698   11699   11700   11699   11700   11701   11702   11703   11704
   11705   11706   11707   11708   11709   11700   11701   11702   11703   11701
   11702   11703   11702   11703   11704   11705   11706   11703   11704   11705
   11706   11704   11705   11706   11707   11708   11709   11710   11711   11712
   11705   11706   11707   11708   11709   11710   11711   11712   11706   11707
   11708   11709   11707   11708   11709   11708   11709   11710   11711   11712
   11709   11710   11711   11712   11710   11711   11712   11711   11712   11712
       0   11714   11715   11716   11717   11718   11719   11720   11721   11722
   11723   11724   11725   11715   11716   11717   11718   11719   11720   11721
   11722   11725   11726   11727   11728   11716   11717   11718   11719   11722
   11723   11724   11725   11729   11730   11731   11717   11719   11720   11721
   11722   11726   11727   11728   11732   11733   11734   11718   11719   11720
   11721   11722   11725   11728   11729   11731   11719   11723   11724   11725
   11729   11730   11735   11736   11737   11721   11722   11723   11724   11725
   11729   11731   11735   11721   11722   11726   11727   11728   11732   11733
   11738   11722   11726   11727   11728   11732   11734   11738   11725   11728
   11732   11734   11724   11725   11729   11730   11731   11735   11736   11737
   11739   11740   11741   11742   11729   11730   11729   11730   11731   11735
   11727   11728   11732   11733   11734   11738   11743   11744   11745   11732
   11733   11732   11733   11734   11738   11743   11744   11745   11730   11731
   11735   11736   11737   11735   11736   11737   11739   11740   11741   11742
   11746   11747   11748   11735   11733   11734   11738   11743   11744   11745
   11749   11750   11751   11738   11738       0   11737   11739   11740   11741
   11742   11746   11747   11752   11739   11740   11741   11742   11746   11748
   11752   11743   11744   11745   11749   11750   11751   11753   11754   11755
   11740   11741   11746   11747   11748   11752   11746   11747   11742   11746
   11747   11748   11752   11746   11748   11744   11745   11749   11750   11751
   11753   11754   11755   11756   11757   11758   11745   11749   11750   11751
   11749   11750   11751   11747   11748   11752   11752   11752   11750   11751
   11753   11754   11755   11756   11757   11758   11759   11760   11761   11751
   11753   11754   11755   11753   11754   11755       0   11754   11755   11756
   11757   11758   11759   11760   11761   11762   11763   11764   11755   11756
   11757   11758   11756   11757   11758   11757   11758   11759   11760   11761
   11762   11763   11764   11765   11766   11767   11758   11759   11760   11761
   11759   11760   11761   11760   11761   11762   11763   11764   11765   11766
   11767   11768   11769   11770   11761   11762   11763   11764   11762   11763
   11764   11763   11764   11765   11766   11767   11768   11769   11770   11771
   11772   11773   11764   11765   11766   11767   11765   11766   11767   11766
   11767   11768   11769   11770   11767   11768   11769   11770   11768   11769
   11770   11771   11772   11773   11774   11775   11776   11769   11770   11771
   11772   11773   11774   11775   11776   11770   11771   11772   11773   11771
   11772   11773   11772   11773   11774   11775   11776   11773   11774   11775
   11776   11774   11775   11776   11775   11776   11776       0   11778   11779
   11780   11781   11782   11783   11784   11785   11786   11787   11788   11789
   11779   11780   11781   11782   11783   11784   11785   11786   11789   11790
   11791   11792   11780   11781   11782   11783   11786   11787   11788   11789
   11793   11794   11795   11781   11783   11784   11785   11786   11790   11791
   11792   11796   11797   11798   11782   11783   11784   11785   11786   11789
   11792   11793   11795   11783   11787   11788   11789   11793   11794   11799
   11800   11801   11785   11786   11787   11788   11789   11793   11795   11799
   11785   11786   11790   11791   11792   11796   11797   11802   11786   11790
   11791   11792   11796   11798   11802   11789   11792   11796   11798   11788
   11789   11793   11794   11795   11799   11800   11801   11803   11804   11805
   11806   11793   11794   11793   11794   11795   11799   11791   11792   11796
   11797   11798   11802   11807   11808   11809   11796   11797   11796   11797
   11798   11802   11807   11808   11809   11794   11795   11799   11800   11801
   11799   11800   11801   11803   11804   11805   11806   11810   11811   11812
   11799   11797   11798   11802   11807   11808   11809   11813   11814   11815
   11802   11802       0   11801   11803   11804   11805   11806   11810   11811
   11816   11803   11804   11805   11806   11810   11812   11816   11807   11808
   11809   11813   11814   11815   11817   11818   11819   11804   11805   11810
   11811   11812   11816   11810   11811   11806   11810   11811   11812   11816
   11810   11812   11808   11809   11813   11814   11815   11817   11818   11819
   11820   11821   11822   11809   11813   11814   11815   11813   11814   11815
   11811   11812   11816   11816   11816   11814   11815   11817   11818   11819
   11820   11821   11822   11823   11824   11825   11815   11817   11818   11819
   11817   11818   11819       0   11818   11819   11820   11821   11822   11823
   11824   11825   11826   11827   11828   11819   11820   11821   11822   11820
   11821   11822   11821   11822   11823   11824   11825   11826   11827   11828
   11829   11830   11831   11822   11823   11824   11825   11823   11824   11825
   11824   11825   11826   11827   11828   11829   11830   11831   11832   11833
   11834   11825   11826   11827   11828   11826   11827   11828   11827   11828
   11829   11830   11831   11832   11833   11834   11835   11836   11837   11828
   11829   11830   11831   11829   11830   11831   11830   11831   11832   11833
   11834   11831   11832   11833   11834   11832   11833   11834   11835   11836
   11837   11838   11839   11840   11833   11834   11835   11836   11837   11838
   11839   11840   11834   11835   11836   11837   11835   11836   11837   11836
   11837   11838   11839   11840   11837   11838   11839   11840   11838   11839
   11840   11839   11840   11840       0   11842   11843   11844   11845   11846
   11847   11848   11849   11850   11851   11852   11853   11843   11844   11845
   11846   11847   11848   11849   11850   11853   11854   11855   11856   11844
   11845   11846   11847   11850   11851   11852   11853   11857   11858   11859
   11845   11847   11848   11849   11850   11854   11855   11856   11860   11861
   11862   11846   11847   11848   11849   11850   11853   11856   11857   11859
   11847   11851   11852   11853   11857   11858   11863   11864   11865   11849
   11850   11851   11852   11853   11857   11859   11863   11849   11850   11854
   11855   11856   11860   11861   11866   11850   11854   11855   11856   11860
   11862   11866   11853   11856   11860   11862   11852   11853   11857   11858
   11859   11863   11864   11865   11867   11868   11869   11870   11857   11858
   11857   11858   11859   11863   11855   11856   11860   11861   11862   11866
   11871   11872   11873   11860   11861   11860   11861   11862   11866   11871
   11872   11873   11858   11859   11863   11864   11865   11863   11864   11865
   11867   11868   11869   11870   11874   11875   11876   11863   11861   11862
   11866   11871   11872   11873   11877   11878   11879   11866   11866       0
   11865   11867   11868   11869   11870   11874   11875   11880   11867   11868
   11869   11870   11874   11876   11880   11871   11872   11873   11877   11878
   11879   11881   11882   11883   11868   11869   11874   11875   11876   11880
   11874   11875   11870   11874   11875   11876   11880   11874   11876   11872
   11873   11877   11878   11879   11881   11882   11883   11884   11885   11886
   11873   11877   11878   11879   11877   11878   11879   11875   11876   11880
   11880   11880   11878   11879   11881   11882   11883   11884   11885   11886
   11887   11888   11889   11879   11881   11882   11883   11881   11882   11883
       0   11882   11883   11884   11885   11886   11887   11888   11889   11890
   11891   11892   11883   11884   11885   11886   11884   11885   11886   11885
   11886   11887   11888   11889   11890   11891   11892   11893   11894   11895
   11886   11887   11888   11889   11887   11888   11889   11888   11889   11890
   11891   11892   11893   11894   11895   11896   11897   11898   11889   11890
   11891   11892   11890   11891   11892   11891   11892   11893   11894   11895
   11896   11897   11898   11899   11900   11901   11892   11893   11894   11895
   11893   11894   11895   11894   11895   11896   11897   11898   11895   11896
   11897   11898   11896   11897   11898   11899   11900   11901   11902   11903
   11904   11897   11898   11899   11900   11901   11902   11903   11904   11898
   11899   11900   11901   11899   11900   11901   11900   11901   11902   11903
   11904   11901   11902   11903   11904   11902   11903   11904   11903   11904
   11904       0   11906   11907   11908   11909   11910   11911   11912   11913
   11914   11915   11916   11917   11907   11908   11909   11910   11911   11912
   11913   11914   11917   11918   11919   11920   11908   11909   11910   11911
   11914   11915   11916   11917   11921   11922   11923   11909   11911   11912
   11913   11914   11918   11919   11920   11924   11925   11926   11910   11911
   11912   11913   11914   11917   11920   11921   11923   11911   11915   11916
   11917   11921   11922   11927   11928   11929   11913   11914   11915   11916
   11917   11921   11923   11927   11913   11914   11918   11919   11920   11924
   11925   11930   11914   11918   11919   11920   11924   11926   11930   11917
   11920   11924   11926   11916   11917   11921   11922   11923   11927   11928
   11929   11931   11932   11933   11934   11921   11922   11921   11922   11923
   11927   11919   11920   11924   11925   11926   11930   11935   11936   11937
   11924   11925   11924   11925   11926   11930   11935   11936   11937   11922
   11923   11927   11928   11929   11927   11928   11929   11931   11932   11933
   11934   11938   11939   11940   11927   11925   11926   11930   11935   11936
   11937   11941   11942   11943   11930   11930       0   11929   11931   11932
   11933   11934   11938   11939   11944   11931   11932   11933   11934   11938
   11940   11944   11935   11936   11937   11941   11942   11943   11945   11946
   11947   11932   11933   11938   11939   11940   11944   11938   11939   11934
   11938   11939   11940   11944   11938   11940   11936   11937   11941   11942
   11943   11945   11946   11947   11948   11949   11950   11937   11941   11942
   11943   11941   11942   11943   11939   11940   11944   11944   11944   11942
   11943   11945   11946   11947   11948   11949   11950   11951   11952   11953
   11943   11945   11946   11947   11945   11946   11947       0   11946   11947
   11948   11949   11950   11951   11952   11953   11954   11955   11956   11947
   11948   11949   11950   11948   11949   11950   11949   11950   11951   11952
   11953   11954   11955   11956   11957   11958   11959   11950   11951   11952
   11953   11951   11952   11953   11952   11953   11954   11955   11956   11957
   11958   11959   11960   11961   11962   11953   11954   11955   11956   11954
   11955   11956   11955   11956   11957   11958   11959   11960   11961   11962
   11963   11964   11965   11956   11957   11958   11959   11957   11958   11959
   11958   11959   11960   11961   11962   11959   11960   11961   11962   11960
   11961   11962   11963   11964   11965   11966   11967   11968   11961   11962
   11963   11964   11965   11966   11967   11968   11962   11963   11964   11965
   11963   11964   11965   11964   11965   11966   11967   11968   11965   11966
   11967   11968   11966   11967   11968   11967   11968   11968       0   11970
   11971   11972   11973   11974   11975   11976   11977   11978   11979   11980
   11981   11971   11972   11973   11974   11975   11976   11977   11978   11981
   11982   11983   11984   11972   11973   11974   11975   11978   11979   11980
   11981   11985   11986   11987   11973   11975   11976   11977   11978   11982
   11983   11984   11988   11989   11990   11974   11975   11976   11977   11978
   11981   11984   11985   11987   11975   11979   11980   11981   11985   11986
   11991   11992   11993   11977   11978   11979   11980   11981   11985   11987
   11991   11977   11978   11982   11983   11984   11988   11989   11994   11978
   11982   11983   11984   11988   11990   11994   11981   11984   11988   11990
   11980   11981   11985   11986   11987   11991   11992   11993   11995   11996
   11997   11998   11985   11986   11985   11986   11987   11991   11983   11984
   11988   11989   11990   11994   11999   12000   12001   11988   11989   11988
   11989   11990   11994   11999   12000   12001   11986   11987   11991   11992
   11993   11991   11992   11993   11995   11996   11997   11998   12002   12003
   12004   11991   11989   11990   11994   11999   12000   12001   12005   12006
   12007   11994   11994       0   11993   11995   11996   11997   11998   12002
   12003   12008   11995   11996   11997   11998   12002   12004   12008   11999
   12000   12001   12005   12006   12007   12009   12010   12011   11996   11997
   12002   12003   12004   12008   12002   12003   11998   12002   12003   12004
   12008   12002   12004   12000   12001   12005   12006   12007   12009   12010
   12011   12012   12013   12014   12001   12005   12006   12007   12005   12006
   12007   12003   12004   12008   12008   12008   12006   12007   12009   12010
   12011   12012   12013   12014   12015   12016   12017   12007   12009   12010
   12011   12009   12010   12011       0   12010   12011   12012   12013   12014
   12015   12016   12017   12018   12019   12020   12011   12012   12013   12014
   12012   12013   12014   12013   12014   12015   12016   12017   12018   12019
   12020   12021   12022   12023   12014   12015   12016   12017   12015   12016
   12017   12016   12017   12018   12019   12020   12021   12022   12023   12024
   12025   12026   12017   12018   12019   12020   12018   12019   12020   12019
   12020   12021   12022   12023   12024   12025   12026   12027   12028   12029
   12020   12021   12022   12023   12021   12022   12023   12022   12023   12024
   12025   12026   12023   12024   12025   12026   12024   12025   12026   12027
   12028   12029   12030   12031   12032   12025   12026   12027   12028   12029
   12030   12031   12032   12026   12027   12028   12029   12027   12028   12029
   12028   12029   12030   12031   12032   12029   12030   12031   12032   12030
   12031   12032   12031   12032   12032       0   12034   12035   12036   12037
   12038   12039   12040   12041   12042   12043   12044   12045   12035   12036
   12037   12038   12039   12040   12041   12042   12045   12046   12047   12048
   12036   12037   12038   12039   12042   12043   12044   12045   12049   12050
   12051   12037   12039   12040   12041   12042   12046   12047   12048   12052
   12053   12054   12038   12039   12040   12041   12042   12045   12048   12049
   12051   12039   12043   12044   12045   12049   12050   12055   12056   12057
   12041   12042   12043   12044   12045   12049   12051   12055   12041   12042
   12046   12047   12048   12052   12053   12058   12042   12046   12047   12048
   12052   12054   12058   12045   12048   12052   12054   12044   12045   12049
   12050   12051   12055   12056   12057   12059   12060   12061   12062   12049
   12050   12049   12050   12051   12055   12047   12048   12052   12053   12054
   12058   12063   12064   12065   12052   12053   12052   12053   12054   12058
   12063   12064   12065   12050   12051   12055   12056   12057   12055   12056
   12057   12059   12060   12061   12062   12066   12067   12068   12055   12053
   12054   12058   12063   12064   12065   12069   12070   12071   12058   12058
       0   12057   12059   12060   12061   12062   12066   12067   12072   12059
   12060   12061   12062   12066   12068   12072   12063   12064   12065   12069
   12070   12071   12073   12074   12075   12060   12061   12066   12067   12068
   12072   12066   12067   12062   12066   12067   12068   12072   12066   12068
   12064   12065   12069   12070   12071   12073   12074   12075   12076   12077
   12078   12065   12069   12070   12071   12069   12070   12071   12067   12068
   12072   12072   12072   12070   12071   12073   12074   12075   12076   12077
   12078   12079   12080   12081   12071   12073   12074   12075   12073   12074
   12075       0   12074   12075   12076   12077   12078   12079   12080   12081
   12082   12083   12084   12075   12076   12077   12078   12076   12077   12078
   12077   12078   12079   12080   12081   12082   12083   12084   12085   12086
   12087   12078   12079   12080   12081   12079   12080   12081   12080   12081
   12082   12083   12084   12085   12086   12087   12088   12089   12090   12081
   12082   12083   12084   12082   12083   12084   12083   12084   12085   12086
   12087   12088   12089   12090   12091   12092   12093   12084   12085   12086
   12087   12085   12086   12087   12086   12087   12088   12089   12090   12087
   12088   12089   12090   12088   12089   12090   12091   12092   12093   12094
   12095   12096   12089   12090   12091   12092   12093   12094   12095   12096
   12090   12091   12092   12093   12091   12092   12093   12092   12093   12094
   12095   12096   12093   12094   12095   12096   12094   12095   12096   12095
   12096   12096       0   12098   12099   12100   12101   12102   12103   12104
   12105   12106   12107   12108   12109   12099   12100   12101   12102   12103
   12104   12105   12106   12109   12110   12111   12112   12100   12101   12102
   12103   12106   12107   12108   12109   12113   12114   12115   12101   12103
   12104   12105   12106   12110   12111   12112   12116   12117   12118   12102
   12103   12104   12105   12106   12109   12112   12113   12115   12103   12107
   12108   12109   12113   12114   12119   12120   12121   12105   12106   12107
   12108   12109   12113   12115   12119   12105   12106   12110   12111   12112
   12116   12117   12122   12106   12110   12111   12112   12116   12118   12122
   12109   12112   12116   12118   12108   12109   12113   12114   12115   12119
   12120   12121   12123   12124   12125   12126   12113   12114   12113   12114
   12115   12119   12111   12112   12116   12117   12118   12122   12127   12128
   12129   12116   12117   12116   12117   12118   12122   12127   12128   12129
   12114   12115   12119   12120   12121   12119   12120   12121   12123   12124
   12125   12126   12130   12131   12132   12119   12117   12118   12122   12127
   12128   12129   12133   12134   12135   12122   12122       0   12121   12123
   12124   12125   12126   12130   12131   12136   12123   12124   12125   12126
   12130   12132   12136   12127   12128   12129   12133   12134   12135   12137
   12138   12139   12124   12125   12130   12131   12132   12136   12130   12131
   12126   12130   12131   12132   12136   12130   12132   12128   12129   12133
   12134   12135   12137   12138   12139   12140   12141   12142   12129   12133
   12134   12135   12133   12134   12135   12131   12132   12136   12136   12136
   12134   12135   12137   12138   12139   12140   12141   12142   12143   12144
   12145   12135   12137   12138   12139   12137   12138   12139       0   12138
   12139   12140   12141   12142   12143   12144   12145   12146   12147   12148
   12139   12140   12141   12142   12140   12141   12142   12141   12142   12143
   12144   12145   12146   12147   12148   12149   12150   12151   12142   12143
   12144   12145   12143   12144   12145   12144   12145   12146   12147   12148
   12149   12150   12151   12152   12153   12154   12145   12146   12147   12148
   12146   12147   12148   12147   12148   12149   12150   12151   12152   12153
   12154   12155   12156   12157   12148   12149   12150   12151   12149   12150
   12151   12150   12151   12152   12153   12154   12151   12152   12153   12154
   12152   12153   12154   12155   12156   12157   12158   12159   12160   12153
   12154   12155   12156   12157   12158   12159   12160   12154   12155   12156
   12157   12155   12156   12157   12156   12157   12158   12159   12160   12157
   12158   12159   12160   12158   12159   12160   12159   12160   12160       0
   12162   12163   12164   12165   12166   12167   12168   12169   12170   12171
   12172   12173   12163   12164   12165   12166   12167   12168   12169   12170
   12173   12174   12175   12176   12164   12165   12166   12167   12170   12171
   12172   12173   12177   12178   12179   12165   12167   12168   12169   12170
   12174   12175   12176   12180   12181   12182   12166   12167   12168   12169
   12170   12173   12176   12177   12179   12167   12171   12172   12173   12177
   12178   12183   12184   12185   12169   12170   12171   12172   12173   12177
   12179   12183   12169   12170   12174   12175   12176   12180   12181   12186
   12170   12174   12175   12176   12180   12182   12186   12173   12176   12180
   12182   12172   12173   12177   12178   12179   12183   12184   12185   12187
   12188   12189   12190   12177   12178   12177   12178   12179   12183   12175
   12176   12180   12181   12182   12186   12191   12192   12193   12180   12181
   12180   12181   12182   12186   12191   12192   12193   12178   12179   12183
   12184   12185   12183   12184   12185   12187   12188   12189   12190   12194
   12195   12196   12183   12181   12182   12186   12191   12192   12193   12197
   12198   12199   12186   12186       0   12185   12187   12188   12189   12190
   12194   12195   12200   12187   12188   12189   12190   12194   12196   12200
   12191   12192   12193   12197   12198   12199   12201   12202   12203   12188
   12189   12194   12195   12196   12200   12194   12195   12190   12194   12195
   12196   12200   12194   12196   12192   12193   12197   12198   12199   12201
   12202   12203   12204   12205   12206   12193   12197   12198   12199   12197
   12198   12199   12195   12196   12200   12200   12200   12198   12199   12201
   12202   12203   12204   12205   12206   12207   12208   12209   12199   12201
   12202   12203   12201   12202   12203       0   12202   12203   12204   12205
   12206   12207   12208   12209   12210   12211   12212   12203   12204   12205
   12206   12204   12205   12206   12205   12206   12207   12208   12209   12210
   12211   12212   12213   12214   12215   12206   12207   12208   12209   12207
   12208   12209   12208   12209   12210   12211   12212   12213   12214   12215
   12216   12217   12218   12209   12210   12211   12212   12210   12211   12212
   12211   12212   12213   12214   12215   12216   12217   12218   12219   12220
   12221   12212   12213   12214   12215   12213   12214   12215   12214   12215
   12216   12217   12218   12215   12216   12217   12218   12216   12217   12218
   12219   12220   12221   12222   12223   12224   12217   12218   12219   12220
   12221   12222   12223   12224   12218   12219   12220   12221   12219   12220
   12221   12220   12221   12222   12223   12224   12221   12222   12223   12224
   12222   12223   12224   12223   12224   12224       0   12226   12227   12228
   12229   12230   12231   12232   12233   12234   12235   12236   12237   12227
   12228   12229   12230   12231   12232   12233   12234   12237   12238   12239
   12240   12228   12229   12230   12231   12234   12235   12236   12237   12241
   12242   12243   12229   12231   12232   12233   12234   12238   12239   12240
   12244   12245   12246   12230   12231   12232   12233   12234   12237   12240
   12241   12243   12231   12235   12236   12237   12241   12242   12247   12248
   12249   12233   12234   12235   12236   12237   12241   12243   12247   12233
   12234   12238   12239   12240   12244   12245   12250   12234   12238   12239
   12240   12244   12246   12250   12237   12240   12244   12246   12236   12237
   12241   12242   12243   12247   12248   12249   12251   12252   12253   12254
   12241   12242   12241   12242   12243   12247   12239   12240   12244   12245
   12246   12250   12255   12256   12257   12244   12245   12244   12245   12246
   12250   12255   12256   12257   12242   12243   12247   12248   12249   12247
   12248   12249   12251   12252   12253   12254   12258   12259   12260   12247
   12245   12246   12250   12255   12256   12257   12261   12262   12263   12250
   12250       0   12249   12251   12252   12253   12254   12258   12259   12264
   12251   12252   12253   12254   12258   12260   12264   12255   12256   12257
   12261   12262   12263   12265   12266   12267   12252   12253   12258   12259
   12260   12264   12258   12259   12254   12258   12259   12260   12264   12258
   12260   12256   12257   12261   12262   12263   12265   12266   12267   12268
   12269   12270   12257   12261   12262   12263   12261   12262   12263   12259
   12260   12264   12264   12264   12262   12263   12265   12266   12267   12268
   12269   12270   12271   12272   12273   12263   12265   12266   12267   12265
   12266   12267       0   12266   12267   12268   12269   12270   12271   12272
   12273   12274   12275   12276   12267   12268   12269   12270   12268   12269
   12270   12269   12270   12271   12272   12273   12274   12275   12276   12277
   12278   12279   12270   12271   12272   12273   12271   12272   12273   12272
   12273   12274   12275   12276   12277   12278   12279   12280   12281   12282
   12273   12274   12275   12276   12274   12275   12276   12275   12276   12277
   12278   12279   12280   12281   12282   12283   12284   12285   12276   12277
   12278   12279   12277   12278   12279   12278   12279   12280   12281   12282
   12279   12280   12281   12282   12280   12281   12282   12283   12284   12285
   12286   12287   12288   12281   12282   12283   12284   12285   12286   12287
   12288   12282   12283   12284   12285   12283   12284   12285   12284   12285
   12286   12287   12288   12285   12286   12287   12288   12286   12287   12288
   12287   12288   12288       0   12290   12291   12292   12293   12294   12295
   12296   12297   12298   12299   12300   12301   12291   12292   12293   12294
   12295   12296   12297   12298   12301   12302   12303   12304   12292   12293
   12294   12295   12298   12299   12300   12301   12305   12306   12307   12293
   12295   12296   12297   12298   12302   12303   12304   12308   12309   12310
   12294   12295   12296   12297   12298   12301   12304   12305   12307   12295
   12299   12300   12301   12305   12306   12311   12312   12313   12297   12298
   12299   12300   12301   12305   12307   12311   12297   12298   12302   12303
   12304   12308   12309   12314   12298   12302   12303   12304   12308   12310
   12314   12301   12304   12308   12310   12300   12301   12305   12306   12307
   12311   12312   12313   12315   12316   12317   12318   12305   12306   12305
   12306   12307   12311   12303   12304   12308   12309   12310   12314   12319
   12320   12321   12308   12309   12308   12309   12310   12314   12319   12320
   12321   12306   12307   12311   12312   12313   12311   12312   12313   12315
   12316   12317   12318   12322   12323   12324   12311   12309   12310   12314
   12319   12320   12321   12325   12326   12327   12314   12314       0   12313
   12315   12316   12317   12318   12322   12323   12328   12315   12316   12317
   12318   12322   12324   12328   12319   12320   12321   12325   12326   12327
   12329   12330   12331   12316   12317   12322   12323   12324   12328   12322
   12323   12318   12322   12323   12324   12328   12322   12324   12320   12321
   12325   12326   12327   12329   12330   12331   12332   12333   12334   12321
   12325   12326   12327   12325   12326   12327   12323   12324   12328   12328
   12328   12326   12327   12329   12330   12331   12332   12333   12334   12335
   12336   12337   12327   12329   12330   12331   12329   12330   12331       0
   12330   12331   12332   12333   12334   12335   12336   12337   12338   12339
   12340   12331   12332   12333   12334   12332   12333   12334   12333   12334
   12335   12336   12337   12338   12339   12340   12341   12342   12343   12334
   12335   12336   12337   12335   12336   12337   12336   12337   12338   12339
   12340   12341   12342   12343   12344   12345   12346   12337   12338   12339
   12340   12338   12339   12340   12339   12340   12341   12342   12343   12344
   12345   12346   12347   12348   12349   12340   12341   12342   12343   12341
   12342   12343   12342   12343   12344   12345   12346   12343   12344   12345
   12346   12344   12345   12346   12347   12348   12349   12350   12351   12352
   12345   12346   12347   12348   12349   12350   12351   12352   12346   12347
   12348   12349   12347   12348   12349   12348   12349   12350   12351   12352
   12349   12350   12351   12352   12350   12351   12352   12351   12352   12352
       0   12354   12355   12356   12357   12358   12359   12360   12361   12362
   12363   12364   12365   12355   12356   12357   12358   12359   12360   12361
   12362   12365   12366   12367   12368   12356   12357   12358   12359   12362
   12363   12364   12365   12369   12370   12371   12357   12359   12360   12361
   12362   12366   12367   12368   12372   12373   12374   12358   12359   12360
   12361   12362   12365   12368   12369   12371   12359   12363   12364   12365
   12369   12370   12375   12376   12377   12361   12362   12363   12364   12365
   12369   12371   12375   12361   12362   12366   12367   12368   12372   12373
   12378   12362   12366   12367   12368   12372   12374   12378   12365   12368
   12372   12374   12364   12365   12369   12370   12371   12375   12376   12377
   12379   12380   12381   12382   12369   12370   12369   12370   12371   12375
   12367   12368   12372   12373   12374   12378   12383   12384   12385   12372
   12373   12372   12373   12374   12378   12383   12384   12385   12370   12371
   12375   12376   12377   12375   12376   12377   12379   12380   12381   12382
   12386   12387   12388   12375   12373   12374   12378   12383   12384   12385
   12389   12390   12391   12378   12378       0   12377   12379   12380   12381
   12382   12386   12387   12392   12379   12380   12381   12382   12386   12388
   12392   12383   12384   12385   12389   12390   12391   12393   12394   12395
   12380   12381   12386   12387   12388   12392   12386   12387   12382   12386
   12387   12388   12392   12386   12388   12384   12385   12389   12390   12391
   12393   12394   12395   12396   12397   12398   12385   12389   12390   12391
   12389   12390   12391   12387   12388   12392   12392   12392   12390   12391
   12393   12394   12395   12396   12397   12398   12399   12400   12401   12391
   12393   12394   12395   12393   12394   12395       0   12394   12395   12396
   12397   12398   12399   12400   12401   12402   12403   12404   12395   12396
   12397   12398   12396   12397   12398   12397   12398   12399   12400   12401
   12402   12403   12404   12405   12406   12407   12398   12399   12400   12401
   12399   12400   12401   12400   12401   12402   12403   12404   12405   12406
   12407   12408   12409   12410   12401   12402   12403   12404   12402   12403
   12404   12403   12404   12405   12406   12407   12408   12409   12410   12411
   12412   12413   12404   12405   12406   12407   12405   12406   12407   12406
   12407   12408   12409   12410   12407   12408   12409   12410   12408   12409
   12410   12411   12412   12413   12414   12415   12416   12409   12410   12411
   12412   12413   12414   12415   12416   12410   12411   12412   12413   12411
   12412   12413   12412   12413   12414   12415   12416   12413   12414   12415
   12416   12414   12415   12416   12415   12416   12416       0   12418   12419
   12420   12421   12422   12423   12424   12425   12426   12427   12428   12429
   12419   12420   12421   12422   12423   12424   12425   12426   12429   12430
   12431   12432   12420   12421   12422   12423   12426   12427   12428   12429
   12433   12434   12435   12421   12423   12424   12425   12426   12430   12431
   12432   12436   12437   12438   12422   12423   12424   12425   12426   12429
   12432   12433   12435   12423   12427   12428   12429   12433   12434   12439
   12440   12441   12425   12426   12427   12428   12429   12433   12435   12439
   12425   12426   12430   12431   12432   12436   12437   12442   12426   12430
   12431   12432   12436   12438   12442   12429   12432   12436   12438   12428
   12429   12433   12434   12435   12439   12440   12441   12443   12444   12445
   12446   12433   12434   12433   12434   12435   12439   12431   12432   12436
   12437   12438   12442   12447   12448   12449   12436   12437   12436   12437
   12438   12442   12447   12448   12449   12434   12435   12439   12440   12441
   12439   12440   12441   12443   12444   12445   12446   12450   12451   12452
   12439   12437   12438   12442   12447   12448   12449   12453   12454   12455
   12442   12442       0   12441   12443   12444   12445   12446   12450   12451
   12456   12443   12444   12445   12446   12450   12452   12456   12447   12448
   12449   12453   12454   12455   12457   12458   12459   12444   12445   12450
   12451   12452   12456   12450   12451   12446   12450   12451   12452   12456
   12450   12452   12448   12449   12453   12454   12455   12457   12458   12459
   12460   12461   12462   12449   12453   12454   12455   12453   12454   12455
   12451   12452   12456   12456   12456   12454   12455   12457   12458   12459
   12460   12461   12462   12463   12464   12465   12455   12457   12458   12459
   12457   12458   12459       0   12458   12459   12460   12461   12462   12463
   12464   12465   12466   12467   12468   12459   12460   12461   12462   12460
   12461   12462   12461   12462   12463   12464   12465   12466   12467   12468
   12469   12470   12471   12462   12463   12464   12465   12463   12464   12465
   12464   12465   12466   12467   12468   12469   12470   12471   12472   12473
   12474   12465   12466   12467   12468   12466   12467   12468   12467   12468
   12469   12470   12471   12472   12473   12474   12475   12476   12477   12468
   12469   12470   12471   12469   12470   12471   12470   12471   12472   12473
   12474   12471   12472   12473   12474   12472   12473   12474   12475   12476
   12477   12478   12479   12480   12473   12474   12475   12476   12477   12478
   12479   12480   12474   12475   12476   12477   12475   12476   12477   12476
   12477   12478   12479   12480   12477   12478   12479   12480   12478   12479
   12480   12479   12480   12480       0   12482   12483   12484   12485   12486
   12487   12488   12489   12490   12491   12492   12493   12483   12484   12485
   12486   12487   12488   12489   12490   12493   12494   12495   12496   12484
   12485   12486   12487   12490   12491   12492   12493   12497   12498   12499
   12485   12487   12488   12489   12490   12494   12495   12496   12500   12501
   12502   12486   12487   12488   12489   12490   12493   12496   12497   12499
   12487   12491   12492   12493   12497   12498   12503   12504   12505   12489
   12490   12491   12492   12493   12497   12499   12503   12489   12490   12494
   12495   12496   12500   12501   12506   12490   12494   12495   12496   12500
   12502   12506   12493   12496   12500   12502   12492   12493   12497   12498
   12499   12503   12504   12505   12507   12508   12509   12510   12497   12498
   12497   12498   12499   12503   12495   12496   12500   12501   12502   12506
   12511   12512   12513   12500   12501   12500   12501   12502   12506   12511
   12512   12513   12498   12499   12503   12504   12505   12503   12504   12505
   12507   12508   12509   12510   12514   12515   12516   12503   12501   12502
   12506   12511   12512   12513   12517   12518   12519   12506   12506       0
   12505   12507   12508   12509   12510   12514   12515   12520   12507   12508
   12509   12510   12514   12516   12520   12511   12512   12513   12517   12518
   12519   12521   12522   12523   12508   12509   12514   12515   12516   12520
   12514   12515   12510   12514   12515   12516   12520   12514   12516   12512
   12513   12517   12518   12519   12521   12522   12523   12524   12525   12526
   12513   12517   12518   12519   12517   12518   12519   12515   12516   12520
   12520   12520   12518   12519   12521   12522   12523   12524   12525   12526
   12527   12528   12529   12519   12521   12522   12523   12521   12522   12523
       0   12522   12523   12524   12525   12526   12527   12528   12529   12530
   12531   12532   12523   12524   12525   12526   12524   12525   12526   12525
   12526   12527   12528   12529   12530   12531   12532   12533   12534   12535
   12526   12527   12528   12529   12527   12528   12529   12528   12529   12530
   12531   12532   12533   12534   12535   12536   12537   12538   12529   12530
   12531   12532   12530   12531   12532   12531   12532   12533   12534   12535
   12536   12537   12538   12539   12540   12541   12532   12533   12534   12535
   12533   12534   12535   12534   12535   12536   12537   12538   12535   12536
   12537   12538   12536   12537   12538   12539   12540   12541   12542   12543
   12544   12537   12538   12539   12540   12541   12542   12543   12544   12538
   12539   12540   12541   12539   12540   12541   12540   12541   12542   12543
   12544   12541   12542   12543   12544   12542   12543   12544   12543   12544
   12544       0   12546   12547   12548   12549   12550   12551   12552   12553
   12554   12555   12556   12557   12547   12548   12549   12550   12551   12552
   12553   12554   12557   12558   12559   12560   12548   12549   12550   12551
   12554   12555   12556   12557   12561   12562   12563   12549   12551   12552
   12553   12554   12558   12559   12560   12564   12565   12566   12550   12551
   12552   12553   12554   12557   12560   12561   12563   12551   12555   12556
   12557   12561   12562   12567   12568   12569   12553   12554   12555   12556
   12557   12561   12563   12567   12553   12554   12558   12559   12560   12564
   12565   12570   12554   12558   12559   12560   12564   12566   12570   12557
   12560   12564   12566   12556   12557   12561   12562   12563   12567   12568
   12569   12571   12572   12573   12574   12561   12562   12561   12562   12563
   12567   12559   12560   12564   12565   12566   12570   12575   12576   12577
   12564   12565   12564   12565   12566   12570   12575   12576   12577   12562
   12563   12567   12568   12569   12567   12568   12569   12571   12572   12573
   12574   12578   12579   12580   12567   12565   12566   12570   12575   12576
   12577   12581   12582   12583   12570   12570       0   12569   12571   12572
   12573   12574   12578   12579   12584   12571   12572   12573   12574   12578
   12580   12584   12575   12576   12577   12581   12582   12583   12585   12586
   12587   12572   12573   12578   12579   12580   12584   12578   12579   12574
   12578   12579   12580   12584   12578   12580   12576   12577   12581   12582
   12583   12585   12586   12587   12588   12589   12590   12577   12581   12582
   12583   12581   12582   12583   12579   12580   12584   12584   12584   12582
   12583   12585   12586   12587   12588   12589   12590   12591   12592   12593
   12583   12585   12586   12587   12585   12586   12587       0   12586   12587
   12588   12589   12590   12591   12592   12593   12594   12595   12596   12587
   12588   12589   12590   12588   12589   12590   12589   12590   12591   12592
   12593   12594   12595   12596   12597   12598   12599   12590   12591   12592
   12593   12591   12592   12593   12592   12593   12594   12595   12596   12597
   12598   12599   12600   12601   12602   12593   12594   12595   12596   12594
   12595   12596   12595   12596   12597   12598   12599   12600   12601   12602
   12603   12604   12605   12596   12597   12598   12599   12597   12598   12599
   12598   12599   12600   12601   12602   12599   12600   12601   12602   12600
   12601   12602   12603   12604   12605   12606   12607   12608   12601   12602
   12603   12604   12605   12606   12607   12608   12602   12603   12604   12605
   12603   12604   12605   12604   12605   12606   12607   12608   12605   12606
   12607   12608   12606   12607   12608   12607   12608   12608       0   12610
   12611   12612   12613   12614   12615   12616   12617   12618   12619   12620
   12621   12611   12612   12613   12614   12615   12616   12617   12618   12621
   12622   12623   12624   12612   12613   12614   12615   12618   12619   12620
   12621   12625   12626   12627   12613   12615   12616   12617   12618   12622
   12623   12624   12628   12629   12630   12614   12615   12616   12617   12618
   12621   12624   12625   12627   12615   12619   12620   12621   12625   12626
   12631   12632   12633   12617   12618   12619   12620   12621   12625   12627
   12631   12617   12618   12622   12623   12624   12628   12629   12634   12618
   12622   12623   12624   12628   12630   12634   12621   12624   12628   12630
   12620   12621   12625   12626   12627   12631   12632   12633   12635   12636
   12637   12638   12625   12626   12625   12626   12627   12631   12623   12624
   12628   12629   12630   12634   12639   12640   12641   12628   12629   12628
   12629   12630   12634   12639   12640   12641   12626   12627   12631   12632
   12633   12631   12632   12633   12635   12636   12637   12638   12642   12643
   12644   12631   12629   12630   12634   12639   12640   12641   12645   12646
   12647   12634   12634       0   12633   12635   12636   12637   12638   12642
   12643   12648   12635   12636   12637   12638   12642   12644   12648   12639
   12640   12641   12645   12646   12647   12649   12650   12651   12636   12637
   12642   12643   12644   12648   12642   12643   12638   12642   12643   12644
   12648   12642   12644   12640   12641   12645   12646   12647   12649   12650
   12651   12652   12653   12654   12641   12645   12646   12647   12645   12646
   12647   12643   12644   12648   12648   12648   12646   12647   12649   12650
   12651   12652   12653   12654   12655   12656   12657   12647   12649   12650
   12651   12649   12650   12651       0   12650   12651   12652   12653   12654
   12655   12656   12657   12658   12659   12660   12651   12652   12653   12654
   12652   12653   12654   12653   12654   12655   12656   12657   12658   12659
   12660   12661   12662   12663   12654   12655   12656   12657   12655   12656
   12657   12656   12657   12658   12659   12660   12661   12662   12663   12664
   12665   12666   12657   12658   12659   12660   12658   12659   12660   12659
   12660   12661   12662   12663   12664   12665   12666   12667   12668   12669
   12660   12661   12662   12663   12661   12662   12663   12662   12663   12664
   12665   12666   12663   12664   12665   12666   12664   12665   12666   12667
   12668   12669   12670   12671   12672   12665   12666   12667   12668   12669
   12670   12671   12672   12666   12667   12668   12669   12667   12668   12669
   12668   12669   12670   12671   12672   12669   12670   12671   12672   12670
   12671   12672   12671   12672   12672       0   12674   12675   12676   12677
   12678   12679   12680   12681   12682   12683   12684   12685   12675   12676
   12677   12678   12679   12680   12681   12682   12685   12686   12687   12688
   12676   12677   12678   12679   12682   12683   12684   12685   12689   12690
   12691   12677   12679   12680   12681   12682   12686   12687   12688   12692
   12693   12694   12678   12679   12680   12681   12682   12685   12688   12689
   12691   12679   12683   12684   12685   12689   12690   12695   12696   12697
   12681   12682   12683   12684   12685   12689   12691   12695   12681   12682
   12686   12687   12688   12692   12693   12698   12682   12686   12687   12688
   12692   12694   12698   12685   12688   12692   12694   12684   12685   12689
   12690   12691   12695   12696   12697   12699   12700   12701   12702   12689
   12690   12689   12690   12691   12695   12687   12688   12692   12693   12694
   12698   12703   12704   12705   12692   12693   12692   12693   12694   12698
   12703   12704   12705   12690   12691   12695   12696   12697   12695   12696
   12697   12699   12700   12701   12702   12706   12707   12708   12695   12693
   12694   12698   12703   12704   12705   12709   12710   12711   12698   12698
       0   12697   12699   12700   12701   12702   12706   12707   12712   12699
   12700   12701   12702   12706   12708   12712   12703   12704   12705   12709
   12710   12711   12713   12714   12715   12700   12701   12706   12707   12708
   12712   12706   12707   12702   12706   12707   12708   12712   12706   12708
   12704   12705   12709   12710   12711   12713   12714   12715   12716   12717
   12718   12705   12709   12710   12711   12709   12710   12711   12707   12708
   12712   12712   12712   12710   12711   12713   12714   12715   12716   12717
   12718   12719   12720   12721   12711   12713   12714   12715   12713   12714
   12715       0   12714   12715   12716   12717   12718   12719   12720   12721
   12722   12723   12724   12715   12716   12717   12718   12716   12717   12718
   12717   12718   12719   12720   12721   12722   12723   12724   12725   12726
   12727   12718   12719   12720   12721   12719   12720   12721   12720   12721
   12722   12723   12724   12725   12726   12727   12728   12729   12730   12721
   12722   12723   12724   12722   12723   12724   12723   12724   12725   12726
   12727   12728   12729   12730   12731   12732   12733   12724   12725   12726
   12727   12725   12726   12727   12726   12727   12728   12729   12730   12727
   12728   12729   12730   12728   12729   12730   12731   12732   12733   12734
   12735   12736   12729   12730   12731   12732   12733   12734   12735   12736
   12730   12731   12732   12733   12731   12732   12733   12732   12733   12734
   12735   12736   12733   12734   12735   12736   12734   12735   12736   12735
   12736   12736       0   12738   12739   12740   12741   12742   12743   12744
   12745   12746   12747   12748   12749   12739   12740   12741   12742   12743
   12744   12745   12746   12749   12750   12751   12752   12740   12741   12742
   12743   12746   12747   12748   12749   12753   12754   12755   12741   12743
   12744   12745   12746   12750   12751   12752   12756   12757   12758   12742
   12743   12744   12745   12746   12749   12752   12753   12755   12743   12747
   12748   12749   12753   12754   12759   12760   12761   12745   12746   12747
   12748   12749   12753   12755   12759   12745   12746   12750   12751   12752
   12756   12757   12762   12746   12750   12751   12752   12756   12758   12762
   12749   12752   12756   12758   12748   12749   12753   12754   12755   12759
   12760   12761   12763   12764   12765   12766   12753   12754   12753   12754
   12755   12759   12751   12752   12756   12757   12758   12762   12767   12768
   12769   12756   12757   12756   12757   12758   12762   12767   12768   12769
   12754   12755   12759   12760   12761   12759   12760   12761   12763   12764
   12765   12766   12770   12771   12772   12759   12757   12758   12762   12767
   12768   12769   12773   12774   12775   12762   12762       0   12761   12763
   12764   12765   12766   12770   12771   12776   12763   12764   12765   12766
   12770   12772   12776   12767   12768   12769   12773   12774   12775   12777
   12778   12779   12764   12765   12770   12771   12772   12776   12770   12771
   12766   12770   12771   12772   12776   12770   12772   12768   12769   12773
   12774   12775   12777   12778   12779   12780   12781   12782   12769   12773
   12774   12775   12773   12774   12775   12771   12772   12776   12776   12776
   12774   12775   12777   12778   12779   12780   12781   12782   12783   12784
   12785   12775   12777   12778   12779   12777   12778   12779       0   12778
   12779   12780   12781   12782   12783   12784   12785   12786   12787   12788
   12779   12780   12781   12782   12780   12781   12782   12781   12782   12783
   12784   12785   12786   12787   12788   12789   12790   12791   12782   12783
   12784   12785   12783   12784   12785   12784   12785   12786   12787   12788
   12789   12790   12791   12792   12793   12794   12785   12786   12787   12788
   12786   12787   12788   12787   12788   12789   12790   12791   12792   12793
   12794   12795   12796   12797   12788   12789   12790   12791   12789   12790
   12791   12790   12791   12792   12793   12794   12791   12792   12793   12794
   12792   12793   12794   12795   12796   12797   12798   12799   12800   12793
   12794   12795   12796   12797   12798   12799   12800   12794   12795   12796
   12797   12795   12796   12797   12796   12797   12798   12799   12800   12797
   12798   12799   12800   12798   12799   12800   12799   12800   12800       0
   12802   12803   12804   12805   12806   12807   12808   12809   12810   12811
   12812   12813   12803   12804   12805   12806   12807   12808   12809   12810
   12813   12814   12815   12816   12804   12805   12806   12807   12810   12811
   12812   12813   12817   12818   12819   12805   12807   12808   12809   12810
   12814   12815   12816   12820   12821   12822   12806   12807   12808   12809
   12810   12813   12816   12817   12819   12807   12811   12812   12813   12817
   12818   12823   12824   12825   12809   12810   12811   12812   12813   12817
   12819   12823   12809   12810   12814   12815   12816   12820   12821   12826
   12810   12814   12815   12816   12820   12822   12826   12813   12816   12820
   12822   12812   12813   12817   12818   12819   12823   12824   12825   12827
   12828   12829   12830   12817   12818   12817   12818   12819   12823   12815
   12816   12820   12821   12822   12826   12831   12832   12833   12820   12821
   12820   12821   12822   12826   12831   12832   12833   12818   12819   12823
   12824   12825   12823   12824   12825   12827   12828   12829   12830   12834
   12835   12836   12823   12821   12822   12826   12831   12832   12833   12837
   12838   12839   12826   12826       0   12825   12827   12828   12829   12830
   12834   12835   12840   12827   12828   12829   12830   12834   12836   12840
   12831   12832   12833   12837   12838   12839   12841   12842   12843   12828
   12829   12834   12835   12836   12840   12834   12835   12830   12834   12835
   12836   12840   12834   12836   12832   12833   12837   12838   12839   12841
   12842   12843   12844   12845   12846   12833   12837   12838   12839   12837
   12838   12839   12835   12836   12840   12840   12840   12838   12839   12841
   12842   12843   12844   12845   12846   12847   12848   12849   12839   12841
   12842   12843   12841   12842   12843       0   12842   12843   12844   12845
   12846   12847   12848   12849   12850   12851   12852   12843   12844   12845
   12846   12844   12845   12846   12845   12846   12847   12848   12849   12850
   12851   12852   12853   12854   12855   12846   12847   12848   12849   12847
   12848   12849   12848   12849   12850   12851   12852   12853   12854   12855
   12856   12857   12858   12849   12850   12851   12852   12850   12851   12852
   12851   12852   12853   12854   12855   12856   12857   12858   12859   12860
   12861   12852   12853   12854   12855   12853   12854   12855   12854   12855
   12856   12857   12858   12855   12856   12857   12858   12856   12857   12858
   12859   12860   12861   12862   12863   12864   12857   12858   12859   12860
   12861   12862   12863   12864   12858   12859   12860   12861   12859   12860
   12861   12860   12861   12862   12863   12864   12861   12862   12863   12864
   12862   12863   12864   12863   12864   12864       0   12866   12867   12868
   12869   12870   12871   12872   12873   12874   12875   12876   12877   12867
   12868   12869   12870   12871   12872   12873   12874   12877   12878   12879
   12880   12868   12869   12870   12871   12874   12875   12876   12877   12881
   12882   12883   12869   12871   12872   12873   12874   12878   12879   12880
   12884   12885   12886   12870   12871   12872   12873   12874   12877   12880
   12881   12883   12871   12875   12876   12877   12881   12882   12887   12888
   12889   12873   12874   12875   12876   12877   12881   12883   12887   12873
   12874   12878   12879   12880   12884   12885   12890   12874   12878   12879
   12880   12884   12886   12890   12877   12880   12884   12886   12876   12877
   12881   12882   12883   12887   12888   12889   12891   12892   12893   12894
   12881   12882   12881   12882   12883   12887   12879   12880   12884   12885
   12886   12890   12895   12896   12897   12884   12885   12884   12885   12886
   12890   12895   12896   12897   12882   12883   12887   12888   12889   12887
   12888   12889   12891   12892   12893   12894   12898   12899   12900   12887
   12885   12886   12890   12895   12896   12897   12901   12902   12903   12890
   12890       0   12889   12891   12892   12893   12894   12898   12899   12904
   12891   12892   12893   12894   12898   12900   12904   12895   12896   12897
   12901   12902   12903   12905   12906   12907   12892   12893   12898   12899
   12900   12904   12898   12899   12894   12898   12899   12900   12904   12898
   12900   12896   12897   12901   12902   12903   12905   12906   12907   12908
   12909   12910   12897   12901   12902   12903   12901   12902   12903   12899
   12900   12904   12904   12904   12902   12903   12905   12906   12907   12908
   12909   12910   12911   12912   12913   12903   12905   12906   12907   12905
   12906   12907       0   12906   12907   12908   12909   12910   12911   12912
   12913   12914   12915   12916   12907   12908   12909   12910   12908   12909
   12910   12909   12910   12911   12912   12913   12914   12915   12916   12917
   12918   12919   12910   12911   12912   12913   12911   12912   12913   12912
   12913   12914   12915   12916   12917   12918   12919   12920   12921   12922
   12913   12914   12915   12916   12914   12915   12916   12915   12916   12917
   12918   12919   12920   12921   12922   12923   12924   12925   12916   12917
   12918   12919   12917   12918   12919   12918   12919   12920   12921   12922
   12919   12920   12921   12922   12920   12921   12922   12923   12924   12925
   12926   12927   12928   12921   12922   12923   12924   12925   12926   12927
   12928   12922   12923   12924   12925   12923   12924   12925   12924   12925
   12926   12927   12928   12925   12926   12927   12928   12926   12927   12928
   12927   12928   12928       0   12930   12931   12932   12933   12934   12935
   12936   12937   12938   12939   12940   12941   12931   12932   12933   12934
   12935   12936   12937   12938   12941   12942   12943   12944   12932   12933
   12934   12935   12938   12939   12940   12941   12945   12946   12947   12933
   12935   12936   12937   12938   12942   12943   12944   12948   12949   12950
   12934   12935   12936   12937   12938   12941   12944   12945   12947   12935
   12939   12940   12941   12945   12946   12951   12952   12953   12937   12938
   12939   12940   12941   12945   12947   12951   12937   12938   12942   12943
   12944   12948   12949   12954   12938   12942   12943   12944   12948   12950
   12954   12941   12944   12948   12950   12940   12941   12945   12946   12947
   12951   12952   12953   12955   12956   12957   12958   12945   12946   12945
   12946   12947   12951   12943   12944   12948   12949   12950   12954   12959
   12960   12961   12948   12949   12948   12949   12950   12954   12959   12960
   12961   12946   12947   12951   12952   12953   12951   12952   12953   12955
   12956   12957   12958   12962   12963   12964   12951   12949   12950   12954
   12959   12960   12961   12965   12966   12967   12954   12954       0   12953
   12955   12956   12957   12958   12962   12963   12968   12955   12956   12957
   12958   12962   12964   12968   12959   12960   12961   12965   12966   12967
   12969   12970   12971   12956   12957   12962   12963   12964   12968   12962
   12963   12958   12962   12963   12964   12968   12962   12964   12960   12961
   12965   12966   12967   12969   12970   12971   12972   12973   12974   12961
   12965   12966   12967   12965   12966   12967   12963   12964   12968   12968
   12968   12966   12967   12969   12970   12971   12972   12973   12974   12975
   12976   12977   12967   12969   12970   12971   12969   12970   12971       0
   12970   12971   12972   12973   12974   12975   12976   12977   12978   12979
   12980   12971   12972   12973   12974   12972   12973   12974   12973   12974
   12975   12976   12977   12978   12979   12980   12981   12982   12983   12974
   12975   12976   12977   12975   12976   12977   12976   12977   12978   12979
   12980   12981   12982   12983   12984   12985   12986   12977   12978   12979
   12980   12978   12979   12980   12979   12980   12981   12982   12983   12984
   12985   12986   12987   12988   12989   12980   12981   12982   12983   12981
   12982   12983   12982   12983   12984   12985   12986   12983   12984   12985
   12986   12984   12985   12986   12987   12988   12989   12990   12991   12992
   12985   12986   12987   12988   12989   12990   12991   12992   12986   12987
   12988   12989   12987   12988   12989   12988   12989   12990   12991   12992
   12989   12990   12991   12992   12990   12991   12992   12991   12992   12992
       0   12994   12995   12996   12997   12998   12999   13000   13001   13002
   13003   13004   13005   12995   12996   12997   12998   12999   13000   13001
   13002   13005   13006   13007   13008   12996   12997   12998   12999   13002
   13003   13004   13005   13009   13010   13011   12997   12999   13000   13001
   13002   13006   13007   13008   13012   13013   13014   12998   12999   13000
   13001   13002   13005   13008   13009   13011   12999   13003   13004   13005
   13009   13010   13015   13016   13017   13001   13002   13003   13004   13005
   13009   13011   13015   13001   13002   13006   13007   13008   13012   13013
   13018   13002   13006   13007   13008   13012   13014   13018   13005   13008
   13012   13014   13004   13005   13009   13010   13011   13015   13016   13017
   13019   13020   13021   13022   13009   13010   13009   13010   13011   13015
   13007   13008   13012   13013   13014   13018   13023   13024   13025   13012
   13013   13012   13013   13014   13018   13023   13024   13025   13010   13011
   13015   13016   13017   13015   13016   13017   13019   13020   13021   13022
   13026   13027   13028   13015   13013   13014   13018   13023   13024   13025
   13029   13030   13031   13018   13018       0   13017   13019   13020   13021
   13022   13026   13027   13032   13019   13020   13021   13022   13026   13028
   13032   13023   13024   13025   13029   13030   13031   13033   13034   13035
   13020   13021   13026   13027   13028   13032   13026   13027   13022   13026
   13027   13028   13032   13026   13028   13024   13025   13029   13030   13031
   13033   13034   13035   13036   13037   13038   13025   13029   13030   13031
   13029   13030   13031   13027   13028   13032   13032   13032   13030   13031
   13033   13034   13035   13036   13037   13038   13039   13040   13041   13031
   13033   13034   13035   13033   13034   13035       0   13034   13035   13036
   13037   13038   13039   13040   13041   13042   13043   13044   13035   13036
   13037   13038   13036   13037   13038   13037   13038   13039   13040   13041
   13042   13043   13044   13045   13046   13047   13038   13039   13040   13041
   13039   13040   13041   13040   13041   13042   13043   13044   13045   13046
   13047   13048   13049   13050   13041   13042   13043   13044   13042   13043
   13044   13043   13044   13045   13046   13047   13048   13049   13050   13051
   13052   13053   13044   13045   13046   13047   13045   13046   13047   13046
   13047   13048   13049   13050   13047   13048   13049   13050   13048   13049
   13050   13051   13052   13053   13054   13055   13056   13049   13050   13051
   13052   13053   13054   13055   13056   13050   13051   13052   13053   13051
   13052   13053   13052   13053   13054   13055   13056   13053   13054   13055
   13056   13054   13055   13056   13055   13056   13056       0   13058   13059
   13060   13061   13062   13063   13064   13065   13066   13067   13068   13069
   13059   13060   13061   13062   13063   13064   13065   13066   13069   13070
   13071   13072   13060   13061   13062   13063   13066   13067   13068   13069
   13073   13074   13075   13061   13063   13064   13065   13066   13070   13071
   13072   13076   13077   13078   13062   13063   13064   13065   13066   13069
   13072   13073   13075   13063   13067   13068   13069   13073   13074   13079
   13080   13081   13065   13066   13067   13068   13069   13073   13075   13079
   13065   13066   13070   13071   13072   13076   13077   13082   13066   13070
   13071   13072   13076   13078   13082   13069   13072   13076   13078   13068
   13069   13073   13074   13075   13079   13080   13081   13083   13084   13085
   13086   13073   13074   13073   13074   13075   13079   13071   13072   13076
   13077   13078   13082   13087   13088   13089   13076   13077   13076   13077
   13078   13082   13087   13088   13089   13074   13075   13079   13080   13081
   13079   13080   13081   13083   13084   13085   13086   13090   13091   13092
   13079   13077   13078   13082   13087   13088   13089   13093   13094   13095
   13082   13082       0   13081   13083   13084   13085   13086   13090   13091
   13096   13083   13084   13085   13086   13090   13092   13096   13087   13088
   13089   13093   13094   13095   13097   13098   13099   13084   13085   13090
   13091   13092   13096   13090   13091   13086   13090   13091   13092   13096
   13090   13092   13088   13089   13093   13094   13095   13097   13098   13099
   13100   13101   13102   13089   13093   13094   13095   13093   13094   13095
   13091   13092   13096   13096   13096   13094   13095   13097   13098   13099
   13100   13101   13102   13103   13104   13105   13095   13097   13098   13099
   13097   13098   13099       0   13098   13099   13100   13101   13102   13103
   13104   13105   13106   13107   13108   13099   13100   13101   13102   13100
   13101   13102   13101   13102   13103   13104   13105   13106   13107   13108
   13109   13110   13111   13102   13103   13104   13105   13103   13104   13105
   13104   13105   13106   13107   13108   13109   13110   13111   13112   13113
   13114   13105   13106   13107   13108   13106   13107   13108   13107   13108
   13109   13110   13111   13112   13113   13114   13115   13116   13117   13108
   13109   13110   13111   13109   13110   13111   13110   13111   13112   13113
   13114   13111   13112   13113   13114   13112   13113   13114   13115   13116
   13117   13118   13119   13120   13113   13114   13115   13116   13117   13118
   13119   13120   13114   13115   13116   13117   13115   13116   13117   13116
   13117   13118   13119   13120   13117   13118   13119   13120   13118   13119
   13120   13119   13120   13120       0   13122   13123   13124   13125   13126
   13127   13128   13129   13130   13131   13132   13133   13123   13124   13125
   13126   13127   13128   13129   13130   13133   13134   13135   13136   13124
   13125   13126   13127   13130   13131   13132   13133   13137   13138   13139
   13125   13127   13128   13129   13130   13134   13135   13136   13140   13141
   13142   13126   13127   13128   13129   13130   13133   13136   13137   13139
   13127   13131   13132   13133   13137   13138   13143   13144   13145   13129
   13130   13131   13132   13133   13137   13139   13143   13129   13130   13134
   13135   13136   13140   13141   13146   13130   13134   13135   13136   13140
   13142   13146   13133   13136   13140   13142   13132   13133   13137   13138
   13139   13143   13144   13145   13147   13148   13149   13150   13137   13138
   13137   13138   13139   13143   13135   13136   13140   13141   13142   13146
   13151   13152   13153   13140   13141   13140   13141   13142   13146   13151
   13152   13153   13138   13139   13143   13144   13145   13143   13144   13145
   13147   13148   13149   13150   13154   13155   13156   13143   13141   13142
   13146   13151   13152   13153   13157   13158   13159   13146   13146       0
   13145   13147   13148   13149   13150   13154   13155   13160   13147   13148
   13149   13150   13154   13156   13160   13151   13152   13153   13157   13158
   13159   13161   13162   13163   13148   13149   13154   13155   13156   13160
   13154   13155   13150   13154   13155   13156   13160   13154   13156   13152
   13153   13157   13158   13159   13161   13162   13163   13164   13165   13166
   13153   13157   13158   13159   13157   13158   13159   13155   13156   13160
   13160   13160   13158   13159   13161   13162   13163   13164   13165   13166
   13167   13168   13169   13159   13161   13162   13163   13161   13162   13163
       0   13162   13163   13164   13165   13166   13167   13168   13169   13170
   13171   13172   13163   13164   13165   13166   13164   13165   13166   13165
   13166   13167   13168   13169   13170   13171   13172   13173   13174   13175
   13166   13167   13168   13169   13167   13168   13169   13168   13169   13170
   13171   13172   13173   13174   13175   13176   13177   13178   13169   13170
   13171   13172   13170   13171   13172   13171   13172   13173   13174   13175
   13176   13177   13178   13179   13180   13181   13172   13173   13174   13175
   13173   13174   13175   13174   13175   13176   13177   13178   13175   13176
   13177   13178   13176   13177   13178   13179   13180   13181   13182   13183
   13184   13177   13178   13179   13180   13181   13182   13183   13184   13178
   13179   13180   13181   13179   13180   13181   13180   13181   13182   13183
   13184   13181   13182   13183   13184   13182   13183   13184   13183   13184
   13184       0   13186   13187   13188   13189   13190   13191   13192   13193
   13194   13195   13196   13197   13187   13188   13189   13190   13191   13192
   13193   13194   13197   13198   13199   13200   13188   13189   13190   13191
   13194   13195   13196   13197   13201   13202   13203   13189   13191   13192
   13193   13194   13198   13199   13200   13204   13205   13206   13190   13191
   13192   13193   13194   13197   13200   13201   13203   13191   13195   13196
   13197   13201   13202   13207   13208   13209   13193   13194   13195   13196
   13197   13201   13203   13207   13193   13194   13198   13199   13200   13204
   13205   13210   13194   13198   13199   13200   13204   13206   13210   13197
   13200   13204   13206   13196   13197   13201   13202   13203   13207   13208
   13209   13211   13212   13213   13214   13201   13202   13201   13202   13203
   13207   13199   13200   13204   13205   13206   13210   13215   13216   13217
   13204   13205   13204   13205   13206   13210   13215   13216   13217   13202
   13203   13207   13208   13209   13207   13208   13209   13211   13212   13213
   13214   13218   13219   13220   13207   13205   13206   13210   13215   13216
   13217   13221   13222   13223   13210   13210       0   13209   13211   13212
   13213   13214   13218   13219   13224   13211   13212   13213   13214   13218
   13220   13224   13215   13216   13217   13221   13222   13223   13225   13226
   13227   13212   13213   13218   13219   13220   13224   13218   13219   13214
   13218   13219   13220   13224   13218   13220   13216   13217   13221   13222
   13223   13225   13226   13227   13228   13229   13230   13217   13221   13222
   13223   13221   13222   13223   13219   13220   13224   13224   13224   13222
   13223   13225   13226   13227   13228   13229   13230   13231   13232   13233
   13223   13225   13226   13227   13225   13226   13227       0   13226   13227
   13228   13229   13230   13231   13232   13233   13234   13235   13236   13227
   13228   13229   13230   13228   13229   13230   13229   13230   13231   13232
   13233   13234   13235   13236   13237   13238   13239   13230   13231   13232
   13233   13231   13232   13233   13232   13233   13234   13235   13236   13237
   13238   13239   13240   13241   13242   13233   13234   13235   13236   13234
   13235   13236   13235   13236   13237   13238   13239   13240   13241   13242
   13243   13244   13245   13236   13237   13238   13239   13237   13238   13239
   13238   13239   13240   13241   13242   13239   13240   13241   13242   13240
   13241   13242   13243   13244   13245   13246   13247   13248   13241   13242
   13243   13244   13245   13246   13247   13248   13242   13243   13244   13245
   13243   13244   13245   13244   13245   13246   13247   13248   13245   13246
   13247   13248   13246   13247   13248   13247   13248   13248       0   13250
   13251   13252   13253   13254   13255   13256   13257   13258   13259   13260
   13261   13251   13252   13253   13254   13255   13256   13257   13258   13261
   13262   13263   13264   13252   13253   13254   13255   13258   13259   13260
   13261   13265   13266   13267   13253   13255   13256   13257   13258   13262
   13263   13264   13268   13269   13270   13254   13255   13256   13257   13258
   13261   13264   13265   13267   13255   13259   13260   13261   13265   13266
   13271   13272   13273   13257   13258   13259   13260   13261   13265   13267
   13271   13257   13258   13262   13263   13264   13268   13269   13274   13258
   13262   13263   13264   13268   13270   13274   13261   13264   13268   13270
   13260   13261   13265   13266   13267   13271   13272   13273   13275   13276
   13277   13278   13265   13266   13265   13266   13267   13271   13263   13264
   13268   13269   13270   13274   13279   13280   13281   13268   13269   13268
   13269   13270   13274   13279   13280   13281   13266   13267   13271   13272
   13273   13271   13272   13273   13275   13276   13277   13278   13282   13283
   13284   13271   13269   13270   13274   13279   13280   13281   13285   13286
   13287   13274   13274       0   13273   13275   13276   13277   13278   13282
   13283   13288   13275   13276   13277   13278   13282   13284   13288   13279
   13280   13281   13285   13286   13287   13289   13290   13291   13276   13277
   13282   13283   13284   13288   13282   13283   13278   13282   13283   13284
   13288   13282   13284   13280   13281   13285   13286   13287   13289   13290
   13291   13292   13293   13294   13281   13285   13286   13287   13285   13286
   13287   13283   13284   13288   13288   13288   13286   13287   13289   13290
   13291   13292   13293   13294   13295   13296   13297   13287   13289   13290
   13291   13289   13290   13291       0   13290   13291   13292   13293   13294
   13295   13296   13297   13298   13299   13300   13291   13292   13293   13294
   13292   13293   13294   13293   13294   13295   13296   13297   13298   13299
   13300   13301   13302   13303   13294   13295   13296   13297   13295   13296
   13297   13296   13297   13298   13299   13300   13301   13302   13303   13304
   13305   13306   13297   13298   13299   13300   13298   13299   13300   13299
   13300   13301   13302   13303   13304   13305   13306   13307   13308   13309
   13300   13301   13302   13303   13301   13302   13303   13302   13303   13304
   13305   13306   13303   13304   13305   13306   13304   13305   13306   13307
   13308   13309   13310   13311   13312   13305   13306   13307   13308   13309
   13310   13311   13312   13306   13307   13308   13309   13307   13308   13309
   13308   13309   13310   13311   13312   13309   13310   13311   13312   13310
   13311   13312   13311   13312   13312       0   13314   13315   13316   13317
   13318   13319   13320   13321   13322   13323   13324   13325   13315   13316
   13317   13318   13319   13320   13321   13322   13325   13326   13327   13328
   13316   13317   13318   13319   13322   13323   13324   13325   13329   13330
   13331   13317   13319   13320   13321   13322   13326   13327   13328   13332
   13333   13334   13318   13319   13320   13321   13322   13325   13328   13329
   13331   13319   13323   13324   13325   13329   13330   13335   13336   13337
   13321   13322   13323   13324   13325   13329   13331   13335   13321   13322
   13326   13327   13328   13332   13333   13338   13322   13326   13327   13328
   13332   13334   13338   13325   13328   13332   13334   13324   13325   13329
   13330   13331   13335   13336   13337   13339   13340   13341   13342   13329
   13330   13329   13330   13331   13335   13327   13328   13332   13333   13334
   13338   13343   13344   13345   13332   13333   13332   13333   13334   13338
   13343   13344   13345   13330   13331   13335   13336   13337   13335   13336
   13337   13339   13340   13341   13342   13346   13347   13348   13335   13333
   13334   13338   13343   13344   13345   13349   13350   13351   13338   13338
       0   13337   13339   13340   13341   13342   13346   13347   13352   13339
   13340   13341   13342   13346   13348   13352   13343   13344   13345   13349
   13350   13351   13353   13354   13355   13340   13341   13346   13347   13348
   13352   13346   13347   13342   13346   13347   13348   13352   13346   13348
   13344   13345   13349   13350   13351   13353   13354   13355   13356   13357
   13358   13345   13349   13350   13351   13349   13350   13351   13347   13348
   13352   13352   13352   13350   13351   13353   13354   13355   13356   13357
   13358   13359   13360   13361   13351   13353   13354   13355   13353   13354
   13355       0   13354   13355   13356   13357   13358   13359   13360   13361
   13362   13363   13364   13355   13356   13357   13358   13356   13357   13358
   13357   13358   13359   13360   13361   13362   13363   13364   13365   13366
   13367   13358   13359   13360   13361   13359   13360   13361   13360   13361
   13362   13363   13364   13365   13366   13367   13368   13369   13370   13361
   13362   13363   13364   13362   13363   13364   13363   13364   13365   13366
   13367   13368   13369   13370   13371   13372   13373   13364   13365   13366
   13367   13365   13366   13367   13366   13367   13368   13369   13370   13367
   13368   13369   13370   13368   13369   13370   13371   13372   13373   13374
   13375   13376   13369   13370   13371   13372   13373   13374   13375   13376
   13370   13371   13372   13373   13371   13372   13373   13372   13373   13374
   13375   13376   13373   13374   13375   13376   13374   13375   13376   13375
   13376   13376       0   13378   13379   13380   13381   13382   13383   13384
   13385   13386   13387   13388   13389   13379   13380   13381   13382   13383
   13384   13385   13386   13389   13390   13391   13392   13380   13381   13382
   13383   13386   13387   13388   13389   13393   13394   13395   13381   13383
   13384   13385   13386   13390   13391   13392   13396   13397   13398   13382
   13383   13384   13385   13386   13389   13392   13393   13395   13383   13387
   13388   13389   13393   13394   13399   13400   13401   13385   13386   13387
   13388   13389   13393   13395   13399   13385   13386   13390   13391   13392
   13396   13397   13402   13386   13390   13391   13392   13396   13398   13402
   13389   13392   13396   13398   13388   13389   13393   13394   13395   13399
   13400   13401   13403   13404   13405   13406   13393   13394   13393   13394
   13395   13399   13391   13392   13396   13397   13398   13402   13407   13408
   13409   13396   13397   13396   13397   13398   13402   13407   13408   13409
   13394   13395   13399   13400   13401   13399   13400   13401   13403   13404
   13405   13406   13410   13411   13412   13399   13397   13398   13402   13407
   13408   13409   13413   13414   13415   13402   13402       0   13401   13403
   13404   13405   13406   13410   13411   13416   13403   13404   13405   13406
   13410   13412   13416   13407   13408   13409   13413   13414   13415   13417
   13418   13419   13404   13405   13410   13411   13412   13416   13410   13411
   13406   13410   13411   13412   13416   13410   13412   13408   13409   13413
   13414   13415   13417   13418   13419   13420   13421   13422   13409   13413
   13414   13415   13413   13414   13415   13411   13412   13416   13416   13416
   13414   13415   13417   13418   13419   13420   13421   13422   13423   13424
   13425   13415   13417   13418   13419   13417   13418   13419       0   13418
   13419   13420   13421   13422   13423   13424   13425   13426   13427   13428
   13419   13420   13421   13422   13420   13421   13422   13421   13422   13423
   13424   13425   13426   13427   13428   13429   13430   13431   13422   13423
   13424   13425   13423   13424   13425   13424   13425   13426   13427   13428
   13429   13430   13431   13432   13433   13434   13425   13426   13427   13428
   13426   13427   13428   13427   13428   13429   13430   13431   13432   13433
   13434   13435   13436   13437   13428   13429   13430   13431   13429   13430
   13431   13430   13431   13432   13433   13434   13431   13432   13433   13434
   13432   13433   13434   13435   13436   13437   13438   13439   13440   13433
   13434   13435   13436   13437   13438   13439   13440   13434   13435   13436
   13437   13435   13436   13437   13436   13437   13438   13439   13440   13437
   13438   13439   13440   13438   13439   13440   13439   13440   13440       0
   13442   13443   13444   13445   13446   13447   13448   13449   13450   13451
   13452   13453   13443   13444   13445   13446   13447   13448   13449   13450
   13453   13454   13455   13456   13444   13445   13446   13447   13450   13451
   13452   13453   13457   13458   13459   13445   13447   13448   13449   13450
   13454   13455   13456   13460   13461   13462   13446   13447   13448   13449
   13450   13453   13456   13457   13459   13447   13451   13452   13453   13457
   13458   13463   13464   13465   13449   13450   13451   13452   13453   13457
   13459   13463   13449   13450   13454   13455   13456   13460   13461   13466
   13450   13454   13455   13456   13460   13462   13466   13453   13456   13460
   13462   13452   13453   13457   13458   13459   13463   13464   13465   13467
   13468   13469   13470   13457   13458   13457   13458   13459   13463   13455
   13456   13460   13461   13462   13466   13471   13472   13473   13460   13461
   13460   13461   13462   13466   13471   13472   13473   13458   13459   13463
   13464   13465   13463   13464   13465   13467   13468   13469   13470   13474
   13475   13476   13463   13461   13462   13466   13471   13472   13473   13477
   13478   13479   13466   13466       0   13465   13467   13468   13469   13470
   13474   13475   13480   13467   13468   13469   13470   13474   13476   13480
   13471   13472   13473   13477   13478   13479   13481   13482   13483   13468
   13469   13474   13475   13476   13480   13474   13475   13470   13474   13475
   13476   13480   13474   13476   13472   13473   13477   13478   13479   13481
   13482   13483   13484   13485   13486   13473   13477   13478   13479   13477
   13478   13479   13475   13476   13480   13480   13480   13478   13479   13481
   13482   13483   13484   13485   13486   13487   13488   13489   13479   13481
   13482   13483   13481   13482   13483       0   13482   13483   13484   13485
   13486   13487   13488   13489   13490   13491   13492   13483   13484   13485
   13486   13484   13485   13486   13485   13486   13487   13488   13489   13490
   13491   13492   13493   13494   13495   13486   13487   13488   13489   13487
   13488   13489   13488   13489   13490   13491   13492   13493   13494   13495
   13496   13497   13498   13489   13490   13491   13492   13490   13491   13492
   13491   13492   13493   13494   13495   13496   13497   13498   13499   13500
   13501   13492   13493   13494   13495   13493   13494   13495   13494   13495
   13496   13497   13498   13495   13496   13497   13498   13496   13497   13498
   13499   13500   13501   13502   13503   13504   13497   13498   13499   13500
   13501   13502   13503   13504   13498   13499   13500   13501   13499   13500
   13501   13500   13501   13502   13503   13504   13501   13502   13503   13504
   13502   13503   13504   13503   13504   13504       0   13506   13507   13508
   13509   13510   13511   13512   13513   13514   13515   13516   13517   13507
   13508   13509   13510   13511   13512   13513   13514   13517   13518   13519
   13520   13508   13509   13510   13511   13514   13515   13516   13517   13521
   13522   13523   13509   13511   13512   13513   13514   13518   13519   13520
   13524   13525   13526   13510   13511   13512   13513   13514   13517   13520
   13521   13523   13511   13515   13516   13517   13521   13522   13527   13528
   13529   13513   13514   13515   13516   13517   13521   13523   13527   13513
   13514   13518   13519   13520   13524   13525   13530   13514   13518   13519
   13520   13524   13526   13530   13517   13520   13524   13526   13516   13517
   13521   13522   13523   13527   13528   13529   13531   13532   13533   13534
   13521   13522   13521   13522   13523   13527   13519   13520   13524   13525
   13526   13530   13535   13536   13537   13524   13525   13524   13525   13526
   13530   13535   13536   13537   13522   13523   13527   13528   13529   13527
   13528   13529   13531   13532   13533   13534   13538   13539   13540   13527
   13525   13526   13530   13535   13536   13537   13541   13542   13543   13530
   13530       0   13529   13531   13532   13533   13534   13538   13539   13544
   13531   13532   13533   13534   13538   13540   13544   13535   13536   13537
   13541   13542   13543   13545   13546   13547   13532   13533   13538   13539
   13540   13544   13538   13539   13534   13538   13539   13540   13544   13538
   13540   13536   13537   13541   13542   13543   13545   13546   13547   13548
   13549   13550   13537   13541   13542   13543   13541   13542   13543   13539
   13540   13544   13544   13544   13542   13543   13545   13546   13547   13548
   13549   13550   13551   13552   13553   13543   13545   13546   13547   13545
   13546   13547       0   13546   13547   13548   13549   13550   13551   13552
   13553   13554   13555   13556   13547   13548   13549   13550   13548   13549
   13550   13549   13550   13551   13552   13553   13554   13555   13556   13557
   13558   13559   13550   13551   13552   13553   13551   13552   13553   13552
   13553   13554   13555   13556   13557   13558   13559   13560   13561   13562
   13553   13554   13555   13556   13554   13555   13556   13555   13556   13557
   13558   13559   13560   13561   13562   13563   13564   13565   13556   13557
   13558   13559   13557   13558   13559   13558   13559   13560   13561   13562
   13559   13560   13561   13562   13560   13561   13562   13563   13564   13565
   13566   13567   13568   13561   13562   13563   13564   13565   13566   13567
   13568   13562   13563   13564   13565   13563   13564   13565   13564   13565
   13566   13567   13568   13565   13566   13567   13568   13566   13567   13568
   13567   13568   13568       0   13570   13571   13572   13573   13574   13575
   13576   13577   13578   13579   13580   13581   13571   13572   13573   13574
   13575   13576   13577   13578   13581   13582   13583   13584   13572   13573
   13574   13575   13578   13579   13580   13581   13585   13586   13587   13573
   13575   13576   13577   13578   13582   13583   13584   13588   13589   13590
   13574   13575   13576   13577   13578   13581   13584   13585   13587   13575
   13579   13580   13581   13585   13586   13591   13592   13593   13577   13578
   13579   13580   13581   13585   13587   13591   13577   13578   13582   13583
   13584   13588   13589   13594   13578   13582   13583   13584   13588   13590
   13594   13581   13584   13588   13590   13580   13581   13585   13586   13587
   13591   13592   13593   13595   13596   13597   13598   13585   13586   13585
   13586   13587   13591   13583   13584   13588   13589   13590   13594   13599
   13600   13601   13588   13589   13588   13589   13590   13594   13599   13600
   13601   13586   13587   13591   13592   13593   13591   13592   13593   13595
   13596   13597   13598   13602   13603   13604   13591   13589   13590   13594
   13599   13600   13601   13605   13606   13607   13594   13594       0   13593
   13595   13596   13597   13598   13602   13603   13608   13595   13596   13597
   13598   13602   13604   13608   13599   13600   13601   13605   13606   13607
   13609   13610   13611   13596   13597   13602   13603   13604   13608   13602
   13603   13598   13602   13603   13604   13608   13602   13604   13600   13601
   13605   13606   13607   13609   13610   13611   13612   13613   13614   13601
   13605   13606   13607   13605   13606   13607   13603   13604   13608   13608
   13608   13606   13607   13609   13610   13611   13612   13613   13614   13615
   13616   13617   13607   13609   13610   13611   13609   13610   13611       0
   13610   13611   13612   13613   13614   13615   13616   13617   13618   13619
   13620   13611   13612   13613   13614   13612   13613   13614   13613   13614
   13615   13616   13617   13618   13619   13620   13621   13622   13623   13614
   13615   13616   13617   13615   13616   13617   13616   13617   13618   13619
   13620   13621   13622   13623   13624   13625   13626   13617   13618   13619
   13620   13618   13619   13620   13619   13620   13621   13622   13623   13624
   13625   13626   13627   13628   13629   13620   13621   13622   13623   13621
   13622   13623   13622   13623   13624   13625   13626   13623   13624   13625
   13626   13624   13625   13626   13627   13628   13629   13630   13631   13632
   13625   13626   13627   13628   13629   13630   13631   13632   13626   13627
   13628   13629   13627   13628   13629   13628   13629   13630   13631   13632
   13629   13630   13631   13632   13630   13631   13632   13631   13632   13632
       0   13634   13635   13636   13637   13638   13639   13640   13641   13642
   13643   13644   13645   13635   13636   13637   13638   13639   13640   13641
   13642   13645   13646   13647   13648   13636   13637   13638   13639   13642
   13643   13644   13645   13649   13650   13651   13637   13639   13640   13641
   13642   13646   13647   13648   13652   13653   13654   13638   13639   13640
   13641   13642   13645   13648   13649   13651   13639   13643   13644   13645
   13649   13650   13655   13656   13657   13641   13642   13643   13644   13645
   13649   13651   13655   13641   13642   13646   13647   13648   13652   13653
   13658   13642   13646   13647   13648   13652   13654   13658   13645   13648
   13652   13654   13644   13645   13649   13650   13651   13655   13656   13657
   13659   13660   13661   13662   13649   13650   13649   13650   13651   13655
   13647   13648   13652   13653   13654   13658   13663   13664   13665   13652
   13653   13652   13653   13654   13658   13663   13664   13665   13650   13651
   13655   13656   13657   13655   13656   13657   13659   13660   13661   13662
   13666   13667   13668   13655   13653   13654   13658   13663   13664   13665
   13669   13670   13671   13658   13658       0   13657   13659   13660   13661
   13662   13666   13667   13672   13659   13660   13661   13662   13666   13668
   13672   13663   13664   13665   13669   13670   13671   13673   13674   13675
   13660   13661   13666   13667   13668   13672   13666   13667   13662   13666
   13667   13668   13672   13666   13668   13664   13665   13669   13670   13671
   13673   13674   13675   13676   13677   13678   13665   13669   13670   13671
   13669   13670   13671   13667   13668   13672   13672   13672   13670   13671
   13673   13674   13675   13676   13677   13678   13679   13680   13681   13671
   13673   13674   13675   13673   13674   13675       0   13674   13675   13676
   13677   13678   13679   13680   13681   13682   13683   13684   13675   13676
   13677   13678   13676   13677   13678   13677   13678   13679   13680   13681
   13682   13683   13684   13685   13686   13687   13678   13679   13680   13681
   13679   13680   13681   13680   13681   13682   13683   13684   13685   13686
   13687   13688   13689   13690   13681   13682   13683   13684   13682   13683
   13684   13683   13684   13685   13686   13687   13688   13689   13690   13691
   13692   13693   13684   13685   13686   13687   13685   13686   13687   13686
   13687   13688   13689   13690   13687   13688   13689   13690   13688   13689
   13690   13691   13692   13693   13694   13695   13696   13689   13690   13691
   13692   13693   13694   13695   13696   13690   13691   13692   13693   13691
   13692   13693   13692   13693   13694   13695   13696   13693   13694   13695
   13696   13694   13695   13696   13695   13696   13696       0   13698   13699
   13700   13701   13702   13703   13704   13705   13706   13707   13708   13709
   13699   13700   13701   13702   13703   13704   13705   13706   13709   13710
   13711   13712   13700   13701   13702   13703   13706   13707   13708   13709
   13713   13714   13715   13701   13703   13704   13705   13706   13710   13711
   13712   13716   13717   13718   13702   13703   13704   13705   13706   13709
   13712   13713   13715   13703   13707   13708   13709   13713   13714   13719
   13720   13721   13705   13706   13707   13708   13709   13713   13715   13719
   13705   13706   13710   13711   13712   13716   13717   13722   13706   13710
   13711   13712   13716   13718   13722   13709   13712   13716   13718   13708
   13709   13713   13714   13715   13719   13720   13721   13723   13724   13725
   13726   13713   13714   13713   13714   13715   13719   13711   13712   13716
   13717   13718   13722   13727   13728   13729   13716   13717   13716   13717
   13718   13722   13727   13728   13729   13714   13715   13719   13720   13721
   13719   13720   13721   13723   13724   13725   13726   13730   13731   13732
   13719   13717   13718   13722   13727   13728   13729   13733   13734   13735
   13722   13722       0   13721   13723   13724   13725   13726   13730   13731
   13736   13723   13724   13725   13726   13730   13732   13736   13727   13728
   13729   13733   13734   13735   13737   13738   13739   13724   13725   13730
   13731   13732   13736   13730   13731   13726   13730   13731   13732   13736
   13730   13732   13728   13729   13733   13734   13735   13737   13738   13739
   13740   13741   13742   13729   13733   13734   13735   13733   13734   13735
   13731   13732   13736   13736   13736   13734   13735   13737   13738   13739
   13740   13741   13742   13743   13744   13745   13735   13737   13738   13739
   13737   13738   13739       0   13738   13739   13740   13741   13742   13743
   13744   13745   13746   13747   13748   13739   13740   13741   13742   13740
   13741   13742   13741   13742   13743   13744   13745   13746   13747   13748
   13749   13750   13751   13742   13743   13744   13745   13743   13744   13745
   13744   13745   13746   13747   13748   13749   13750   13751   13752   13753
   13754   13745   13746   13747   13748   13746   13747   13748   13747   13748
   13749   13750   13751   13752   13753   13754   13755   13756   13757   13748
   13749   13750   13751   13749   13750   13751   13750   13751   13752   13753
   13754   13751   13752   13753   13754   13752   13753   13754   13755   13756
   13757   13758   13759   13760   13753   13754   13755   13756   13757   13758
   13759   13760   13754   13755   13756   13757   13755   13756   13757   13756
   13757   13758   13759   13760   13757   13758   13759   13760   13758   13759
   13760   13759   13760   13760       0   13762   13763   13764   13765   13766
   13767   13768   13769   13770   13771   13772   13773   13763   13764   13765
   13766   13767   13768   13769   13770   13773   13774   13775   13776   13764
   13765   13766   13767   13770   13771   13772   13773   13777   13778   13779
   13765   13767   13768   13769   13770   13774   13775   13776   13780   13781
   13782   13766   13767   13768   13769   13770   13773   13776   13777   13779
   13767   13771   13772   13773   13777   13778   13783   13784   13785   13769
   13770   13771   13772   13773   13777   13779   13783   13769   13770   13774
   13775   13776   13780   13781   13786   13770   13774   13775   13776   13780
   13782   13786   13773   13776   13780   13782   13772   13773   13777   13778
   13779   13783   13784   13785   13787   13788   13789   13790   13777   13778
   13777   13778   13779   13783   13775   13776   13780   13781   13782   13786
   13791   13792   13793   13780   13781   13780   13781   13782   13786   13791
   13792   13793   13778   13779   13783   13784   13785   13783   13784   13785
   13787   13788   13789   13790   13794   13795   13796   13783   13781   13782
   13786   13791   13792   13793   13797   13798   13799   13786   13786       0
   13785   13787   13788   13789   13790   13794   13795   13800   13787   13788
   13789   13790   13794   13796   13800   13791   13792   13793   13797   13798
   13799   13801   13802   13803   13788   13789   13794   13795   13796   13800
   13794   13795   13790   13794   13795   13796   13800   13794   13796   13792
   13793   13797   13798   13799   13801   13802   13803   13804   13805   13806
   13793   13797   13798   13799   13797   13798   13799   13795   13796   13800
   13800   13800   13798   13799   13801   13802   13803   13804   13805   13806
   13807   13808   13809   13799   13801   13802   13803   13801   13802   13803
       0   13802   13803   13804   13805   13806   13807   13808   13809   13810
   13811   13812   13803   13804   13805   13806   13804   13805   13806   13805
   13806   13807   13808   13809   13810   13811   13812   13813   13814   13815
   13806   13807   13808   13809   13807   13808   13809   13808   13809   13810
   13811   13812   13813   13814   13815   13816   13817   13818   13809   13810
   13811   13812   13810   13811   13812   13811   13812   13813   13814   13815
   13816   13817   13818   13819   13820   13821   13812   13813   13814   13815
   13813   13814   13815   13814   13815   13816   13817   13818   13815   13816
   13817   13818   13816   13817   13818   13819   13820   13821   13822   13823
   13824   13817   13818   13819   13820   13821   13822   13823   13824   13818
   13819   13820   13821   13819   13820   13821   13820   13821   13822   13823
   13824   13821   13822   13823   13824   13822   13823   13824   13823   13824
   13824       0   13826   13827   13828   13829   13830   13831   13832   13833
   13834   13835   13836   13837   13827   13828   13829   13830   13831   13832
   13833   13834   13837   13838   13839   13840   13828   13829   13830   13831
   13834   13835   13836   13837   13841   13842   13843   13829   13831   13832
   13833   13834   13838   13839   13840   13844   13845   13846   13830   13831
   13832   13833   13834   13837   13840   13841   13843   13831   13835   13836
   13837   13841   13842   13847   13848   13849   13833   13834   13835   13836
   13837   13841   13843   13847   13833   13834   13838   13839   13840   13844
   13845   13850   13834   13838   13839   13840   13844   13846   13850   13837
   13840   13844   13846   13836   13837   13841   13842   13843   13847   13848
   13849   13851   13852   13853   13854   13841   13842   13841   13842   13843
   13847   13839   13840   13844   13845   13846   13850   13855   13856   13857
   13844   13845   13844   13845   13846   13850   13855   13856   13857   13842
   13843   13847   13848   13849   13847   13848   13849   13851   13852   13853
   13854   13858   13859   13860   13847   13845   13846   13850   13855   13856
   13857   13861   13862   13863   13850   13850       0   13849   13851   13852
   13853   13854   13858   13859   13864   13851   13852   13853   13854   13858
   13860   13864   13855   13856   13857   13861   13862   13863   13865   13866
   13867   13852   13853   13858   13859   13860   13864   13858   13859   13854
   13858   13859   13860   13864   13858   13860   13856   13857   13861   13862
   13863   13865   13866   13867   13868   13869   13870   13857   13861   13862
   13863   13861   13862   13863   13859   13860   13864   13864   13864   13862
   13863   13865   13866   13867   13868   13869   13870   13871   13872   13873
   13863   13865   13866   13867   13865   13866   13867       0   13866   13867
   13868   13869   13870   13871   13872   13873   13874   13875   13876   13867
   13868   13869   13870   13868   13869   13870   13869   13870   13871   13872
   13873   13874   13875   13876   13877   13878   13879   13870   13871   13872
   13873   13871   13872   13873   13872   13873   13874   13875   13876   13877
   13878   13879   13880   13881   13882   13873   13874   13875   13876   13874
   13875   13876   13875   13876   13877   13878   13879   13880   13881   13882
   13883   13884   13885   13876   13877   13878   13879   13877   13878   13879
   13878   13879   13880   13881   13882   13879   13880   13881   13882   13880
   13881   13882   13883   13884   13885   13886   13887   13888   13881   13882
   13883   13884   13885   13886   13887   13888   13882   13883   13884   13885
   13883   13884   13885   13884   13885   13886   13887   13888   13885   13886
   13887   13888   13886   13887   13888   13887   13888   13888       0   13890
   13891   13892   13893   13894   13895   13896   13897   13898   13899   13900
   13901   13891   13892   13893   13894   13895   13896   13897   13898   13901
   13902   13903   13904   13892   13893   13894   13895   13898   13899   13900
   13901   13905   13906   13907   13893   13895   13896   13897   13898   13902
   13903   13904   13908   13909   13910   13894   13895   13896   13897   13898
   13901   13904   13905   13907   13895   13899   13900   13901   13905   13906
   13911   13912   13913   13897   13898   13899   13900   13901   13905   13907
   13911   13897   13898   13902   13903   13904   13908   13909   13914   13898
   13902   13903   13904   13908   13910   13914   13901   13904   13908   13910
   13900   13901   13905   13906   13907   13911   13912   13913   13915   13916
   13917   13918   13905   13906   13905   13906   13907   13911   13903   13904
   13908   13909   13910   13914   13919   13920   13921   13908   13909   13908
   13909   13910   13914   13919   13920   13921   13906   13907   13911   13912
   13913   13911   13912   13913   13915   13916   13917   13918   13922   13923
   13924   13911   13909   13910   13914   13919   13920   13921   13925   13926
   13927   13914   13914       0   13913   13915   13916   13917   13918   13922
   13923   13928   13915   13916   13917   13918   13922   13924   13928   13919
   13920   13921   13925   13926   13927   13929   13930   13931   13916   13917
   13922   13923   13924   13928   13922   13923   13918   13922   13923   13924
   13928   13922   13924   13920   13921   13925   13926   13927   13929   13930
   13931   13932   13933   13934   13921   13925   13926   13927   13925   13926
   13927   13923   13924   13928   13928   13928   13926   13927   13929   13930
   13931   13932   13933   13934   13935   13936   13937   13927   13929   13930
   13931   13929   13930   13931       0   13930   13931   13932   13933   13934
   13935   13936   13937   13938   13939   13940   13931   13932   13933   13934
   13932   13933   13934   13933   13934   13935   13936   13937   13938   13939
   13940   13941   13942   13943   13934   13935   13936   13937   13935   13936
   13937   13936   13937   13938   13939   13940   13941   13942   13943   13944
   13945   13946   13937   13938   13939   13940   13938   13939   13940   13939
   13940   13941   13942   13943   13944   13945   13946   13947   13948   13949
   13940   13941   13942   13943   13941   13942   13943   13942   13943   13944
   13945   13946   13943   13944   13945   13946   13944   13945   13946   13947
   13948   13949   13950   13951   13952   13945   13946   13947   13948   13949
   13950   13951   13952   13946   13947   13948   13949   13947   13948   13949
   13948   13949   13950   13951   13952   13949   13950   13951   13952   13950
   13951   13952   13951   13952   13952       0   13954   13955   13956   13957
   13958   13959   13960   13961   13962   13963   13964   13965   13955   13956
   13957   13958   13959   13960   13961   13962   13965   13966   13967   13968
   13956   13957   13958   13959   13962   13963   13964   13965   13969   13970
   13971   13957   13959   13960   13961   13962   13966   13967   13968   13972
   13973   13974   13958   13959   13960   13961   13962   13965   13968   13969
   13971   13959   13963   13964   13965   13969   13970   13975   13976   13977
   13961   13962   13963   13964   13965   13969   13971   13975   13961   13962
   13966   13967   13968   13972   13973   13978   13962   13966   13967   13968
   13972   13974   13978   13965   13968   13972   13974   13964   13965   13969
   13970   13971   13975   13976   13977   13979   13980   13981   13982   13969
   13970   13969   13970   13971   13975   13967   13968   13972   13973   13974
   13978   13983   13984   13985   13972   13973   13972   13973   13974   13978
   13983   13984   13985   13970   13971   13975   13976   13977   13975   13976
   13977   13979   13980   13981   13982   13986   13987   13988   13975   13973
   13974   13978   13983   13984   13985   13989   13990   13991   13978   13978
       0   13977   13979   13980   13981   13982   13986   13987   13992   13979
   13980   13981   13982   13986   13988   13992   13983   13984   13985   13989
   13990   13991   13993   13994   13995   13980   13981   13986   13987   13988
   13992   13986   13987   13982   13986   13987   13988   13992   13986   13988
   13984   13985   13989   13990   13991   13993   13994   13995   13996   13997
   13998   13985   13989   13990   13991   13989   13990   13991   13987   13988
   13992   13992   13992   13990   13991   13993   13994   13995   13996   13997
   13998   13999   14000   14001   13991   13993   13994   13995   13993   13994
   13995       0   13994   13995   13996   13997   13998   13999   14000   14001
   14002   14003   14004   13995   13996   13997   13998   13996   13997   13998
   13997   13998   13999   14000   14001   14002   14003   14004   14005   14006
   14007   13998   13999   14000   14001   13999   14000   14001   14000   14001
   14002   14003   14004   14005   14006   14007   14008   14009   14010   14001
   14002   14003   14004   14002   14003   14004   14003   14004   14005   14006
   14007   14008   14009   14010   14011   14012   14013   14004   14005   14006
   14007   14005   14006   14007   14006   14007   14008   14009   14010   14007
   14008   14009   14010   14008   14009   14010   14011   14012   14013   14014
   14015   14016   14009   14010   14011   14012   14013   14014   14015   14016
   14010   14011   14012   14013   14011   14012   14013   14012   14013   14014
   14015   14016   14013   14014   14015   14016   14014   14015   14016   14015
   14016   14016       0   14018   14019   14020   14021   14022   14023   14024
   14025   14026   14027   14028   14029   14019   14020   14021   14022   14023
   14024   14025   14026   14029   14030   14031   14032   14020   14021   14022
   14023   14026   14027   14028   14029   14033   14034   14035   14021   14023
   14024   14025   14026   14030   14031   14032   14036   14037   14038   14022
   14023   14024   14025   14026   14029   14032   14033   14035   14023   14027
   14028   14029   14033   14034   14039   14040   14041   14025   14026   14027
   14028   14029   14033   14035   14039   14025   14026   14030   14031   14032
   14036   14037   14042   14026   14030   14031   14032   14036   14038   14042
   14029   14032   14036   14038   14028   14029   14033   14034   14035   14039
   14040   14041   14043   14044   14045   14046   14033   14034   14033   14034
   14035   14039   14031   14032   14036   14037   14038   14042   14047   14048
   14049   14036   14037   14036   14037   14038   14042   14047   14048   14049
   14034   14035   14039   14040   14041   14039   14040   14041   14043   14044
   14045   14046   14050   14051   14052   14039   14037   14038   14042   14047
   14048   14049   14053   14054   14055   14042   14042       0   14041   14043
   14044   14045   14046   14050   14051   14056   14043   14044   14045   14046
   14050   14052   14056   14047   14048   14049   14053   14054   14055   14057
   14058   14059   14044   14045   14050   14051   14052   14056   14050   14051
   14046   14050   14051   14052   14056   14050   14052   14048   14049   14053
   14054   14055   14057   14058   14059   14060   14061   14062   14049   14053
   14054   14055   14053   14054   14055   14051   14052   14056   14056   14056
   14054   14055   14057   14058   14059   14060   14061   14062   14063   14064
   14065   14055   14057   14058   14059   14057   14058   14059       0   14058
   14059   14060   14061   14062   14063   14064   14065   14066   14067   14068
   14059   14060   14061   14062   14060   14061   14062   14061   14062   14063
   14064   14065   14066   14067   14068   14069   14070   14071   14062   14063
   14064   14065   14063   14064   14065   14064   14065   14066   14067   14068
   14069   14070   14071   14072   14073   14074   14065   14066   14067   14068
   14066   14067   14068   14067   14068   14069   14070   14071   14072   14073
   14074   14075   14076   14077   14068   14069   14070   14071   14069   14070
   14071   14070   14071   14072   14073   14074   14071   14072   14073   14074
   14072   14073   14074   14075   14076   14077   14078   14079   14080   14073
   14074   14075   14076   14077   14078   14079   14080   14074   14075   14076
   14077   14075   14076   14077   14076   14077   14078   14079   14080   14077
   14078   14079   14080   14078   14079   14080   14079   14080   14080       0
   14082   14083   14084   14085   14086   14087   14088   14089   14090   14091
   14092   14093   14083   14084   14085   14086   14087   14088   14089   14090
   14093   14094   14095   14096   14084   14085   14086   14087   14090   14091
   14092   14093   14097   14098   14099   14085   14087   14088   14089   14090
   14094   14095   14096   14100   14101   14102   14086   14087   14088   14089
   14090   14093   14096   14097   14099   14087   14091   14092   14093   14097
   14098   14103   14104   14105   14089   14090   14091   14092   14093   14097
   14099   14103   14089   14090   14094   14095   14096   14100   14101   14106
   14090   14094   14095   14096   14100   14102   14106   14093   14096   14100
   14102   14092   14093   14097   14098   14099   14103   14104   14105   14107
   14108   14109   14110   14097   14098   14097   14098   14099   14103   14095
   14096   14100   14101   14102   14106   14111   14112   14113   14100   14101
   14100   14101   14102   14106   14111   14112   14113   14098   14099   14103
   14104   14105   14103   14104   14105   14107   14108   14109   14110   14114
   14115   14116   14103   14101   14102   14106   14111   14112   14113   14117
   14118   14119   14106   14106       0   14105   14107   14108   14109   14110
   14114   14115   14120   14107   14108   14109   14110   14114   14116   14120
   14111   14112   14113   14117   14118   14119   14121   14122   14123   14108
   14109   14114   14115   14116   14120   14114   14115   14110   14114   14115
   14116   14120   14114   14116   14112   14113   14117   14118   14119   14121
   14122   14123   14124   14125   14126   14113   14117   14118   14119   14117
   14118   14119   14115   14116   14120   14120   14120   14118   14119   14121
   14122   14123   14124   14125   14126   14127   14128   14129   14119   14121
   14122   14123   14121   14122   14123       0   14122   14123   14124   14125
   14126   14127   14128   14129   14130   14131   14132   14123   14124   14125
   14126   14124   14125   14126   14125   14126   14127   14128   14129   14130
   14131   14132   14133   14134   14135   14126   14127   14128   14129   14127
   14128   14129   14128   14129   14130   14131   14132   14133   14134   14135
   14136   14137   14138   14129   14130   14131   14132   14130   14131   14132
   14131   14132   14133   14134   14135   14136   14137   14138   14139   14140
   14141   14132   14133   14134   14135   14133   14134   14135   14134   14135
   14136   14137   14138   14135   14136   14137   14138   14136   14137   14138
   14139   14140   14141   14142   14143   14144   14137   14138   14139   14140
   14141   14142   14143   14144   14138   14139   14140   14141   14139   14140
   14141   14140   14141   14142   14143   14144   14141   14142   14143   14144
   14142   14143   14144   14143   14144   14144       0   14146   14147   14148
   14149   14150   14151   14152   14153   14154   14155   14156   14157   14147
   14148   14149   14150   14151   14152   14153   14154   14157   14158   14159
   14160   14148   14149   14150   14151   14154   14155   14156   14157   14161
   14162   14163   14149   14151   14152   14153   14154   14158   14159   14160
   14164   14165   14166   14150   14151   14152   14153   14154   14157   14160
   14161   14163   14151   14155   14156   14157   14161   14162   14167   14168
   14169   14153   14154   14155   14156   14157   14161   14163   14167   14153
   14154   14158   14159   14160   14164   14165   14170   14154   14158   14159
   14160   14164   14166   14170   14157   14160   14164   14166   14156   14157
   14161   14162   14163   14167   14168   14169   14171   14172   14173   14174
   14161   14162   14161   14162   14163   14167   14159   14160   14164   14165
   14166   14170   14175   14176   14177   14164   14165   14164   14165   14166
   14170   14175   14176   14177   14162   14163   14167   14168   14169   14167
   14168   14169   14171   14172   14173   14174   14178   14179   14180   14167
   14165   14166   14170   14175   14176   14177   14181   14182   14183   14170
   14170       0   14169   14171   14172   14173   14174   14178   14179   14184
   14171   14172   14173   14174   14178   14180   14184   14175   14176   14177
   14181   14182   14183   14185   14186   14187   14172   14173   14178   14179
   14180   14184   14178   14179   14174   14178   14179   14180   14184   14178
   14180   14176   14177   14181   14182   14183   14185   14186   14187   14188
   14189   14190   14177   14181   14182   14183   14181   14182   14183   14179
   14180   14184   14184   14184   14182   14183   14185   14186   14187   14188
   14189   14190   14191   14192   14193   14183   14185   14186   14187   14185
   14186   14187       0   14186   14187   14188   14189   14190   14191   14192
   14193   14194   14195   14196   14187   14188   14189   14190   14188   14189
   14190   14189   14190   14191   14192   14193   14194   14195   14196   14197
   14198   14199   14190   14191   14192   14193   14191   14192   14193   14192
   14193   14194   14195   14196   14197   14198   14199   14200   14201   14202
   14193   14194   14195   14196   14194   14195   14196   14195   14196   14197
   14198   14199   14200   14201   14202   14203   14204   14205   14196   14197
   14198   14199   14197   14198   14199   14198   14199   14200   14201   14202
   14199   14200   14201   14202   14200   14201   14202   14203   14204   14205
   14206   14207   14208   14201   14202   14203   14204   14205   14206   14207
   14208   14202   14203   14204   14205   14203   14204   14205   14204   14205
   14206   14207   14208   14205   14206   14207   14208   14206   14207   14208
   14207   14208   14208       0   14210   14211   14212   14213   14214   14215
   14216   14217   14218   14219   14220   14221   14211   14212   14213   14214
   14215   14216   14217   14218   14221   14222   14223   14224   14212   14213
   14214   14215   14218   14219   14220   14221   14225   14226   14227   14213
   14215   14216   14217   14218   14222   14223   14224   14228   14229   14230
   14214   14215   14216   14217   14218   14221   14224   14225   14227   14215
   14219   14220   14221   14225   14226   14231   14232   14233   14217   14218
   14219   14220   14221   14225   14227   14231   14217   14218   14222   14223
   14224   14228   14229   14234   14218   14222   14223   14224   14228   14230
   14234   14221   14224   14228   14230   14220   14221   14225   14226   14227
   14231   14232   14233   14235   14236   14237   14238   14225   14226   14225
   14226   14227   14231   14223   14224   14228   14229   14230   14234   14239
   14240   14241   14228   14229   14228   14229   14230   14234   14239   14240
   14241   14226   14227   14231   14232   14233   14231   14232   14233   14235
   14236   14237   14238   14242   14243   14244   14231   14229   14230   14234
   14239   14240   14241   14245   14246   14247   14234   14234       0   14233
   14235   14236   14237   14238   14242   14243   14248   14235   14236   14237
   14238   14242   14244   14248   14239   14240   14241   14245   14246   14247
   14249   14250   14251   14236   14237   14242   14243   14244   14248   14242
   14243   14238   14242   14243   14244   14248   14242   14244   14240   14241
   14245   14246   14247   14249   14250   14251   14252   14253   14254   14241
   14245   14246   14247   14245   14246   14247   14243   14244   14248   14248
   14248   14246   14247   14249   14250   14251   14252   14253   14254   14255
   14256   14257   14247   14249   14250   14251   14249   14250   14251       0
   14250   14251   14252   14253   14254   14255   14256   14257   14258   14259
   14260   14251   14252   14253   14254   14252   14253   14254   14253   14254
   14255   14256   14257   14258   14259   14260   14261   14262   14263   14254
   14255   14256   14257   14255   14256   14257   14256   14257   14258   14259
   14260   14261   14262   14263   14264   14265   14266   14257   14258   14259
   14260   14258   14259   14260   14259   14260   14261   14262   14263   14264
   14265   14266   14267   14268   14269   14260   14261   14262   14263   14261
   14262   14263   14262   14263   14264   14265   14266   14263   14264   14265
   14266   14264   14265   14266   14267   14268   14269   14270   14271   14272
   14265   14266   14267   14268   14269   14270   14271   14272   14266   14267
   14268   14269   14267   14268   14269   14268   14269   14270   14271   14272
   14269   14270   14271   14272   14270   14271   14272   14271   14272   14272
       0   14274   14275   14276   14277   14278   14279   14280   14281   14282
   14283   14284   14285   14275   14276   14277   14278   14279   14280   14281
   14282   14285   14286   14287   14288   14276   14277   14278   14279   14282
   14283   14284   14285   14289   14290   14291   14277   14279   14280   14281
   14282   14286   14287   14288   14292   14293   14294   14278   14279   14280
   14281   14282   14285   14288   14289   14291   14279   14283   14284   14285
   14289   14290   14295   14296   14297   14281   14282   14283   14284   14285
   14289   14291   14295   14281   14282   14286   14287   14288   14292   14293
   14298   14282   14286   14287   14288   14292   14294   14298   14285   14288
   14292   14294   14284   14285   14289   14290   14291   14295   14296   14297
   14299   14300   14301   14302   14289   14290   14289   14290   14291   14295
   14287   14288   14292   14293   14294   14298   14303   14304   14305   14292
   14293   14292   14293   14294   14298   14303   14304   14305   14290   14291
   14295   14296   14297   14295   14296   14297   14299   14300   14301   14302
   14306   14307   14308   14295   14293   14294   14298   14303   14304   14305
   14309   14310   14311   14298   14298       0   14297   14299   14300   14301
   14302   14306   14307   14312   14299   14300   14301   14302   14306   14308
   14312   14303   14304   14305   14309   14310   14311   14313   14314   14315
   14300   14301   14306   14307   14308   14312   14306   14307   14302   14306
   14307   14308   14312   14306   14308   14304   14305   14309   14310   14311
   14313   14314   14315   14316   14317   14318   14305   14309   14310   14311
   14309   14310   14311   14307   14308   14312   14312   14312   14310   14311
   14313   14314   14315   14316   14317   14318   14319   14320   14321   14311
   14313   14314   14315   14313   14314   14315       0   14314   14315   14316
   14317   14318   14319   14320   14321   14322   14323   14324   14315   14316
   14317   14318   14316   14317   14318   14317   14318   14319   14320   14321
   14322   14323   14324   14325   14326   14327   14318   14319   14320   14321
   14319   14320   14321   14320   14321   14322   14323   14324   14325   14326
   14327   14328   14329   14330   14321   14322   14323   14324   14322   14323
   14324   14323   14324   14325   14326   14327   14328   14329   14330   14331
   14332   14333   14324   14325   14326   14327   14325   14326   14327   14326
   14327   14328   14329   14330   14327   14328   14329   14330   14328   14329
   14330   14331   14332   14333   14334   14335   14336   14329   14330   14331
   14332   14333   14334   14335   14336   14330   14331   14332   14333   14331
   14332   14333   14332   14333   14334   14335   14336   14333   14334   14335
   14336   14334   14335   14336   14335   14336   14336       0   14338   14339
   14340   14341   14342   14343   14344   14345   14346   14347   14348   14349
   14339   14340   14341   14342   14343   14344   14345   14346   14349   14350
   14351   14352   14340   14341   14342   14343   14346   14347   14348   14349
   14353   14354   14355   14341   14343   14344   14345   14346   14350   14351
   14352   14356   14357   14358   14342   14343   14344   14345   14346   14349
   14352   14353   14355   14343   14347   14348   14349   14353   14354   14359
   14360   14361   14345   14346   14347   14348   14349   14353   14355   14359
   14345   14346   14350   14351   14352   14356   14357   14362   14346   14350
   14351   14352   14356   14358   14362   14349   14352   14356   14358   14348
   14349   14353   14354   14355   14359   14360   14361   14363   14364   14365
   14366   14353   14354   14353   14354   14355   14359   14351   14352   14356
   14357   14358   14362   14367   14368   14369   14356   14357   14356   14357
   14358   14362   14367   14368   14369   14354   14355   14359   14360   14361
   14359   14360   14361   14363   14364   14365   14366   14370   14371   14372
   14359   14357   14358   14362   14367   14368   14369   14373   14374   14375
   14362   14362       0   14361   14363   14364   14365   14366   14370   14371
   14376   14363   14364   14365   14366   14370   14372   14376   14367   14368
   14369   14373   14374   14375   14377   14378   14379   14364   14365   14370
   14371   14372   14376   14370   14371   14366   14370   14371   14372   14376
   14370   14372   14368   14369   14373   14374   14375   14377   14378   14379
   14380   14381   14382   14369   14373   14374   14375   14373   14374   14375
   14371   14372   14376   14376   14376   14374   14375   14377   14378   14379
   14380   14381   14382   14383   14384   14385   14375   14377   14378   14379
   14377   14378   14379       0   14378   14379   14380   14381   14382   14383
   14384   14385   14386   14387   14388   14379   14380   14381   14382   14380
   14381   14382   14381   14382   14383   14384   14385   14386   14387   14388
   14389   14390   14391   14382   14383   14384   14385   14383   14384   14385
   14384   14385   14386   14387   14388   14389   14390   14391   14392   14393
   14394   14385   14386   14387   14388   14386   14387   14388   14387   14388
   14389   14390   14391   14392   14393   14394   14395   14396   14397   14388
   14389   14390   14391   14389   14390   14391   14390   14391   14392   14393
   14394   14391   14392   14393   14394   14392   14393   14394   14395   14396
   14397   14398   14399   14400   14393   14394   14395   14396   14397   14398
   14399   14400   14394   14395   14396   14397   14395   14396   14397   14396
   14397   14398   14399   14400   14397   14398   14399   14400   14398   14399
   14400   14399   14400   14400       0   14402   14403   14404   14405   14406
   14407   14408   14409   14410   14411   14412   14413   14403   14404   14405
   14406   14407   14408   14409   14410   14413   14414   14415   14416   14404
   14405   14406   14407   14410   14411   14412   14413   14417   14418   14419
   14405   14407   14408   14409   14410   14414   14415   14416   14420   14421
   14422   14406   14407   14408   14409   14410   14413   14416   14417   14419
   14407   14411   14412   14413   14417   14418   14423   14424   14425   14409
   14410   14411   14412   14413   14417   14419   14423   14409   14410   14414
   14415   14416   14420   14421   14426   14410   14414   14415   14416   14420
   14422   14426   14413   14416   14420   14422   14412   14413   14417   14418
   14419   14423   14424   14425   14427   14428   14429   14430   14417   14418
   14417   14418   14419   14423   14415   14416   14420   14421   14422   14426
   14431   14432   14433   14420   14421   14420   14421   14422   14426   14431
   14432   14433   14418   14419   14423   14424   14425   14423   14424   14425
   14427   14428   14429   14430   14434   14435   14436   14423   14421   14422
   14426   14431   14432   14433   14437   14438   14439   14426   14426       0
   14425   14427   14428   14429   14430   14434   14435   14440   14427   14428
   14429   14430   14434   14436   14440   14431   14432   14433   14437   14438
   14439   14441   14442   14443   14428   14429   14434   14435   14436   14440
   14434   14435   14430   14434   14435   14436   14440   14434   14436   14432
   14433   14437   14438   14439   14441   14442   14443   14444   14445   14446
   14433   14437   14438   14439   14437   14438   14439   14435   14436   14440
   14440   14440   14438   14439   14441   14442   14443   14444   14445   14446
   14447   14448   14449   14439   14441   14442   14443   14441   14442   14443
       0   14442   14443   14444   14445   14446   14447   14448   14449   14450
   14451   14452   14443   14444   14445   14446   14444   14445   14446   14445
   14446   14447   14448   14449   14450   14451   14452   14453   14454   14455
   14446   14447   14448   14449   14447   14448   14449   14448   14449   14450
   14451   14452   14453   14454   14455   14456   14457   14458   14449   14450
   14451   14452   14450   14451   14452   14451   14452   14453   14454   14455
   14456   14457   14458   14459   14460   14461   14452   14453   14454   14455
   14453   14454   14455   14454   14455   14456   14457   14458   14455   14456
   14457   14458   14456   14457   14458   14459   14460   14461   14462   14463
   14464   14457   14458   14459   14460   14461   14462   14463   14464   14458
   14459   14460   14461   14459   14460   14461   14460   14461   14462   14463
   14464   14461   14462   14463   14464   14462   14463   14464   14463   14464
   14464       0   14466   14467   14468   14469   14470   14471   14472   14473
   14474   14475   14476   14477   14467   14468   14469   14470   14471   14472
   14473   14474   14477   14478   14479   14480   14468   14469   14470   14471
   14474   14475   14476   14477   14481   14482   14483   14469   14471   14472
   14473   14474   14478   14479   14480   14484   14485   14486   14470   14471
   14472   14473   14474   14477   14480   14481   14483   14471   14475   14476
   14477   14481   14482   14487   14488   14489   14473   14474   14475   14476
   14477   14481   14483   14487   14473   14474   14478   14479   14480   14484
   14485   14490   14474   14478   14479   14480   14484   14486   14490   14477
   14480   14484   14486   14476   14477   14481   14482   14483   14487   14488
   14489   14491   14492   14493   14494   14481   14482   14481   14482   14483
   14487   14479   14480   14484   14485   14486   14490   14495   14496   14497
   14484   14485   14484   14485   14486   14490   14495   14496   14497   14482
   14483   14487   14488   14489   14487   14488   14489   14491   14492   14493
   14494   14498   14499   14500   14487   14485   14486   14490   14495   14496
   14497   14501   14502   14503   14490   14490       0   14489   14491   14492
   14493   14494   14498   14499   14504   14491   14492   14493   14494   14498
   14500   14504   14495   14496   14497   14501   14502   14503   14505   14506
   14507   14492   14493   14498   14499   14500   14504   14498   14499   14494
   14498   14499   14500   14504   14498   14500   14496   14497   14501   14502
   14503   14505   14506   14507   14508   14509   14510   14497   14501   14502
   14503   14501   14502   14503   14499   14500   14504   14504   14504   14502
   14503   14505   14506   14507   14508   14509   14510   14511   14512   14513
   14503   14505   14506   14507   14505   14506   14507       0   14506   14507
   14508   14509   14510   14511   14512   14513   14514   14515   14516   14507
   14508   14509   14510   14508   14509   14510   14509   14510   14511   14512
   14513   14514   14515   14516   14517   14518   14519   14510   14511   14512
   14513   14511   14512   14513   14512   14513   14514   14515   14516   14517
   14518   14519   14520   14521   14522   14513   14514   14515   14516   14514
   14515   14516   14515   14516   14517   14518   14519   14520   14521   14522
   14523   14524   14525   14516   14517   14518   14519   14517   14518   14519
   14518   14519   14520   14521   14522   14519   14520   14521   14522   14520
   14521   14522   14523   14524   14525   14526   14527   14528   14521   14522
   14523   14524   14525   14526   14527   14528   14522   14523   14524   14525
   14523   14524   14525   14524   14525   14526   14527   14528   14525   14526
   14527   14528   14526   14527   14528   14527   14528   14528       0   14530
   14531   14532   14533   14534   14535   14536   14537   14538   14539   14540
   14541   14531   14532   14533   14534   14535   14536   14537   14538   14541
   14542   14543   14544   14532   14533   14534   14535   14538   14539   14540
   14541   14545   14546   14547   14533   14535   14536   14537   14538   14542
   14543   14544   14548   14549   14550   14534   14535   14536   14537   14538
   14541   14544   14545   14547   14535   14539   14540   14541   14545   14546
   14551   14552   14553   14537   14538   14539   14540   14541   14545   14547
   14551   14537   14538   14542   14543   14544   14548   14549   14554   14538
   14542   14543   14544   14548   14550   14554   14541   14544   14548   14550
   14540   14541   14545   14546   14547   14551   14552   14553   14555   14556
   14557   14558   14545   14546   14545   14546   14547   14551   14543   14544
   14548   14549   14550   14554   14559   14560   14561   14548   14549   14548
   14549   14550   14554   14559   14560   14561   14546   14547   14551   14552
   14553   14551   14552   14553   14555   14556   14557   14558   14562   14563
   14564   14551   14549   14550   14554   14559   14560   14561   14565   14566
   14567   14554   14554       0   14553   14555   14556   14557   14558   14562
   14563   14568   14555   14556   14557   14558   14562   14564   14568   14559
   14560   14561   14565   14566   14567   14569   14570   14571   14556   14557
   14562   14563   14564   14568   14562   14563   14558   14562   14563   14564
   14568   14562   14564   14560   14561   14565   14566   14567   14569   14570
   14571   14572   14573   14574   14561   14565   14566   14567   14565   14566
   14567   14563   14564   14568   14568   14568   14566   14567   14569   14570
   14571   14572   14573   14574   14575   14576   14577   14567   14569   14570
   14571   14569   14570   14571       0   14570   14571   14572   14573   14574
   14575   14576   14577   14578   14579   14580   14571   14572   14573   14574
   14572   14573   14574   14573   14574   14575   14576   14577   14578   14579
   14580   14581   14582   14583   14574   14575   14576   14577   14575   14576
   14577   14576   14577   14578   14579   14580   14581   14582   14583   14584
   14585   14586   14577   14578   14579   14580   14578   14579   14580   14579
   14580   14581   14582   14583   14584   14585   14586   14587   14588   14589
   14580   14581   14582   14583   14581   14582   14583   14582   14583   14584
   14585   14586   14583   14584   14585   14586   14584   14585   14586   14587
   14588   14589   14590   14591   14592   14585   14586   14587   14588   14589
   14590   14591   14592   14586   14587   14588   14589   14587   14588   14589
   14588   14589   14590   14591   14592   14589   14590   14591   14592   14590
   14591   14592   14591   14592   14592       0   14594   14595   14596   14597
   14598   14599   14600   14601   14602   14603   14604   14605   14595   14596
   14597   14598   14599   14600   14601   14602   14605   14606   14607   14608
   14596   14597   14598   14599   14602   14603   14604   14605   14609   14610
   14611   14597   14599   14600   14601   14602   14606   14607   14608   14612
   14613   14614   14598   14599   14600   14601   14602   14605   14608   14609
   14611   14599   14603   14604   14605   14609   14610   14615   14616   14617
   14601   14602   14603   14604   14605   14609   14611   14615   14601   14602
   14606   14607   14608   14612   14613   14618   14602   14606   14607   14608
   14612   14614   14618   14605   14608   14612   14614   14604   14605   14609
   14610   14611   14615   14616   14617   14619   14620   14621   14622   14609
   14610   14609   14610   14611   14615   14607   14608   14612   14613   14614
   14618   14623   14624   14625   14612   14613   14612   14613   14614   14618
   14623   14624   14625   14610   14611   14615   14616   14617   14615   14616
   14617   14619   14620   14621   14622   14626   14627   14628   14615   14613
   14614   14618   14623   14624   14625   14629   14630   14631   14618   14618
       0   14617   14619   14620   14621   14622   14626   14627   14632   14619
   14620   14621   14622   14626   14628   14632   14623   14624   14625   14629
   14630   14631   14633   14634   14635   14620   14621   14626   14627   14628
   14632   14626   14627   14622   14626   14627   14628   14632   14626   14628
   14624   14625   14629   14630   14631   14633   14634   14635   14636   14637
   14638   14625   14629   14630   14631   14629   14630   14631   14627   14628
   14632   14632   14632   14630   14631   14633   14634   14635   14636   14637
   14638   14639   14640   14641   14631   14633   14634   14635   14633   14634
   14635       0   14634   14635   14636   14637   14638   14639   14640   14641
   14642   14643   14644   14635   14636   14637   14638   14636   14637   14638
   14637   14638   14639   14640   14641   14642   14643   14644   14645   14646
   14647   14638   14639   14640   14641   14639   14640   14641   14640   14641
   14642   14643   14644   14645   14646   14647   14648   14649   14650   14641
   14642   14643   14644   14642   14643   14644   14643   14644   14645   14646
   14647   14648   14649   14650   14651   14652   14653   14644   14645   14646
   14647   14645   14646   14647   14646   14647   14648   14649   14650   14647
   14648   14649   14650   14648   14649   14650   14651   14652   14653   14654
   14655   14656   14649   14650   14651   14652   14653   14654   14655   14656
   14650   14651   14652   14653   14651   14652   14653   14652   14653   14654
   14655   14656   14653   14654   14655   14656   14654   14655   14656   14655
   14656   14656       0   14658   14659   14660   14661   14662   14663   14664
   14665   14666   14667   14668   14669   14659   14660   14661   14662   14663
   14664   14665   14666   14669   14670   14671   14672   14660   14661   14662
   14663   14666   14667   14668   14669   14673   14674   14675   14661   14663
   14664   14665   14666   14670   14671   14672   14676   14677   14678   14662
   14663   14664   14665   14666   14669   14672   14673   14675   14663   14667
   14668   14669   14673   14674   14679   14680   14681   14665   14666   14667
   14668   14669   14673   14675   14679   14665   14666   14670   14671   14672
   14676   14677   14682   14666   14670   14671   14672   14676   14678   14682
   14669   14672   14676   14678   14668   14669   14673   14674   14675   14679
   14680   14681   14683   14684   14685   14686   14673   14674   14673   14674
   14675   14679   14671   14672   14676   14677   14678   14682   14687   14688
   14689   14676   14677   14676   14677   14678   14682   14687   14688   14689
   14674   14675   14679   14680   14681   14679   14680   14681   14683   14684
   14685   14686   14690   14691   14692   14679   14677   14678   14682   14687
   14688   14689   14693   14694   14695   14682   14682       0   14681   14683
   14684   14685   14686   14690   14691   14696   14683   14684   14685   14686
   14690   14692   14696   14687   14688   14689   14693   14694   14695   14697
   14698   14699   14684   14685   14690   14691   14692   14696   14690   14691
   14686   14690   14691   14692   14696   14690   14692   14688   14689   14693
   14694   14695   14697   14698   14699   14700   14701   14702   14689   14693
   14694   14695   14693   14694   14695   14691   14692   14696   14696   14696
   14694   14695   14697   14698   14699   14700   14701   14702   14703   14704
   14705   14695   14697   14698   14699   14697   14698   14699       0   14698
   14699   14700   14701   14702   14703   14704   14705   14706   14707   14708
   14699   14700   14701   14702   14700   14701   14702   14701   14702   14703
   14704   14705   14706   14707   14708   14709   14710   14711   14702   14703
   14704   14705   14703   14704   14705   14704   14705   14706   14707   14708
   14709   14710   14711   14712   14713   14714   14705   14706   14707   14708
   14706   14707   14708   14707   14708   14709   14710   14711   14712   14713
   14714   14715   14716   14717   14708   14709   14710   14711   14709   14710
   14711   14710   14711   14712   14713   14714   14711   14712   14713   14714
   14712   14713   14714   14715   14716   14717   14718   14719   14720   14713
   14714   14715   14716   14717   14718   14719   14720   14714   14715   14716
   14717   14715   14716   14717   14716   14717   14718   14719   14720   14717
   14718   14719   14720   14718   14719   14720   14719   14720   14720       0
   14722   14723   14724   14725   14726   14727   14728   14729   14730   14731
   14732   14733   14723   14724   14725   14726   14727   14728   14729   14730
   14733   14734   14735   14736   14724   14725   14726   14727   14730   14731
   14732   14733   14737   14738   14739   14725   14727   14728   14729   14730
   14734   14735   14736   14740   14741   14742   14726   14727   14728   14729
   14730   14733   14736   14737   14739   14727   14731   14732   14733   14737
   14738   14743   14744   14745   14729   14730   14731   14732   14733   14737
   14739   14743   14729   14730   14734   14735   14736   14740   14741   14746
   14730   14734   14735   14736   14740   14742   14746   14733   14736   14740
   14742   14732   14733   14737   14738   14739   14743   14744   14745   14747
   14748   14749   14750   14737   14738   14737   14738   14739   14743   14735
   14736   14740   14741   14742   14746   14751   14752   14753   14740   14741
   14740   14741   14742   14746   14751   14752   14753   14738   14739   14743
   14744   14745   14743   14744   14745   14747   14748   14749   14750   14754
   14755   14756   14743   14741   14742   14746   14751   14752   14753   14757
   14758   14759   14746   14746       0   14745   14747   14748   14749   14750
   14754   14755   14760   14747   14748   14749   14750   14754   14756   14760
   14751   14752   14753   14757   14758   14759   14761   14762   14763   14748
   14749   14754   14755   14756   14760   14754   14755   14750   14754   14755
   14756   14760   14754   14756   14752   14753   14757   14758   14759   14761
   14762   14763   14764   14765   14766   14753   14757   14758   14759   14757
   14758   14759   14755   14756   14760   14760   14760   14758   14759   14761
   14762   14763   14764   14765   14766   14767   14768   14769   14759   14761
   14762   14763   14761   14762   14763       0   14762   14763   14764   14765
   14766   14767   14768   14769   14770   14771   14772   14763   14764   14765
   14766   14764   14765   14766   14765   14766   14767   14768   14769   14770
   14771   14772   14773   14774   14775   14766   14767   14768   14769   14767
   14768   14769   14768   14769   14770   14771   14772   14773   14774   14775
   14776   14777   14778   14769   14770   14771   14772   14770   14771   14772
   14771   14772   14773   14774   14775   14776   14777   14778   14779   14780
   14781   14772   14773   14774   14775   14773   14774   14775   14774   14775
   14776   14777   14778   14775   14776   14777   14778   14776   14777   14778
   14779   14780   14781   14782   14783   14784   14777   14778   14779   14780
   14781   14782   14783   14784   14778   14779   14780   14781   14779   14780
   14781   14780   14781   14782   14783   14784   14781   14782   14783   14784
   14782   14783   14784   14783   14784   14784       0   14786   14787   14788
   14789   14790   14791   14792   14793   14794   14795   14796   14797   14787
   14788   14789   14790   14791   14792   14793   14794   14797   14798   14799
   14800   14788   14789   14790   14791   14794   14795   14796   14797   14801
   14802   14803   14789   14791   14792   14793   14794   14798   14799   14800
   14804   14805   14806   14790   14791   14792   14793   14794   14797   14800
   14801   14803   14791   14795   14796   14797   14801   14802   14807   14808
   14809   14793   14794   14795   14796   14797   14801   14803   14807   14793
   14794   14798   14799   14800   14804   14805   14810   14794   14798   14799
   14800   14804   14806   14810   14797   14800   14804   14806   14796   14797
   14801   14802   14803   14807   14808   14809   14811   14812   14813   14814
   14801   14802   14801   14802   14803   14807   14799   14800   14804   14805
   14806   14810   14815   14816   14817   14804   14805   14804   14805   14806
   14810   14815   14816   14817   14802   14803   14807   14808   14809   14807
   14808   14809   14811   14812   14813   14814   14818   14819   14820   14807
   14805   14806   14810   14815   14816   14817   14821   14822   14823   14810
   14810       0   14809   14811   14812   14813   14814   14818   14819   14824
   14811   14812   14813   14814   14818   14820   14824   14815   14816   14817
   14821   14822   14823   14825   14826   14827   14812   14813   14818   14819
   14820   14824   14818   14819   14814   14818   14819   14820   14824   14818
   14820   14816   14817   14821   14822   14823   14825   14826   14827   14828
   14829   14830   14817   14821   14822   14823   14821   14822   14823   14819
   14820   14824   14824   14824   14822   14823   14825   14826   14827   14828
   14829   14830   14831   14832   14833   14823   14825   14826   14827   14825
   14826   14827       0   14826   14827   14828   14829   14830   14831   14832
   14833   14834   14835   14836   14827   14828   14829   14830   14828   14829
   14830   14829   14830   14831   14832   14833   14834   14835   14836   14837
   14838   14839   14830   14831   14832   14833   14831   14832   14833   14832
   14833   14834   14835   14836   14837   14838   14839   14840   14841   14842
   14833   14834   14835   14836   14834   14835   14836   14835   14836   14837
   14838   14839   14840   14841   14842   14843   14844   14845   14836   14837
   14838   14839   14837   14838   14839   14838   14839   14840   14841   14842
   14839   14840   14841   14842   14840   14841   14842   14843   14844   14845
   14846   14847   14848   14841   14842   14843   14844   14845   14846   14847
   14848   14842   14843   14844   14845   14843   14844   14845   14844   14845
   14846   14847   14848   14845   14846   14847   14848   14846   14847   14848
   14847   14848   14848       0   14850   14851   14852   14853   14854   14855
   14856   14857   14858   14859   14860   14861   14851   14852   14853   14854
   14855   14856   14857   14858   14861   14862   14863   14864   14852   14853
   14854   14855   14858   14859   14860   14861   14865   14866   14867   14853
   14855   14856   14857   14858   14862   14863   14864   14868   14869   14870
   14854   14855   14856   14857   14858   14861   14864   14865   14867   14855
   14859   14860   14861   14865   14866   14871   14872   14873   14857   14858
   14859   14860   14861   14865   14867   14871   14857   14858   14862   14863
   14864   14868   14869   14874   14858   14862   14863   14864   14868   14870
   14874   14861   14864   14868   14870   14860   14861   14865   14866   14867
   14871   14872   14873   14875   14876   14877   14878   14865   14866   14865
   14866   14867   14871   14863   14864   14868   14869   14870   14874   14879
   14880   14881   14868   14869   14868   14869   14870   14874   14879   14880
   14881   14866   14867   14871   14872   14873   14871   14872   14873   14875
   14876   14877   14878   14882   14883   14884   14871   14869   14870   14874
   14879   14880   14881   14885   14886   14887   14874   14874       0   14873
   14875   14876   14877   14878   14882   14883   14888   14875   14876   14877
   14878   14882   14884   14888   14879   14880   14881   14885   14886   14887
   14889   14890   14891   14876   14877   14882   14883   14884   14888   14882
   14883   14878   14882   14883   14884   14888   14882   14884   14880   14881
   14885   14886   14887   14889   14890   14891   14892   14893   14894   14881
   14885   14886   14887   14885   14886   14887   14883   14884   14888   14888
   14888   14886   14887   14889   14890   14891   14892   14893   14894   14895
   14896   14897   14887   14889   14890   14891   14889   14890   14891       0
   14890   14891   14892   14893   14894   14895   14896   14897   14898   14899
   14900   14891   14892   14893   14894   14892   14893   14894   14893   14894
   14895   14896   14897   14898   14899   14900   14901   14902   14903   14894
   14895   14896   14897   14895   14896   14897   14896   14897   14898   14899
   14900   14901   14902   14903   14904   14905   14906   14897   14898   14899
   14900   14898   14899   14900   14899   14900   14901   14902   14903   14904
   14905   14906   14907   14908   14909   14900   14901   14902   14903   14901
   14902   14903   14902   14903   14904   14905   14906   14903   14904   14905
   14906   14904   14905   14906   14907   14908   14909   14910   14911   14912
   14905   14906   14907   14908   14909   14910   14911   14912   14906   14907
   14908   14909   14907   14908   14909   14908   14909   14910   14911   14912
   14909   14910   14911   14912   14910   14911   14912   14911   14912   14912
       0   14914   14915   14916   14917   14918   14919   14920   14921   14922
   14923   14924   14925   14915   14916   14917   14918   14919   14920   14921
   14922   14925   14926   14927   14928   14916   14917   14918   14919   14922
   14923   14924   14925   14929   14930   14931   14917   14919   14920   14921
   14922   14926   14927   14928   14932   14933   14934   14918   14919   14920
   14921   14922   14925   14928   14929   14931   14919   14923   14924   14925
   14929   14930   14935   14936   14937   14921   14922   14923   14924   14925
   14929   14931   14935   14921   14922   14926   14927   14928   14932   14933
   14938   14922   14926   14927   14928   14932   14934   14938   14925   14928
   14932   14934   14924   14925   14929   14930   14931   14935   14936   14937
   14939   14940   14941   14942   14929   14930   14929   14930   14931   14935
   14927   14928   14932   14933   14934   14938   14943   14944   14945   14932
   14933   14932   14933   14934   14938   14943   14944   14945   14930   14931
   14935   14936   14937   14935   14936   14937   14939   14940   14941   14942
   14946   14947   14948   14935   14933   14934   14938   14943   14944   14945
   14949   14950   14951   14938   14938       0   14937   14939   14940   14941
   14942   14946   14947   14952   14939   14940   14941   14942   14946   14948
   14952   14943   14944   14945   14949   14950   14951   14953   14954   14955
   14940   14941   14946   14947   14948   14952   14946   14947   14942   14946
   14947   14948   14952   14946   14948   14944   14945   14949   14950   14951
   14953   14954   14955   14956   14957   14958   14945   14949   14950   14951
   14949   14950   14951   14947   14948   14952   14952   14952   14950   14951
   14953   14954   14955   14956   14957   14958   14959   14960   14961   14951
   14953   14954   14955   14953   14954   14955       0   14954   14955   14956
   14957   14958   14959   14960   14961   14962   14963   14964   14955   14956
   14957   14958   14956   14957   14958   14957   14958   14959   14960   14961
   14962   14963   14964   14965   14966   14967   14958   14959   14960   14961
   14959   14960   14961   14960   14961   14962   14963   14964   14965   14966
   14967   14968   14969   14970   14961   14962   14963   14964   14962   14963
   14964   14963   14964   14965   14966   14967   14968   14969   14970   14971
   14972   14973   14964   14965   14966   14967   14965   14966   14967   14966
   14967   14968   14969   14970   14967   14968   14969   14970   14968   14969
   14970   14971   14972   14973   14974   14975   14976   14969   14970   14971
   14972   14973   14974   14975   14976   14970   14971   14972   14973   14971
   14972   14973   14972   14973   14974   14975   14976   14973   14974   14975
   14976   14974   14975   14976   14975   14976   14976       0   14978   14979
   14980   14981   14982   14983   14984   14985   14986   14987   14988   14989
   14979   14980   14981   14982   14983   14984   14985   14986   14989   14990
   14991   14992   14980   14981   14982   14983   14986   14987   14988   14989
   14993   14994   14995   14981   14983   14984   14985   14986   14990   14991
   14992   14996   14997   14998   14982   14983   14984   14985   14986   14989
   14992   14993   14995   14983   14987   14988   14989   14993   14994   14999
   15000   15001   14985   14986   14987   14988   14989   14993   14995   14999
   14985   14986   14990   14991   14992   14996   14997   15002   14986   14990
   14991   14992   14996   14998   15002   14989   14992   14996   14998   14988
   14989   14993   14994   14995   14999   15000   15001   15003   15004   15005
   15006   14993   14994   14993   14994   14995   14999   14991   14992   14996
   14997   14998   15002   15007   15008   15009   14996   14997   14996   14997
   14998   15002   15007   15008   15009   14994   14995   14999   15000   15001
   14999   15000   15001   15003   15004   15005   15006   15010   15011   15012
   14999   14997   14998   15002   15007   15008   15009   15013   15014   15015
   15002   15002       0   15001   15003   15004   15005   15006   15010   15011
   15016   15003   15004   15005   15006   15010   15012   15016   15007   15008
   15009   15013   15014   15015   15017   15018   15019   15004   15005   15010
   15011   15012   15016   15010   15011   15006   15010   15011   15012   15016
   15010   15012   15008   15009   15013   15014   15015   15017   15018   15019
   15020   15021   15022   15009   15013   15014   15015   15013   15014   15015
   15011   15012   15016   15016   15016   15014   15015   15017   15018   15019
   15020   15021   15022   15023   15024   15025   15015   15017   15018   15019
   15017   15018   15019       0   15018   15019   15020   15021   15022   15023
   15024   15025   15026   15027   15028   15019   15020   15021   15022   15020
   15021   15022   15021   15022   15023   15024   15025   15026   15027   15028
   15029   15030   15031   15022   15023   15024   15025   15023   15024   15025
   15024   15025   15026   15027   15028   15029   15030   15031   15032   15033
   15034   15025   15026   15027   15028   15026   15027   15028   15027   15028
   15029   15030   15031   15032   15033   15034   15035   15036   15037   15028
   15029   15030   15031   15029   15030   15031   15030   15031   15032   15033
   15034   15031   15032   15033   15034   15032   15033   15034   15035   15036
   15037   15038   15039   15040   15033   15034   15035   15036   15037   15038
   15039   15040   15034   15035   15036   15037   15035   15036   15037   15036
   15037   15038   15039   15040   15037   15038   15039   15040   15038   15039
   15040   15039   15040   15040       0   15042   15043   15044   15045   15046
   15047   15048   15049   15050   15051   15052   15053   15043   15044   15045
   15046   15047   15048   15049   15050   15053   15054   15055   15056   15044
   15045   15046   15047   15050   15051   15052   15053   15057   15058   15059
   15045   15047   15048   15049   15050   15054   15055   15056   15060   15061
   15062   15046   15047   15048   15049   15050   15053   15056   15057   15059
   15047   15051   15052   15053   15057   15058   15063   15064   15065   15049
   15050   15051   15052   15053   15057   15059   15063   15049   15050   15054
   15055   15056   15060   15061   15066   15050   15054   15055   15056   15060
   15062   15066   15053   15056   15060   15062   15052   15053   15057   15058
   15059   15063   15064   15065   15067   15068   15069   15070   15057   15058
   15057   15058   15059   15063   15055   15056   15060   15061   15062   15066
   15071   15072   15073   15060   15061   15060   15061   15062   15066   15071
   15072   15073   15058   15059   15063   15064   15065   15063   15064   15065
   15067   15068   15069   15070   15074   15075   15076   15063   15061   15062
   15066   15071   15072   15073   15077   15078   15079   15066   15066       0
   15065   15067   15068   15069   15070   15074   15075   15080   15067   15068
   15069   15070   15074   15076   15080   15071   15072   15073   15077   15078
   15079   15081   15082   15083   15068   15069   15074   15075   15076   15080
   15074   15075   15070   15074   15075   15076   15080   15074   15076   15072
   15073   15077   15078   15079   15081   15082   15083   15084   15085   15086
   15073   15077   15078   15079   15077   15078   15079   15075   15076   15080
   15080   15080   15078   15079   15081   15082   15083   15084   15085   15086
   15087   15088   15089   15079   15081   15082   15083   15081   15082   15083
       0   15082   15083   15084   15085   15086   15087   15088   15089   15090
   15091   15092   15083   15084   15085   15086   15084   15085   15086   15085
   15086   15087   15088   15089   15090   15091   15092   15093   15094   15095
   15086   15087   15088   15089   15087   15088   15089   15088   15089   15090
   15091   15092   15093   15094   15095   15096   15097   15098   15089   15090
   15091   15092   15090   15091   15092   15091   15092   15093   15094   15095
   15096   15097   15098   15099   15100   15101   15092   15093   15094   15095
   15093   15094   15095   15094   15095   15096   15097   15098   15095   15096
   15097   15098   15096   15097   15098   15099   15100   15101   15102   15103
   15104   15097   15098   15099   15100   15101   15102   15103   15104   15098
   15099   15100   15101   15099   15100   15101   15100   15101   15102   15103
   15104   15101   15102   15103   15104   15102   15103   15104   15103   15104
   15104       0   15106   15107   15108   15109   15110   15111   15112   15113
   15114   15115   15116   15117   15107   15108   15109   15110   15111   15112
   15113   15114   15117   15118   15119   15120   15108   15109   15110   15111
   15114   15115   15116   15117   15121   15122   15123   15109   15111   15112
   15113   15114   15118   15119   15120   15124   15125   15126   15110   15111
   15112   15113   15114   15117   15120   15121   15123   15111   15115   15116
   15117   15121   15122   15127   15128   15129   15113   15114   15115   15116
   15117   15121   15123   15127   15113   15114   15118   15119   15120   15124
   15125   15130   15114   15118   15119   15120   15124   15126   15130   15117
   15120   15124   15126   15116   15117   15121   15122   15123   15127   15128
   15129   15131   15132   15133   15134   15121   15122   15121   15122   15123
   15127   15119   15120   15124   15125   15126   15130   15135   15136   15137
   15124   15125   15124   15125   15126   15130   15135   15136   15137   15122
   15123   15127   15128   15129   15127   15128   15129   15131   15132   15133
   15134   15138   15139   15140   15127   15125   15126   15130   15135   15136
   15137   15141   15142   15143   15130   15130       0   15129   15131   15132
   15133   15134   15138   15139   15144   15131   15132   15133   15134   15138
   15140   15144   15135   15136   15137   15141   15142   15143   15145   15146
   15147   15132   15133   15138   15139   15140   15144   15138   15139   15134
   15138   15139   15140   15144   15138   15140   15136   15137   15141   15142
   15143   15145   15146   15147   15148   15149   15150   15137   15141   15142
   15143   15141   15142   15143   15139   15140   15144   15144   15144   15142
   15143   15145   15146   15147   15148   15149   15150   15151   15152   15153
   15143   15145   15146   15147   15145   15146   15147       0   15146   15147
   15148   15149   15150   15151   15152   15153   15154   15155   15156   15147
   15148   15149   15150   15148   15149   15150   15149   15150   15151   15152
   15153   15154   15155   15156   15157   15158   15159   15150   15151   15152
   15153   15151   15152   15153   15152   15153   15154   15155   15156   15157
   15158   15159   15160   15161   15162   15153   15154   15155   15156   15154
   15155   15156   15155   15156   15157   15158   15159   15160   15161   15162
   15163   15164   15165   15156   15157   15158   15159   15157   15158   15159
   15158   15159   15160   15161   15162   15159   15160   15161   15162   15160
   15161   15162   15163   15164   15165   15166   15167   15168   15161   15162
   15163   15164   15165   15166   15167   15168   15162   15163   15164   15165
   15163   15164   15165   15164   15165   15166   15167   15168   15165   15166
   15167   15168   15166   15167   15168   15167   15168   15168       0   15170
   15171   15172   15173   15174   15175   15176   15177   15178   15179   15180
   15181   15171   15172   15173   15174   15175   15176   15177   15178   15181
   15182   15183   15184   15172   15173   15174   15175   15178   15179   15180
   15181   15185   15186   15187   15173   15175   15176   15177   15178   15182
   15183   15184   15188   15189   15190   15174   15175   15176   15177   15178
   15181   15184   15185   15187   15175   15179   15180   15181   15185   15186
   15191   15192   15193   15177   15178   15179   15180   15181   15185   15187
   15191   15177   15178   15182   15183   15184   15188   15189   15194   15178
   15182   15183   15184   15188   15190   15194   15181   15184   15188   15190
   15180   15181   15185   15186   15187   15191   15192   15193   15195   15196
   15197   15198   15185   15186   15185   15186   15187   15191   15183   15184
   15188   15189   15190   15194   15199   15200   15201   15188   15189   15188
   15189   15190   15194   15199   15200   15201   15186   15187   15191   15192
   15193   15191   15192   15193   15195   15196   15197   15198   15202   15203
   15204   15191   15189   15190   15194   15199   15200   15201   15205   15206
   15207   15194   15194       0   15193   15195   15196   15197   15198   15202
   15203   15208   15195   15196   15197   15198   15202   15204   15208   15199
   15200   15201   15205   15206   15207   15209   15210   15211   15196   15197
   15202   15203   15204   15208   15202   15203   15198   15202   15203   15204
   15208   15202   15204   15200   15201   15205   15206   15207   15209   15210
   15211   15212   15213   15214   15201   15205   15206   15207   15205   15206
   15207   15203   15204   15208   15208   15208   15206   15207   15209   15210
   15211   15212   15213   15214   15215   15216   15217   15207   15209   15210
   15211   15209   15210   15211       0   15210   15211   15212   15213   15214
   15215   15216   15217   15218   15219   15220   15211   15212   15213   15214
   15212   15213   15214   15213   15214   15215   15216   15217   15218   15219
   15220   15221   15222   15223   15214   15215   15216   15217   15215   15216
   15217   15216   15217   15218   15219   15220   15221   15222   15223   15224
   15225   15226   15217   15218   15219   15220   15218   15219   15220   15219
   15220   15221   15222   15223   15224   15225   15226   15227   15228   15229
   15220   15221   15222   15223   15221   15222   15223   15222   15223   15224
   15225   15226   15223   15224   15225   15226   15224   15225   15226   15227
   15228   15229   15230   15231   15232   15225   15226   15227   15228   15229
   15230   15231   15232   15226   15227   15228   15229   15227   15228   15229
   15228   15229   15230   15231   15232   15229   15230   15231   15232   15230
   15231   15232   15231   15232   15232       0   15234   15235   15236   15237
   15238   15239   15240   15241   15242   15243   15244   15245   15235   15236
   15237   15238   15239   15240   15241   15242   15245   15246   15247   15248
   15236   15237   15238   15239   15242   15243   15244   15245   15249   15250
   15251   15237   15239   15240   15241   15242   15246   15247   15248   15252
   15253   15254   15238   15239   15240   15241   15242   15245   15248   15249
   15251   15239   15243   15244   15245   15249   15250   15255   15256   15257
   15241   15242   15243   15244   15245   15249   15251   15255   15241   15242
   15246   15247   15248   15252   15253   15258   15242   15246   15247   15248
   15252   15254   15258   15245   15248   15252   15254   15244   15245   15249
   15250   15251   15255   15256   15257   15259   15260   15261   15262   15249
   15250   15249   15250   15251   15255   15247   15248   15252   15253   15254
   15258   15263   15264   15265   15252   15253   15252   15253   15254   15258
   15263   15264   15265   15250   15251   15255   15256   15257   15255   15256
   15257   15259   15260   15261   15262   15266   15267   15268   15255   15253
   15254   15258   15263   15264   15265   15269   15270   15271   15258   15258
       0   15257   15259   15260   15261   15262   15266   15267   15272   15259
   15260   15261   15262   15266   15268   15272   15263   15264   15265   15269
   15270   15271   15273   15274   15275   15260   15261   15266   15267   15268
   15272   15266   15267   15262   15266   15267   15268   15272   15266   15268
   15264   15265   15269   15270   15271   15273   15274   15275   15276   15277
   15278   15265   15269   15270   15271   15269   15270   15271   15267   15268
   15272   15272   15272   15270   15271   15273   15274   15275   15276   15277
   15278   15279   15280   15281   15271   15273   15274   15275   15273   15274
   15275       0   15274   15275   15276   15277   15278   15279   15280   15281
   15282   15283   15284   15275   15276   15277   15278   15276   15277   15278
   15277   15278   15279   15280   15281   15282   15283   15284   15285   15286
   15287   15278   15279   15280   15281   15279   15280   15281   15280   15281
   15282   15283   15284   15285   15286   15287   15288   15289   15290   15281
   15282   15283   15284   15282   15283   15284   15283   15284   15285   15286
   15287   15288   15289   15290   15291   15292   15293   15284   15285   15286
   15287   15285   15286   15287   15286   15287   15288   15289   15290   15287
   15288   15289   15290   15288   15289   15290   15291   15292   15293   15294
   15295   15296   15289   15290   15291   15292   15293   15294   15295   15296
   15290   15291   15292   15293   15291   15292   15293   15292   15293   15294
   15295   15296   15293   15294   15295   15296   15294   15295   15296   15295
   15296   15296       0   15298   15299   15300   15301   15302   15303   15304
   15305   15306   15307   15308   15309   15299   15300   15301   15302   15303
   15304   15305   15306   15309   15310   15311   15312   15300   15301   15302
   15303   15306   15307   15308   15309   15313   15314   15315   15301   15303
   15304   15305   15306   15310   15311   15312   15316   15317   15318   15302
   15303   15304   15305   15306   15309   15312   15313   15315   15303   15307
   15308   15309   15313   15314   15319   15320   15321   15305   15306   15307
   15308   15309   15313   15315   15319   15305   15306   15310   15311   15312
   15316   15317   15322   15306   15310   15311   15312   15316   15318   15322
   15309   15312   15316   15318   15308   15309   15313   15314   15315   15319
   15320   15321   15323   15324   15325   15326   15313   15314   15313   15314
   15315   15319   15311   15312   15316   15317   15318   15322   15327   15328
   15329   15316   15317   15316   15317   15318   15322   15327   15328   15329
   15314   15315   15319   15320   15321   15319   15320   15321   15323   15324
   15325   15326   15330   15331   15332   15319   15317   15318   15322   15327
   15328   15329   15333   15334   15335   15322   15322       0   15321   15323
   15324   15325   15326   15330   15331   15336   15323   15324   15325   15326
   15330   15332   15336   15327   15328   15329   15333   15334   15335   15337
   15338   15339   15324   15325   15330   15331   15332   15336   15330   15331
   15326   15330   15331   15332   15336   15330   15332   15328   15329   15333
   15334   15335   15337   15338   15339   15340   15341   15342   15329   15333
   15334   15335   15333   15334   15335   15331   15332   15336   15336   15336
   15334   15335   15337   15338   15339   15340   15341   15342   15343   15344
   15345   15335   15337   15338   15339   15337   15338   15339       0   15338
   15339   15340   15341   15342   15343   15344   15345   15346   15347   15348
   15339   15340   15341   15342   15340   15341   15342   15341   15342   15343
   15344   15345   15346   15347   15348   15349   15350   15351   15342   15343
   15344   15345   15343   15344   15345   15344   15345   15346   15347   15348
   15349   15350   15351   15352   15353   15354   15345   15346   15347   15348
   15346   15347   15348   15347   15348   15349   15350   15351   15352   15353
   15354   15355   15356   15357   15348   15349   15350   15351   15349   15350
   15351   15350   15351   15352   15353   15354   15351   15352   15353   15354
   15352   15353   15354   15355   15356   15357   15358   15359   15360   15353
   15354   15355   15356   15357   15358   15359   15360   15354   15355   15356
   15357   15355   15356   15357   15356   15357   15358   15359   15360   15357
   15358   15359   15360   15358   15359   15360   15359   15360   15360       0
   15362   15363   15364   15365   15366   15367   15368   15369   15370   15371
   15372   15373   15363   15364   15365   15366   15367   15368   15369   15370
   15373   15374   15375   15376   15364   15365   15366   15367   15370   15371
   15372   15373   15377   15378   15379   15365   15367   15368   15369   15370
   15374   15375   15376   15380   15381   15382   15366   15367   15368   15369
   15370   15373   15376   15377   15379   15367   15371   15372   15373   15377
   15378   15383   15384   15385   15369   15370   15371   15372   15373   15377
   15379   15383   15369   15370   15374   15375   15376   15380   15381   15386
   15370   15374   15375   15376   15380   15382   15386   15373   15376   15380
   15382   15372   15373   15377   15378   15379   15383   15384   15385   15387
   15388   15389   15390   15377   15378   15377   15378   15379   15383   15375
   15376   15380   15381   15382   15386   15391   15392   15393   15380   15381
   15380   15381   15382   15386   15391   15392   15393   15378   15379   15383
   15384   15385   15383   15384   15385   15387   15388   15389   15390   15394
   15395   15396   15383   15381   15382   15386   15391   15392   15393   15397
   15398   15399   15386   15386       0   15385   15387   15388   15389   15390
   15394   15395   15400   15387   15388   15389   15390   15394   15396   15400
   15391   15392   15393   15397   15398   15399   15401   15402   15403   15388
   15389   15394   15395   15396   15400   15394   15395   15390   15394   15395
   15396   15400   15394   15396   15392   15393   15397   15398   15399   15401
   15402   15403   15404   15405   15406   15393   15397   15398   15399   15397
   15398   15399   15395   15396   15400   15400   15400   15398   15399   15401
   15402   15403   15404   15405   15406   15407   15408   15409   15399   15401
   15402   15403   15401   15402   15403       0   15402   15403   15404   15405
   15406   15407   15408   15409   15410   15411   15412   15403   15404   15405
   15406   15404   15405   15406   15405   15406   15407   15408   15409   15410
   15411   15412   15413   15414   15415   15406   15407   15408   15409   15407
   15408   15409   15408   15409   15410   15411   15412   15413   15414   15415
   15416   15417   15418   15409   15410   15411   15412   15410   15411   15412
   15411   15412   15413   15414   15415   15416   15417   15418   15419   15420
   15421   15412   15413   15414   15415   15413   15414   15415   15414   15415
   15416   15417   15418   15415   15416   15417   15418   15416   15417   15418
   15419   15420   15421   15422   15423   15424   15417   15418   15419   15420
   15421   15422   15423   15424   15418   15419   15420   15421   15419   15420
   15421   15420   15421   15422   15423   15424   15421   15422   15423   15424
   15422   15423   15424   15423   15424   15424       0   15426   15427   15428
   15429   15430   15431   15432   15433   15434   15435   15436   15437   15427
   15428   15429   15430   15431   15432   15433   15434   15437   15438   15439
   15440   15428   15429   15430   15431   15434   15435   15436   15437   15441
   15442   15443   15429   15431   15432   15433   15434   15438   15439   15440
   15444   15445   15446   15430   15431   15432   15433   15434   15437   15440
   15441   15443   15431   15435   15436   15437   15441   15442   15447   15448
   15449   15433   15434   15435   15436   15437   15441   15443   15447   15433
   15434   15438   15439   15440   15444   15445   15450   15434   15438   15439
   15440   15444   15446   15450   15437   15440   15444   15446   15436   15437
   15441   15442   15443   15447   15448   15449   15451   15452   15453   15454
   15441   15442   15441   15442   15443   15447   15439   15440   15444   15445
   15446   15450   15455   15456   15457   15444   15445   15444   15445   15446
   15450   15455   15456   15457   15442   15443   15447   15448   15449   15447
   15448   15449   15451   15452   15453   15454   15458   15459   15460   15447
   15445   15446   15450   15455   15456   15457   15461   15462   15463   15450
   15450       0   15449   15451   15452   15453   15454   15458   15459   15464
   15451   15452   15453   15454   15458   15460   15464   15455   15456   15457
   15461   15462   15463   15465   15466   15467   15452   15453   15458   15459
   15460   15464   15458   15459   15454   15458   15459   15460   15464   15458
   15460   15456   15457   15461   15462   15463   15465   15466   15467   15468
   15469   15470   15457   15461   15462   15463   15461   15462   15463   15459
   15460   15464   15464   15464   15462   15463   15465   15466   15467   15468
   15469   15470   15471   15472   15473   15463   15465   15466   15467   15465
   15466   15467       0   15466   15467   15468   15469   15470   15471   15472
   15473   15474   15475   15476   15467   15468   15469   15470   15468   15469
   15470   15469   15470   15471   15472   15473   15474   15475   15476   15477
   15478   15479   15470   15471   15472   15473   15471   15472   15473   15472
   15473   15474   15475   15476   15477   15478   15479   15480   15481   15482
   15473   15474   15475   15476   15474   15475   15476   15475   15476   15477
   15478   15479   15480   15481   15482   15483   15484   15485   15476   15477
   15478   15479   15477   15478   15479   15478   15479   15480   15481   15482
   15479   15480   15481   15482   15480   15481   15482   15483   15484   15485
   15486   15487   15488   15481   15482   15483   15484   15485   15486   15487
   15488   15482   15483   15484   15485   15483   15484   15485   15484   15485
   15486   15487   15488   15485   15486   15487   15488   15486   15487   15488
   15487   15488   15488       0   15490   15491   15492   15493   15494   15495
   15496   15497   15498   15499   15500   15501   15491   15492   15493   15494
   15495   15496   15497   15498   15501   15502   15503   15504   15492   15493
   15494   15495   15498   15499   15500   15501   15505   15506   15507   15493
   15495   15496   15497   15498   15502   15503   15504   15508   15509   15510
   15494   15495   15496   15497   15498   15501   15504   15505   15507   15495
   15499   15500   15501   15505   15506   15511   15512   15513   15497   15498
   15499   15500   15501   15505   15507   15511   15497   15498   15502   15503
   15504   15508   15509   15514   15498   15502   15503   15504   15508   15510
   15514   15501   15504   15508   15510   15500   15501   15505   15506   15507
   15511   15512   15513   15515   15516   15517   15518   15505   15506   15505
   15506   15507   15511   15503   15504   15508   15509   15510   15514   15519
   15520   15521   15508   15509   15508   15509   15510   15514   15519   15520
   15521   15506   15507   15511   15512   15513   15511   15512   15513   15515
   15516   15517   15518   15522   15523   15524   15511   15509   15510   15514
   15519   15520   15521   15525   15526   15527   15514   15514       0   15513
   15515   15516   15517   15518   15522   15523   15528   15515   15516   15517
   15518   15522   15524   15528   15519   15520   15521   15525   15526   15527
   15529   15530   15531   15516   15517   15522   15523   15524   15528   15522
   15523   15518   15522   15523   15524   15528   15522   15524   15520   15521
   15525   15526   15527   15529   15530   15531   15532   15533   15534   15521
   15525   15526   15527   15525   15526   15527   15523   15524   15528   15528
   15528   15526   15527   15529   15530   15531   15532   15533   15534   15535
   15536   15537   15527   15529   15530   15531   15529   15530   15531       0
   15530   15531   15532   15533   15534   15535   15536   15537   15538   15539
   15540   15531   15532   15533   15534   15532   15533   15534   15533   15534
   15535   15536   15537   15538   15539   15540   15541   15542   15543   15534
   15535   15536   15537   15535   15536   15537   15536   15537   15538   15539
   15540   15541   15542   15543   15544   15545   15546   15537   15538   15539
   15540   15538   15539   15540   15539   15540   15541   15542   15543   15544
   15545   15546   15547   15548   15549   15540   15541   15542   15543   15541
   15542   15543   15542   15543   15544   15545   15546   15543   15544   15545
   15546   15544   15545   15546   15547   15548   15549   15550   15551   15552
   15545   15546   15547   15548   15549   15550   15551   15552   15546   15547
   15548   15549   15547   15548   15549   15548   15549   15550   15551   15552
   15549   15550   15551   15552   15550   15551   15552   15551   15552   15552
       0   15554   15555   15556   15557   15558   15559   15560   15561   15562
   15563   15564   15565   15555   15556   15557   15558   15559   15560   15561
   15562   15565   15566   15567   15568   15556   15557   15558   15559   15562
   15563   15564   15565   15569   15570   15571   15557   15559   15560   15561
   15562   15566   15567   15568   15572   15573   15574   15558   15559   15560
   15561   15562   15565   15568   15569   15571   15559   15563   15564   15565
   15569   15570   15575   15576   15577   15561   15562   15563   15564   15565
   15569   15571   15575   15561   15562   15566   15567   15568   15572   15573
   15578   15562   15566   15567   15568   15572   15574   15578   15565   15568
   15572   15574   15564   15565   15569   15570   15571   15575   15576   15577
   15579   15580   15581   15582   15569   15570   15569   15570   15571   15575
   15567   15568   15572   15573   15574   15578   15583   15584   15585   15572
   15573   15572   15573   15574   15578   15583   15584   15585   15570   15571
   15575   15576   15577   15575   15576   15577   15579   15580   15581   15582
   15586   15587   15588   15575   15573   15574   15578   15583   15584   15585
   15589   15590   15591   15578   15578       0   15577   15579   15580   15581
   15582   15586   15587   15592   15579   15580   15581   15582   15586   15588
   15592   15583   15584   15585   15589   15590   15591   15593   15594   15595
   15580   15581   15586   15587   15588   15592   15586   15587   15582   15586
   15587   15588   15592   15586   15588   15584   15585   15589   15590   15591
   15593   15594   15595   15596   15597   15598   15585   15589   15590   15591
   15589   15590   15591   15587   15588   15592   15592   15592   15590   15591
   15593   15594   15595   15596   15597   15598   15599   15600   15601   15591
   15593   15594   15595   15593   15594   15595       0   15594   15595   15596
   15597   15598   15599   15600   15601   15602   15603   15604   15595   15596
   15597   15598   15596   15597   15598   15597   15598   15599   15600   15601
   15602   15603   15604   15605   15606   15607   15598   15599   15600   15601
   15599   15600   15601   15600   15601   15602   15603   15604   15605   15606
   15607   15608   15609   15610   15601   15602   15603   15604   15602   15603
   15604   15603   15604   15605   15606   15607   15608   15609   15610   15611
   15612   15613   15604   15605   15606   15607   15605   15606   15607   15606
   15607   15608   15609   15610   15607   15608   15609   15610   15608   15609
   15610   15611   15612   15613   15614   15615   15616   15609   15610   15611
   15612   15613   15614   15615   15616   15610   15611   15612   15613   15611
   15612   15613   15612   15613   15614   15615   15616   15613   15614   15615
   15616   15614   15615   15616   15615   15616   15616       0   15618   15619
   15620   15621   15622   15623   15624   15625   15626   15627   15628   15629
   15619   15620   15621   15622   15623   15624   15625   15626   15629   15630
   15631   15632   15620   15621   15622   15623   15626   15627   15628   15629
   15633   15634   15635   15621   15623   15624   15625   15626   15630   15631
   15632   15636   15637   15638   15622   15623   15624   15625   15626   15629
   15632   15633   15635   15623   15627   15628   15629   15633   15634   15639
   15640   15641   15625   15626   15627   15628   15629   15633   15635   15639
   15625   15626   15630   15631   15632   15636   15637   15642   15626   15630
   15631   15632   15636   15638   15642   15629   15632   15636   15638   15628
   15629   15633   15634   15635   15639   15640   15641   15643   15644   15645
   15646   15633   15634   15633   15634   15635   15639   15631   15632   15636
   15637   15638   15642   15647   15648   15649   15636   15637   15636   15637
   15638   15642   15647   15648   15649   15634   15635   15639   15640   15641
   15639   15640   15641   15643   15644   15645   15646   15650   15651   15652
   15639   15637   15638   15642   15647   15648   15649   15653   15654   15655
   15642   15642       0   15641   15643   15644   15645   15646   15650   15651
   15656   15643   15644   15645   15646   15650   15652   15656   15647   15648
   15649   15653   15654   15655   15657   15658   15659   15644   15645   15650
   15651   15652   15656   15650   15651   15646   15650   15651   15652   15656
   15650   15652   15648   15649   15653   15654   15655   15657   15658   15659
   15660   15661   15662   15649   15653   15654   15655   15653   15654   15655
   15651   15652   15656   15656   15656   15654   15655   15657   15658   15659
   15660   15661   15662   15663   15664   15665   15655   15657   15658   15659
   15657   15658   15659       0   15658   15659   15660   15661   15662   15663
   15664   15665   15666   15667   15668   15659   15660   15661   15662   15660
   15661   15662   15661   15662   15663   15664   15665   15666   15667   15668
   15669   15670   15671   15662   15663   15664   15665   15663   15664   15665
   15664   15665   15666   15667   15668   15669   15670   15671   15672   15673
   15674   15665   15666   15667   15668   15666   15667   15668   15667   15668
   15669   15670   15671   15672   15673   15674   15675   15676   15677   15668
   15669   15670   15671   15669   15670   15671   15670   15671   15672   15673
   15674   15671   15672   15673   15674   15672   15673   15674   15675   15676
   15677   15678   15679   15680   15673   15674   15675   15676   15677   15678
   15679   15680   15674   15675   15676   15677   15675   15676   15677   15676
   15677   15678   15679   15680   15677   15678   15679   15680   15678   15679
   15680   15679   15680   15680       0   15682   15683   15684   15685   15686
   15687   15688   15689   15690   15691   15692   15693   15683   15684   15685
   15686   15687   15688   15689   15690   15693   15694   15695   15696   15684
   15685   15686   15687   15690   15691   15692   15693   15697   15698   15699
   15685   15687   15688   15689   15690   15694   15695   15696   15700   15701
   15702   15686   15687   15688   15689   15690   15693   15696   15697   15699
   15687   15691   15692   15693   15697   15698   15703   15704   15705   15689
   15690   15691   15692   15693   15697   15699   15703   15689   15690   15694
   15695   15696   15700   15701   15706   15690   15694   15695   15696   15700
   15702   15706   15693   15696   15700   15702   15692   15693   15697   15698
   15699   15703   15704   15705   15707   15708   15709   15710   15697   15698
   15697   15698   15699   15703   15695   15696   15700   15701   15702   15706
   15711   15712   15713   15700   15701   15700   15701   15702   15706   15711
   15712   15713   15698   15699   15703   15704   15705   15703   15704   15705
   15707   15708   15709   15710   15714   15715   15716   15703   15701   15702
   15706   15711   15712   15713   15717   15718   15719   15706   15706       0
   15705   15707   15708   15709   15710   15714   15715   15720   15707   15708
   15709   15710   15714   15716   15720   15711   15712   15713   15717   15718
   15719   15721   15722   15723   15708   15709   15714   15715   15716   15720
   15714   15715   15710   15714   15715   15716   15720   15714   15716   15712
   15713   15717   15718   15719   15721   15722   15723   15724   15725   15726
   15713   15717   15718   15719   15717   15718   15719   15715   15716   15720
   15720   15720   15718   15719   15721   15722   15723   15724   15725   15726
   15727   15728   15729   15719   15721   15722   15723   15721   15722   15723
       0   15722   15723   15724   15725   15726   15727   15728   15729   15730
   15731   15732   15723   15724   15725   15726   15724   15725   15726   15725
   15726   15727   15728   15729   15730   15731   15732   15733   15734   15735
   15726   15727   15728   15729   15727   15728   15729   15728   15729   15730
   15731   15732   15733   15734   15735   15736   15737   15738   15729   15730
   15731   15732   15730   15731   15732   15731   15732   15733   15734   15735
   15736   15737   15738   15739   15740   15741   15732   15733   15734   15735
   15733   15734   15735   15734   15735   15736   15737   15738   15735   15736
   15737   15738   15736   15737   15738   15739   15740   15741   15742   15743
   15744   15737   15738   15739   15740   15741   15742   15743   15744   15738
   15739   15740   15741   15739   15740   15741   15740   15741   15742   15743
   15744   15741   15742   15743   15744   15742   15743   15744   15743   15744
   15744       0   15746   15747   15748   15749   15750   15751   15752   15753
   15754   15755   15756   15757   15747   15748   15749   15750   15751   15752
   15753   15754   15757   15758   15759   15760   15748   15749   15750   15751
   15754   15755   15756   15757   15761   15762   15763   15749   15751   15752
   15753   15754   15758   15759   15760   15764   15765   15766   15750   15751
   15752   15753   15754   15757   15760   15761   15763   15751   15755   15756
   15757   15761   15762   15767   15768   15769   15753   15754   15755   15756
   15757   15761   15763   15767   15753   15754   15758   15759   15760   15764
   15765   15770   15754   15758   15759   15760   15764   15766   15770   15757
   15760   15764   15766   15756   15757   15761   15762   15763   15767   15768
   15769   15771   15772   15773   15774   15761   15762   15761   15762   15763
   15767   15759   15760   15764   15765   15766   15770   15775   15776   15777
   15764   15765   15764   15765   15766   15770   15775   15776   15777   15762
   15763   15767   15768   15769   15767   15768   15769   15771   15772   15773
   15774   15778   15779   15780   15767   15765   15766   15770   15775   15776
   15777   15781   15782   15783   15770   15770       0   15769   15771   15772
   15773   15774   15778   15779   15784   15771   15772   15773   15774   15778
   15780   15784   15775   15776   15777   15781   15782   15783   15785   15786
   15787   15772   15773   15778   15779   15780   15784   15778   15779   15774
   15778   15779   15780   15784   15778   15780   15776   15777   15781   15782
   15783   15785   15786   15787   15788   15789   15790   15777   15781   15782
   15783   15781   15782   15783   15779   15780   15784   15784   15784   15782
   15783   15785   15786   15787   15788   15789   15790   15791   15792   15793
   15783   15785   15786   15787   15785   15786   15787       0   15786   15787
   15788   15789   15790   15791   15792   15793   15794   15795   15796   15787
   15788   15789   15790   15788   15789   15790   15789   15790   15791   15792
   15793   15794   15795   15796   15797   15798   15799   15790   15791   15792
   15793   15791   15792   15793   15792   15793   15794   15795   15796   15797
   15798   15799   15800   15801   15802   15793   15794   15795   15796   15794
   15795   15796   15795   15796   15797   15798   15799   15800   15801   15802
   15803   15804   15805   15796   15797   15798   15799   15797   15798   15799
   15798   15799   15800   15801   15802   15799   15800   15801   15802   15800
   15801   15802   15803   15804   15805   15806   15807   15808   15801   15802
   15803   15804   15805   15806   15807   15808   15802   15803   15804   15805
   15803   15804   15805   15804   15805   15806   15807   15808   15805   15806
   15807   15808   15806   15807   15808   15807   15808   15808       0   15810
   15811   15812   15813   15814   15815   15816   15817   15818   15819   15820
   15821   15811   15812   15813   15814   15815   15816   15817   15818   15821
   15822   15823   15824   15812   15813   15814   15815   15818   15819   15820
   15821   15825   15826   15827   15813   15815   15816   15817   15818   15822
   15823   15824   15828   15829   15830   15814   15815   15816   15817   15818
   15821   15824   15825   15827   15815   15819   15820   15821   15825   15826
   15831   15832   15833   15817   15818   15819   15820   15821   15825   15827
   15831   15817   15818   15822   15823   15824   15828   15829   15834   15818
   15822   15823   15824   15828   15830   15834   15821   15824   15828   15830
   15820   15821   15825   15826   15827   15831   15832   15833   15835   15836
   15837   15838   15825   15826   15825   15826   15827   15831   15823   15824
   15828   15829   15830   15834   15839   15840   15841   15828   15829   15828
   15829   15830   15834   15839   15840   15841   15826   15827   15831   15832
   15833   15831   15832   15833   15835   15836   15837   15838   15842   15843
   15844   15831   15829   15830   15834   15839   15840   15841   15845   15846
   15847   15834   15834       0   15833   15835   15836   15837   15838   15842
   15843   15848   15835   15836   15837   15838   15842   15844   15848   15839
   15840   15841   15845   15846   15847   15849   15850   15851   15836   15837
   15842   15843   15844   15848   15842   15843   15838   15842   15843   15844
   15848   15842   15844   15840   15841   15845   15846   15847   15849   15850
   15851   15852   15853   15854   15841   15845   15846   15847   15845   15846
   15847   15843   15844   15848   15848   15848   15846   15847   15849   15850
   15851   15852   15853   15854   15855   15856   15857   15847   15849   15850
   15851   15849   15850   15851       0   15850   15851   15852   15853   15854
   15855   15856   15857   15858   15859   15860   15851   15852   15853   15854
   15852   15853   15854   15853   15854   15855   15856   15857   15858   15859
   15860   15861   15862   15863   15854   15855   15856   15857   15855   15856
   15857   15856   15857   15858   15859   15860   15861   15862   15863   15864
   15865   15866   15857   15858   15859   15860   15858   15859   15860   15859
   15860   15861   15862   15863   15864   15865   15866   15867   15868   15869
   15860   15861   15862   15863   15861   15862   15863   15862   15863   15864
   15865   15866   15863   15864   15865   15866   15864   15865   15866   15867
   15868   15869   15870   15871   15872   15865   15866   15867   15868   15869
   15870   15871   15872   15866   15867   15868   15869   15867   15868   15869
   15868   15869   15870   15871   15872   15869   15870   15871   15872   15870
   15871   15872   15871   15872   15872       0   15874   15875   15876   15877
   15878   15879   15880   15881   15882   15883   15884   15885   15875   15876
   15877   15878   15879   15880   15881   15882   15885   15886   15887   15888
   15876   15877   15878   15879   15882   15883   15884   15885   15889   15890
   15891   15877   15879   15880   15881   15882   15886   15887   15888   15892
   15893   15894   15878   15879   15880   15881   15882   15885   15888   15889
   15891   15879   15883   15884   15885   15889   15890   15895   15896   15897
   15881   15882   15883   15884   15885   15889   15891   15895   15881   15882
   15886   15887   15888   15892   15893   15898   15882   15886   15887   15888
   15892   15894   15898   15885   15888   15892   15894   15884   15885   15889
   15890   15891   15895   15896   15897   15899   15900   15901   15902   15889
   15890   15889   15890   15891   15895   15887   15888   15892   15893   15894
   15898   15903   15904   15905   15892   15893   15892   15893   15894   15898
   15903   15904   15905   15890   15891   15895   15896   15897   15895   15896
   15897   15899   15900   15901   15902   15906   15907   15908   15895   15893
   15894   15898   15903   15904   15905   15909   15910   15911   15898   15898
       0   15897   15899   15900   15901   15902   15906   15907   15912   15899
   15900   15901   15902   15906   15908   15912   15903   15904   15905   15909
   15910   15911   15913   15914   15915   15900   15901   15906   15907   15908
   15912   15906   15907   15902   15906   15907   15908   15912   15906   15908
   15904   15905   15909   15910   15911   15913   15914   15915   15916   15917
   15918   15905   15909   15910   15911   15909   15910   15911   15907   15908
   15912   15912   15912   15910   15911   15913   15914   15915   15916   15917
   15918   15919   15920   15921   15911   15913   15914   15915   15913   15914
   15915       0   15914   15915   15916   15917   15918   15919   15920   15921
   15922   15923   15924   15915   15916   15917   15918   15916   15917   15918
   15917   15918   15919   15920   15921   15922   15923   15924   15925   15926
   15927   15918   15919   15920   15921   15919   15920   15921   15920   15921
   15922   15923   15924   15925   15926   15927   15928   15929   15930   15921
   15922   15923   15924   15922   15923   15924   15923   15924   15925   15926
   15927   15928   15929   15930   15931   15932   15933   15924   15925   15926
   15927   15925   15926   15927   15926   15927   15928   15929   15930   15927
   15928   15929   15930   15928   15929   15930   15931   15932   15933   15934
   15935   15936   15929   15930   15931   15932   15933   15934   15935   15936
   15930   15931   15932   15933   15931   15932   15933   15932   15933   15934
   15935   15936   15933   15934   15935   15936   15934   15935   15936   15935
   15936   15936       0   15938   15939   15940   15941   15942   15943   15944
   15945   15946   15947   15948   15949   15939   15940   15941   15942   15943
   15944   15945   15946   15949   15950   15951   15952   15940   15941   15942
   15943   15946   15947   15948   15949   15953   15954   15955   15941   15943
   15944   15945   15946   15950   15951   15952   15956   15957   15958   15942
   15943   15944   15945   15946   15949   15952   15953   15955   15943   15947
   15948   15949   15953   15954   15959   15960   15961   15945   15946   15947
   15948   15949   15953   15955   15959   15945   15946   15950   15951   15952
   15956   15957   15962   15946   15950   15951   15952   15956   15958   15962
   15949   15952   15956   15958   15948   15949   15953   15954   15955   15959
   15960   15961   15963   15964   15965   15966   15953   15954   15953   15954
   15955   15959   15951   15952   15956   15957   15958   15962   15967   15968
   15969   15956   15957   15956   15957   15958   15962   15967   15968   15969
   15954   15955   15959   15960   15961   15959   15960   15961   15963   15964
   15965   15966   15970   15971   15972   15959   15957   15958   15962   15967
   15968   15969   15973   15974   15975   15962   15962       0   15961   15963
   15964   15965   15966   15970   15971   15976   15963   15964   15965   15966
   15970   15972   15976   15967   15968   15969   15973   15974   15975   15977
   15978   15979   15964   15965   15970   15971   15972   15976   15970   15971
   15966   15970   15971   15972   15976   15970   15972   15968   15969   15973
   15974   15975   15977   15978   15979   15980   15981   15982   15969   15973
   15974   15975   15973   15974   15975   15971   15972   15976   15976   15976
   15974   15975   15977   15978   15979   15980   15981   15982   15983   15984
   15985   15975   15977   15978   15979   15977   15978   15979       0   15978
   15979   15980   15981   15982   15983   15984   15985   15986   15987   15988
   15979   15980   15981   15982   15980   15981   15982   15981   15982   15983
   15984   15985   15986   15987   15988   15989   15990   15991   15982   15983
   15984   15985   15983   15984   15985   15984   15985   15986   15987   15988
   15989   15990   15991   15992   15993   15994   15985   15986   15987   15988
   15986   15987   15988   15987   15988   15989   15990   15991   15992   15993
   15994   15995   15996   15997   15988   15989   15990   15991   15989   15990
   15991   15990   15991   15992   15993   15994   15991   15992   15993   15994
   15992   15993   15994   15995   15996   15997   15998   15999   16000   15993
   15994   15995   15996   15997   15998   15999   16000   15994   15995   15996
   15997   15995   15996   15997   15996   15997   15998   15999   16000   15997
   15998   15999   16000   15998   15999   16000   15999   16000   16000       0
   16002   16003   16004   16005   16006   16007   16008   16009   16010   16011
   16012   16013   16003   16004   16005   16006   16007   16008   16009   16010
   16013   16014   16015   16016   16004   16005   16006   16007   16010   16011
   16012   16013   16017   16018   16019   16005   16007   16008   16009   16010
   16014   16015   16016   16020   16021   16022   16006   16007   16008   16009
   16010   16013   16016   16017   16019   16007   16011   16012   16013   16017
   16018   16023   16024   16025   16009   16010   16011   16012   16013   16017
   16019   16023   16009   16010   16014   16015   16016   16020   16021   16026
   16010   16014   16015   16016   16020   16022   16026   16013   16016   16020
   16022   16012   16013   16017   16018   16019   16023   16024   16025   16027
   16028   16029   16030   16017   16018   16017   16018   16019   16023   16015
   16016   16020   16021   16022   16026   16031   16032   16033   16020   16021
   16020   16021   16022   16026   16031   16032   16033   16018   16019   16023
   16024   16025   16023   16024   16025   16027   16028   16029   16030   16034
   16035   16036   16023   16021   16022   16026   16031   16032   16033   16037
   16038   16039   16026   16026       0   16025   16027   16028   16029   16030
   16034   16035   16040   16027   16028   16029   16030   16034   16036   16040
   16031   16032   16033   16037   16038   16039   16041   16042   16043   16028
   16029   16034   16035   16036   16040   16034   16035   16030   16034   16035
   16036   16040   16034   16036   16032   16033   16037   16038   16039   16041
   16042   16043   16044   16045   16046   16033   16037   16038   16039   16037
   16038   16039   16035   16036   16040   16040   16040   16038   16039   16041
   16042   16043   16044   16045   16046   16047   16048   16049   16039   16041
   16042   16043   16041   16042   16043       0   16042   16043   16044   16045
   16046   16047   16048   16049   16050   16051   16052   16043   16044   16045
   16046   16044   16045   16046   16045   16046   16047   16048   16049   16050
   16051   16052   16053   16054   16055   16046   16047   16048   16049   16047
   16048   16049   16048   16049   16050   16051   16052   16053   16054   16055
   16056   16057   16058   16049   16050   16051   16052   16050   16051   16052
   16051   16052   16053   16054   16055   16056   16057   16058   16059   16060
   16061   16052   16053   16054   16055   16053   16054   16055   16054   16055
   16056   16057   16058   16055   16056   16057   16058   16056   16057   16058
   16059   16060   16061   16062   16063   16064   16057   16058   16059   16060
   16061   16062   16063   16064   16058   16059   16060   16061   16059   16060
   16061   16060   16061   16062   16063   16064   16061   16062   16063   16064
   16062   16063   16064   16063   16064   16064       0   16066   16067   16068
   16069   16070   16071   16072   16073   16074   16075   16076   16077   16067
   16068   16069   16070   16071   16072   16073   16074   16077   16078   16079
   16080   16068   16069   16070   16071   16074   16075   16076   16077   16081
   16082   16083   16069   16071   16072   16073   16074   16078   16079   16080
   16084   16085   16086   16070   16071   16072   16073   16074   16077   16080
   16081   16083   16071   16075   16076   16077   16081   16082   16087   16088
   16089   16073   16074   16075   16076   16077   16081   16083   16087   16073
   16074   16078   16079   16080   16084   16085   16090   16074   16078   16079
   16080   16084   16086   16090   16077   16080   16084   16086   16076   16077
   16081   16082   16083   16087   16088   16089   16091   16092   16093   16094
   16081   16082   16081   16082   16083   16087   16079   16080   16084   16085
   16086   16090   16095   16096   16097   16084   16085   16084   16085   16086
   16090   16095   16096   16097   16082   16083   16087   16088   16089   16087
   16088   16089   16091   16092   16093   16094   16098   16099   16100   16087
   16085   16086   16090   16095   16096   16097   16101   16102   16103   16090
   16090       0   16089   16091   16092   16093   16094   16098   16099   16104
   16091   16092   16093   16094   16098   16100   16104   16095   16096   16097
   16101   16102   16103   16105   16106   16107   16092   16093   16098   16099
   16100   16104   16098   16099   16094   16098   16099   16100   16104   16098
   16100   16096   16097   16101   16102   16103   16105   16106   16107   16108
   16109   16110   16097   16101   16102   16103   16101   16102   16103   16099
   16100   16104   16104   16104   16102   16103   16105   16106   16107   16108
   16109   16110   16111   16112   16113   16103   16105   16106   16107   16105
   16106   16107       0   16106   16107   16108   16109   16110   16111   16112
   16113   16114   16115   16116   16107   16108   16109   16110   16108   16109
   16110   16109   16110   16111   16112   16113   16114   16115   16116   16117
   16118   16119   16110   16111   16112   16113   16111   16112   16113   16112
   16113   16114   16115   16116   16117   16118   16119   16120   16121   16122
   16113   16114   16115   16116   16114   16115   16116   16115   16116   16117
   16118   16119   16120   16121   16122   16123   16124   16125   16116   16117
   16118   16119   16117   16118   16119   16118   16119   16120   16121   16122
   16119   16120   16121   16122   16120   16121   16122   16123   16124   16125
   16126   16127   16128   16121   16122   16123   16124   16125   16126   16127
   16128   16122   16123   16124   16125   16123   16124   16125   16124   16125
   16126   16127   16128   16125   16126   16127   16128   16126   16127   16128
   16127   16128   16128       0   16130   16131   16132   16133   16134   16135
   16136   16137   16138   16139   16140   16141   16131   16132   16133   16134
   16135   16136   16137   16138   16141   16142   16143   16144   16132   16133
   16134   16135   16138   16139   16140   16141   16145   16146   16147   16133
   16135   16136   16137   16138   16142   16143   16144   16148   16149   16150
   16134   16135   16136   16137   16138   16141   16144   16145   16147   16135
   16139   16140   16141   16145   16146   16151   16152   16153   16137   16138
   16139   16140   16141   16145   16147   16151   16137   16138   16142   16143
   16144   16148   16149   16154   16138   16142   16143   16144   16148   16150
   16154   16141   16144   16148   16150   16140   16141   16145   16146   16147
   16151   16152   16153   16155   16156   16157   16158   16145   16146   16145
   16146   16147   16151   16143   16144   16148   16149   16150   16154   16159
   16160   16161   16148   16149   16148   16149   16150   16154   16159   16160
   16161   16146   16147   16151   16152   16153   16151   16152   16153   16155
   16156   16157   16158   16162   16163   16164   16151   16149   16150   16154
   16159   16160   16161   16165   16166   16167   16154   16154       0   16153
   16155   16156   16157   16158   16162   16163   16168   16155   16156   16157
   16158   16162   16164   16168   16159   16160   16161   16165   16166   16167
   16169   16170   16171   16156   16157   16162   16163   16164   16168   16162
   16163   16158   16162   16163   16164   16168   16162   16164   16160   16161
   16165   16166   16167   16169   16170   16171   16172   16173   16174   16161
   16165   16166   16167   16165   16166   16167   16163   16164   16168   16168
   16168   16166   16167   16169   16170   16171   16172   16173   16174   16175
   16176   16177   16167   16169   16170   16171   16169   16170   16171       0
   16170   16171   16172   16173   16174   16175   16176   16177   16178   16179
   16180   16171   16172   16173   16174   16172   16173   16174   16173   16174
   16175   16176   16177   16178   16179   16180   16181   16182   16183   16174
   16175   16176   16177   16175   16176   16177   16176   16177   16178   16179
   16180   16181   16182   16183   16184   16185   16186   16177   16178   16179
   16180   16178   16179   16180   16179   16180   16181   16182   16183   16184
   16185   16186   16187   16188   16189   16180   16181   16182   16183   16181
   16182   16183   16182   16183   16184   16185   16186   16183   16184   16185
   16186   16184   16185   16186   16187   16188   16189   16190   16191   16192
   16185   16186   16187   16188   16189   16190   16191   16192   16186   16187
   16188   16189   16187   16188   16189   16188   16189   16190   16191   16192
   16189   16190   16191   16192   16190   16191   16192   16191   16192   16192
       0   16194   16195   16196   16197   16198   16199   16200   16201   16202
   16203   16204   16205   16195   16196   16197   16198   16199   16200   16201
   16202   16205   16206   16207   16208   16196   16197   16198   16199   16202
   16203   16204   16205   16209   16210   16211   16197   16199   16200   16201
   16202   16206   16207   16208   16212   16213   16214   16198   16199   16200
   16201   16202   16205   16208   16209   16211   16199   16203   16204   16205
   16209   16210   16215   16216   16217   16201   16202   16203   16204   16205
   16209   16211   16215   16201   16202   16206   16207   16208   16212   16213
   16218   16202   16206   16207   16208   16212   16214   16218   16205   16208
   16212   16214   16204   16205   16209   16210   16211   16215   16216   16217
   16219   16220   16221   16222   16209   16210   16209   16210   16211   16215
   16207   16208   16212   16213   16214   16218   16223   16224   16225   16212
   16213   16212   16213   16214   16218   16223   16224   16225   16210   16211
   16215   16216   16217   16215   16216   16217   16219   16220   16221   16222
   16226   16227   16228   16215   16213   16214   16218   16223   16224   16225
   16229   16230   16231   16218   16218       0   16217   16219   16220   16221
   16222   16226   16227   16232   16219   16220   16221   16222   16226   16228
   16232   16223   16224   16225   16229   16230   16231   16233   16234   16235
   16220   16221   16226   16227   16228   16232   16226   16227   16222   16226
   16227   16228   16232   16226   16228   16224   16225   16229   16230   16231
   16233   16234   16235   16236   16237   16238   16225   16229   16230   16231
   16229   16230   16231   16227   16228   16232   16232   16232   16230   16231
   16233   16234   16235   16236   16237   16238   16239   16240   16241   16231
   16233   16234   16235   16233   16234   16235       0   16234   16235   16236
   16237   16238   16239   16240   16241   16242   16243   16244   16235   16236
   16237   16238   16236   16237   16238   16237   16238   16239   16240   16241
   16242   16243   16244   16245   16246   16247   16238   16239   16240   16241
   16239   16240   16241   16240   16241   16242   16243   16244   16245   16246
   16247   16248   16249   16250   16241   16242   16243   16244   16242   16243
   16244   16243   16244   16245   16246   16247   16248   16249   16250   16251
   16252   16253   16244   16245   16246   16247   16245   16246   16247   16246
   16247   16248   16249   16250   16247   16248   16249   16250   16248   16249
   16250   16251   16252   16253   16254   16255   16256   16249   16250   16251
   16252   16253   16254   16255   16256   16250   16251   16252   16253   16251
   16252   16253   16252   16253   16254   16255   16256   16253   16254   16255
   16256   16254   16255   16256   16255   16256   16256       0   16258   16259
   16260   16261   16262   16263   16264   16265   16266   16267   16268   16269
   16259   16260   16261   16262   16263   16264   16265   16266   16269   16270
   16271   16272   16260   16261   16262   16263   16266   16267   16268   16269
   16273   16274   16275   16261   16263   16264   16265   16266   16270   16271
   16272   16276   16277   16278   16262   16263   16264   16265   16266   16269
   16272   16273   16275   16263   16267   16268   16269   16273   16274   16279
   16280   16281   16265   16266   16267   16268   16269   16273   16275   16279
   16265   16266   16270   16271   16272   16276   16277   16282   16266   16270
   16271   16272   16276   16278   16282   16269   16272   16276   16278   16268
   16269   16273   16274   16275   16279   16280   16281   16283   16284   16285
   16286   16273   16274   16273   16274   16275   16279   16271   16272   16276
   16277   16278   16282   16287   16288   16289   16276   16277   16276   16277
   16278   16282   16287   16288   16289   16274   16275   16279   16280   16281
   16279   16280   16281   16283   16284   16285   16286   16290   16291   16292
   16279   16277   16278   16282   16287   16288   16289   16293   16294   16295
   16282   16282       0   16281   16283   16284   16285   16286   16290   16291
   16296   16283   16284   16285   16286   16290   16292   16296   16287   16288
   16289   16293   16294   16295   16297   16298   16299   16284   16285   16290
   16291   16292   16296   16290   16291   16286   16290   16291   16292   16296
   16290   16292   16288   16289   16293   16294   16295   16297   16298   16299
   16300   16301   16302   16289   16293   16294   16295   16293   16294   16295
   16291   16292   16296   16296   16296   16294   16295   16297   16298   16299
   16300   16301   16302   16303   16304   16305   16295   16297   16298   16299
   16297   16298   16299       0   16298   16299   16300   16301   16302   16303
   16304   16305   16306   16307   16308   16299   16300   16301   16302   16300
   16301   16302   16301   16302   16303   16304   16305   16306   16307   16308
   16309   16310   16311   16302   16303   16304   16305   16303   16304   16305
   16304   16305   16306   16307   16308   16309   16310   16311   16312   16313
   16314   16305   16306   16307   16308   16306   16307   16308   16307   16308
   16309   16310   16311   16312   16313   16314   16315   16316   16317   16308
   16309   16310   16311   16309   16310   16311   16310   16311   16312   16313
   16314   16311   16312   16313   16314   16312   16313   16314   16315   16316
   16317   16318   16319   16320   16313   16314   16315   16316   16317   16318
   16319   16320   16314   16315   16316   16317   16315   16316   16317   16316
   16317   16318   16319   16320   16317   16318   16319   16320   16318   16319
   16320   16319   16320   16320       0   16322   16323   16324   16325   16326
   16327   16328   16329   16330   16331   16332   16333   16323   16324   16325
   16326   16327   16328   16329   16330   16333   16334   16335   16336   16324
   16325   16326   16327   16330   16331   16332   16333   16337   16338   16339
   16325   16327   16328   16329   16330   16334   16335   16336   16340   16341
   16342   16326   16327   16328   16329   16330   16333   16336   16337   16339
   16327   16331   16332   16333   16337   16338   16343   16344   16345   16329
   16330   16331   16332   16333   16337   16339   16343   16329   16330   16334
   16335   16336   16340   16341   16346   16330   16334   16335   16336   16340
   16342   16346   16333   16336   16340   16342   16332   16333   16337   16338
   16339   16343   16344   16345   16347   16348   16349   16350   16337   16338
   16337   16338   16339   16343   16335   16336   16340   16341   16342   16346
   16351   16352   16353   16340   16341   16340   16341   16342   16346   16351
   16352   16353   16338   16339   16343   16344   16345   16343   16344   16345
   16347   16348   16349   16350   16354   16355   16356   16343   16341   16342
   16346   16351   16352   16353   16357   16358   16359   16346   16346       0
   16345   16347   16348   16349   16350   16354   16355   16360   16347   16348
   16349   16350   16354   16356   16360   16351   16352   16353   16357   16358
   16359   16361   16362   16363   16348   16349   16354   16355   16356   16360
   16354   16355   16350   16354   16355   16356   16360   16354   16356   16352
   16353   16357   16358   16359   16361   16362   16363   16364   16365   16366
   16353   16357   16358   16359   16357   16358   16359   16355   16356   16360
   16360   16360   16358   16359   16361   16362   16363   16364   16365   16366
   16367   16368   16369   16359   16361   16362   16363   16361   16362   16363
       0   16362   16363   16364   16365   16366   16367   16368   16369   16370
   16371   16372   16363   16364   16365   16366   16364   16365   16366   16365
   16366   16367   16368   16369   16370   16371   16372   16373   16374   16375
   16366   16367   16368   16369   16367   16368   16369   16368   16369   16370
   16371   16372   16373   16374   16375   16376   16377   16378   16369   16370
   16371   16372   16370   16371   16372   16371   16372   16373   16374   16375
   16376   16377   16378   16379   16380   16381   16372   16373   16374   16375
   16373   16374   16375   16374   16375   16376   16377   16378   16375   16376
   16377   16378   16376   16377   16378   16379   16380   16381   16382   16383
   16384   16377   16378   16379   16380   16381   16382   16383   16384   16378
   16379   16380   16381   16379   16380   16381   16380   16381   16382   16383
   16384   16381   16382   16383   16384   16382   16383   16384   16383   16384
   16384       0   16386   16387   16388   16389   16390   16391   16392   16393
   16394   16395   16396   16397   16387   16388   16389   16390   16391   16392
   16393   16394   16397   16398   16399   16400   16388   16389   16390   16391
   16394   16395   16396   16397   16401   16402   16403   16389   16391   16392
   16393   16394   16398   16399   16400   16404   16405   16406   16390   16391
   16392   16393   16394   16397   16400   16401   16403   16391   16395   16396
   16397   16401   16402   16407   16408   16409   16393   16394   16395   16396
   16397   16401   16403   16407   16393   16394   16398   16399   16400   16404
   16405   16410   16394   16398   16399   16400   16404   16406   16410   16397
   16400   16404   16406   16396   16397   16401   16402   16403   16407   16408
   16409   16411   16412   16413   16414   16401   16402   16401   16402   16403
   16407   16399   16400   16404   16405   16406   16410   16415   16416   16417
   16404   16405   16404   16405   16406   16410   16415   16416   16417   16402
   16403   16407   16408   16409   16407   16408   16409   16411   16412   16413
   16414   16418   16419   16420   16407   16405   16406   16410   16415   16416
   16417   16421   16422   16423   16410   16410       0   16409   16411   16412
   16413   16414   16418   16419   16424   16411   16412   16413   16414   16418
   16420   16424   16415   16416   16417   16421   16422   16423   16425   16426
   16427   16412   16413   16418   16419   16420   16424   16418   16419   16414
   16418   16419   16420   16424   16418   16420   16416   16417   16421   16422
   16423   16425   16426   16427   16428   16429   16430   16417   16421   16422
   16423   16421   16422   16423   16419   16420   16424   16424   16424   16422
   16423   16425   16426   16427   16428   16429   16430   16431   16432   16433
   16423   16425   16426   16427   16425   16426   16427       0   16426   16427
   16428   16429   16430   16431   16432   16433   16434   16435   16436   16427
   16428   16429   16430   16428   16429   16430   16429   16430   16431   16432
   16433   16434   16435   16436   16437   16438   16439   16430   16431   16432
   16433   16431   16432   16433   16432   16433   16434   16435   16436   16437
   16438   16439   16440   16441   16442   16433   16434   16435   16436   16434
   16435   16436   16435   16436   16437   16438   16439   16440   16441   16442
   16443   16444   16445   16436   16437   16438   16439   16437   16438   16439
   16438   16439   16440   16441   16442   16439   16440   16441   16442   16440
   16441   16442   16443   16444   16445   16446   16447   16448   16441   16442
   16443   16444   16445   16446   16447   16448   16442   16443   16444   16445
   16443   16444   16445   16444   16445   16446   16447   16448   16445   16446
   16447   16448   16446   16447   16448   16447   16448   16448       0   16450
   16451   16452   16453   16454   16455   16456   16457   16458   16459   16460
   16461   16451   16452   16453   16454   16455   16456   16457   16458   16461
   16462   16463   16464   16452   16453   16454   16455   16458   16459   16460
   16461   16465   16466   16467   16453   16455   16456   16457   16458   16462
   16463   16464   16468   16469   16470   16454   16455   16456   16457   16458
   16461   16464   16465   16467   16455   16459   16460   16461   16465   16466
   16471   16472   16473   16457   16458   16459   16460   16461   16465   16467
   16471   16457   16458   16462   16463   16464   16468   16469   16474   16458
   16462   16463   16464   16468   16470   16474   16461   16464   16468   16470
   16460   16461   16465   16466   16467   16471   16472   16473   16475   16476
   16477   16478   16465   16466   16465   16466   16467   16471   16463   16464
   16468   16469   16470   16474   16479   16480   16481   16468   16469   16468
   16469   16470   16474   16479   16480   16481   16466   16467   16471   16472
   16473   16471   16472   16473   16475   16476   16477   16478   16482   16483
   16484   16471   16469   16470   16474   16479   16480   16481   16485   16486
   16487   16474   16474       0   16473   16475   16476   16477   16478   16482
   16483   16488   16475   16476   16477   16478   16482   16484   16488   16479
   16480   16481   16485   16486   16487   16489   16490   16491   16476   16477
   16482   16483   16484   16488   16482   16483   16478   16482   16483   16484
   16488   16482   16484   16480   16481   16485   16486   16487   16489   16490
   16491   16492   16493   16494   16481   16485   16486   16487   16485   16486
   16487   16483   16484   16488   16488   16488   16486   16487   16489   16490
   16491   16492   16493   16494   16495   16496   16497   16487   16489   16490
   16491   16489   16490   16491       0   16490   16491   16492   16493   16494
   16495   16496   16497   16498   16499   16500   16491   16492   16493   16494
   16492   16493   16494   16493   16494   16495   16496   16497   16498   16499
   16500   16501   16502   16503   16494   16495   16496   16497   16495   16496
   16497   16496   16497   16498   16499   16500   16501   16502   16503   16504
   16505   16506   16497   16498   16499   16500   16498   16499   16500   16499
   16500   16501   16502   16503   16504   16505   16506   16507   16508   16509
   16500   16501   16502   16503   16501   16502   16503   16502   16503   16504
   16505   16506   16503   16504   16505   16506   16504   16505   16506   16507
   16508   16509   16510   16511   16512   16505   16506   16507   16508   16509
   16510   16511   16512   16506   16507   16508   16509   16507   16508   16509
   16508   16509   16510   16511   16512   16509   16510   16511   16512   16510
   16511   16512   16511   16512   16512       0   16514   16515   16516   16517
   16518   16519   16520   16521   16522   16523   16524   16525   16515   16516
   16517   16518   16519   16520   16521   16522   16525   16526   16527   16528
   16516   16517   16518   16519   16522   16523   16524   16525   16529   16530
   16531   16517   16519   16520   16521   16522   16526   16527   16528   16532
   16533   16534   16518   16519   16520   16521   16522   16525   16528   16529
   16531   16519   16523   16524   16525   16529   16530   16535   16536   16537
   16521   16522   16523   16524   16525   16529   16531   16535   16521   16522
   16526   16527   16528   16532   16533   16538   16522   16526   16527   16528
   16532   16534   16538   16525   16528   16532   16534   16524   16525   16529
   16530   16531   16535   16536   16537   16539   16540   16541   16542   16529
   16530   16529   16530   16531   16535   16527   16528   16532   16533   16534
   16538   16543   16544   16545   16532   16533   16532   16533   16534   16538
   16543   16544   16545   16530   16531   16535   16536   16537   16535   16536
   16537   16539   16540   16541   16542   16546   16547   16548   16535   16533
   16534   16538   16543   16544   16545   16549   16550   16551   16538   16538
       0   16537   16539   16540   16541   16542   16546   16547   16552   16539
   16540   16541   16542   16546   16548   16552   16543   16544   16545   16549
   16550   16551   16553   16554   16555   16540   16541   16546   16547   16548
   16552   16546   16547   16542   16546   16547   16548   16552   16546   16548
   16544   16545   16549   16550   16551   16553   16554   16555   16556   16557
   16558   16545   16549   16550   16551   16549   16550   16551   16547   16548
   16552   16552   16552   16550   16551   16553   16554   16555   16556   16557
   16558   16559   16560   16561   16551   16553   16554   16555   16553   16554
   16555       0   16554   16555   16556   16557   16558   16559   16560   16561
   16562   16563   16564   16555   16556   16557   16558   16556   16557   16558
   16557   16558   16559   16560   16561   16562   16563   16564   16565   16566
   16567   16558   16559   16560   16561   16559   16560   16561   16560   16561
   16562   16563   16564   16565   16566   16567   16568   16569   16570   16561
   16562   16563   16564   16562   16563   16564   16563   16564   16565   16566
   16567   16568   16569   16570   16571   16572   16573   16564   16565   16566
   16567   16565   16566   16567   16566   16567   16568   16569   16570   16567
   16568   16569   16570   16568   16569   16570   16571   16572   16573   16574
   16575   16576   16569   16570   16571   16572   16573   16574   16575   16576
   16570   16571   16572   16573   16571   16572   16573   16572   16573   16574
   16575   16576   16573   16574   16575   16576   16574   16575   16576   16575
   16576   16576       0   16578   16579   16580   16581   16582   16583   16584
   16585   16586   16587   16588   16589   16579   16580   16581   16582   16583
   16584   16585   16586   16589   16590   16591   16592   16580   16581   16582
   16583   16586   16587   16588   16589   16593   16594   16595   16581   16583
   16584   16585   16586   16590   16591   16592   16596   16597   16598   16582
   16583   16584   16585   16586   16589   16592   16593   16595   16583   16587
   16588   16589   16593   16594   16599   16600   16601   16585   16586   16587
   16588   16589   16593   16595   16599   16585   16586   16590   16591   16592
   16596   16597   16602   16586   16590   16591   16592   16596   16598   16602
   16589   16592   16596   16598   16588   16589   16593   16594   16595   16599
   16600   16601   16603   16604   16605   16606   16593   16594   16593   16594
   16595   16599   16591   16592   16596   16597   16598   16602   16607   16608
   16609   16596   16597   16596   16597   16598   16602   16607   16608   16609
   16594   16595   16599   16600   16601   16599   16600   16601   16603   16604
   16605   16606   16610   16611   16612   16599   16597   16598   16602   16607
   16608   16609   16613   16614   16615   16602   16602       0   16601   16603
   16604   16605   16606   16610   16611   16616   16603   16604   16605   16606
   16610   16612   16616   16607   16608   16609   16613   16614   16615   16617
   16618   16619   16604   16605   16610   16611   16612   16616   16610   16611
   16606   16610   16611   16612   16616   16610   16612   16608   16609   16613
   16614   16615   16617   16618   16619   16620   16621   16622   16609   16613
   16614   16615   16613   16614   16615   16611   16612   16616   16616   16616
   16614   16615   16617   16618   16619   16620   16621   16622   16623   16624
   16625   16615   16617   16618   16619   16617   16618   16619       0   16618
   16619   16620   16621   16622   16623   16624   16625   16626   16627   16628
   16619   16620   16621   16622   16620   16621   16622   16621   16622   16623
   16624   16625   16626   16627   16628   16629   16630   16631   16622   16623
   16624   16625   16623   16624   16625   16624   16625   16626   16627   16628
   16629   16630   16631   16632   16633   16634   16625   16626   16627   16628
   16626   16627   16628   16627   16628   16629   16630   16631   16632   16633
   16634   16635   16636   16637   16628   16629   16630   16631   16629   16630
   16631   16630   16631   16632   16633   16634   16631   16632   16633   16634
   16632   16633   16634   16635   16636   16637   16638   16639   16640   16633
   16634   16635   16636   16637   16638   16639   16640   16634   16635   16636
   16637   16635   16636   16637   16636   16637   16638   16639   16640   16637
   16638   16639   16640   16638   16639   16640   16639   16640   16640       0
   16642   16643   16644   16645   16646   16647   16648   16649   16650   16651
   16652   16653   16643   16644   16645   16646   16647   16648   16649   16650
   16653   16654   16655   16656   16644   16645   16646   16647   16650   16651
   16652   16653   16657   16658   16659   16645   16647   16648   16649   16650
   16654   16655   16656   16660   16661   16662   16646   16647   16648   16649
   16650   16653   16656   16657   16659   16647   16651   16652   16653   16657
   16658   16663   16664   16665   16649   16650   16651   16652   16653   16657
   16659   16663   16649   16650   16654   16655   16656   16660   16661   16666
   16650   16654   16655   16656   16660   16662   16666   16653   16656   16660
   16662   16652   16653   16657   16658   16659   16663   16664   16665   16667
   16668   16669   16670   16657   16658   16657   16658   16659   16663   16655
   16656   16660   16661   16662   16666   16671   16672   16673   16660   16661
   16660   16661   16662   16666   16671   16672   16673   16658   16659   16663
   16664   16665   16663   16664   16665   16667   16668   16669   16670   16674
   16675   16676   16663   16661   16662   16666   16671   16672   16673   16677
   16678   16679   16666   16666       0   16665   16667   16668   16669   16670
   16674   16675   16680   16667   16668   16669   16670   16674   16676   16680
   16671   16672   16673   16677   16678   16679   16681   16682   16683   16668
   16669   16674   16675   16676   16680   16674   16675   16670   16674   16675
   16676   16680   16674   16676   16672   16673   16677   16678   16679   16681
   16682   16683   16684   16685   16686   16673   16677   16678   16679   16677
   16678   16679   16675   16676   16680   16680   16680   16678   16679   16681
   16682   16683   16684   16685   16686   16687   16688   16689   16679   16681
   16682   16683   16681   16682   16683       0   16682   16683   16684   16685
   16686   16687   16688   16689   16690   16691   16692   16683   16684   16685
   16686   16684   16685   16686   16685   16686   16687   16688   16689   16690
   16691   16692   16693   16694   16695   16686   16687   16688   16689   16687
   16688   16689   16688   16689   16690   16691   16692   16693   16694   16695
   16696   16697   16698   16689   16690   16691   16692   16690   16691   16692
   16691   16692   16693   16694   16695   16696   16697   16698   16699   16700
   16701   16692   16693   16694   16695   16693   16694   16695   16694   16695
   16696   16697   16698   16695   16696   16697   16698   16696   16697   16698
   16699   16700   16701   16702   16703   16704   16697   16698   16699   16700
   16701   16702   16703   16704   16698   16699   16700   16701   16699   16700
   16701   16700   16701   16702   16703   16704   16701   16702   16703   16704
   16702   16703   16704   16703   16704   16704       0   16706   16707   16708
   16709   16710   16711   16712   16713   16714   16715   16716   16717   16707
   16708   16709   16710   16711   16712   16713   16714   16717   16718   16719
   16720   16708   16709   16710   16711   16714   16715   16716   16717   16721
   16722   16723   16709   16711   16712   16713   16714   16718   16719   16720
   16724   16725   16726   16710   16711   16712   16713   16714   16717   16720
   16721   16723   16711   16715   16716   16717   16721   16722   16727   16728
   16729   16713   16714   16715   16716   16717   16721   16723   16727   16713
   16714   16718   16719   16720   16724   16725   16730   16714   16718   16719
   16720   16724   16726   16730   16717   16720   16724   16726   16716   16717
   16721   16722   16723   16727   16728   16729   16731   16732   16733   16734
   16721   16722   16721   16722   16723   16727   16719   16720   16724   16725
   16726   16730   16735   16736   16737   16724   16725   16724   16725   16726
   16730   16735   16736   16737   16722   16723   16727   16728   16729   16727
   16728   16729   16731   16732   16733   16734   16738   16739   16740   16727
   16725   16726   16730   16735   16736   16737   16741   16742   16743   16730
   16730       0   16729   16731   16732   16733   16734   16738   16739   16744
   16731   16732   16733   16734   16738   16740   16744   16735   16736   16737
   16741   16742   16743   16745   16746   16747   16732   16733   16738   16739
   16740   16744   16738   16739   16734   16738   16739   16740   16744   16738
   16740   16736   16737   16741   16742   16743   16745   16746   16747   16748
   16749   16750   16737   16741   16742   16743   16741   16742   16743   16739
   16740   16744   16744   16744   16742   16743   16745   16746   16747   16748
   16749   16750   16751   16752   16753   16743   16745   16746   16747   16745
   16746   16747       0   16746   16747   16748   16749   16750   16751   16752
   16753   16754   16755   16756   16747   16748   16749   16750   16748   16749
   16750   16749   16750   16751   16752   16753   16754   16755   16756   16757
   16758   16759   16750   16751   16752   16753   16751   16752   16753   16752
   16753   16754   16755   16756   16757   16758   16759   16760   16761   16762
   16753   16754   16755   16756   16754   16755   16756   16755   16756   16757
   16758   16759   16760   16761   16762   16763   16764   16765   16756   16757
   16758   16759   16757   16758   16759   16758   16759   16760   16761   16762
   16759   16760   16761   16762   16760   16761   16762   16763   16764   16765
   16766   16767   16768   16761   16762   16763   16764   16765   16766   16767
   16768   16762   16763   16764   16765   16763   16764   16765   16764   16765
   16766   16767   16768   16765   16766   16767   16768   16766   16767   16768
   16767   16768   16768       0   16770   16771   16772   16773   16774   16775
   16776   16777   16778   16779   16780   16781   16771   16772   16773   16774
   16775   16776   16777   16778   16781   16782   16783   16784   16772   16773
   16774   16775   16778   16779   16780   16781   16785   16786   16787   16773
   16775   16776   16777   16778   16782   16783   16784   16788   16789   16790
   16774   16775   16776   16777   16778   16781   16784   16785   16787   16775
   16779   16780   16781   16785   16786   16791   16792   16793   16777   16778
   16779   16780   16781   16785   16787   16791   16777   16778   16782   16783
   16784   16788   16789   16794   16778   16782   16783   16784   16788   16790
   16794   16781   16784   16788   16790   16780   16781   16785   16786   16787
   16791   16792   16793   16795   16796   16797   16798   16785   16786   16785
   16786   16787   16791   16783   16784   16788   16789   16790   16794   16799
   16800   16801   16788   16789   16788   16789   16790   16794   16799   16800
   16801   16786   16787   16791   16792   16793   16791   16792   16793   16795
   16796   16797   16798   16802   16803   16804   16791   16789   16790   16794
   16799   16800   16801   16805   16806   16807   16794   16794       0   16793
   16795   16796   16797   16798   16802   16803   16808   16795   16796   16797
   16798   16802   16804   16808   16799   16800   16801   16805   16806   16807
   16809   16810   16811   16796   16797   16802   16803   16804   16808   16802
   16803   16798   16802   16803   16804   16808   16802   16804   16800   16801
   16805   16806   16807   16809   16810   16811   16812   16813   16814   16801
   16805   16806   16807   16805   16806   16807   16803   16804   16808   16808
   16808   16806   16807   16809   16810   16811   16812   16813   16814   16815
   16816   16817   16807   16809   16810   16811   16809   16810   16811       0
   16810   16811   16812   16813   16814   16815   16816   16817   16818   16819
   16820   16811   16812   16813   16814   16812   16813   16814   16813   16814
   16815   16816   16817   16818   16819   16820   16821   16822   16823   16814
   16815   16816   16817   16815   16816   16817   16816   16817   16818   16819
   16820   16821   16822   16823   16824   16825   16826   16817   16818   16819
   16820   16818   16819   16820   16819   16820   16821   16822   16823   16824
   16825   16826   16827   16828   16829   16820   16821   16822   16823   16821
   16822   16823   16822   16823   16824   16825   16826   16823   16824   16825
   16826   16824   16825   16826   16827   16828   16829   16830   16831   16832
   16825   16826   16827   16828   16829   16830   16831   16832   16826   16827
   16828   16829   16827   16828   16829   16828   16829   16830   16831   16832
   16829   16830   16831   16832   16830   16831   16832   16831   16832   16832
       0   16834   16835   16836   16837   16838   16839   16840   16841   16842
   16843   16844   16845   16835   16836   16837   16838   16839   16840   16841
   16842   16845   16846   16847   16848   16836   16837   16838   16839   16842
   16843   16844   16845   16849   16850   16851   16837   16839   16840   16841
   16842   16846   16847   16848   16852   16853   16854   16838   16839   16840
   16841   16842   16845   16848   16849   16851   16839   16843   16844   16845
   16849   16850   16855   16856   16857   16841   16842   16843   16844   16845
   16849   16851   16855   16841   16842   16846   16847   16848   16852   16853
   16858   16842   16846   16847   16848   16852   16854   16858   16845   16848
   16852   16854   16844   16845   16849   16850   16851   16855   16856   16857
   16859   16860   16861   16862   16849   16850   16849   16850   16851   16855
   16847   16848   16852   16853   16854   16858   16863   16864   16865   16852
   16853   16852   16853   16854   16858   16863   16864   16865   16850   16851
   16855   16856   16857   16855   16856   16857   16859   16860   16861   16862
   16866   16867   16868   16855   16853   16854   16858   16863   16864   16865
   16869   16870   16871   16858   16858       0   16857   16859   16860   16861
   16862   16866   16867   16872   16859   16860   16861   16862   16866   16868
   16872   16863   16864   16865   16869   16870   16871   16873   16874   16875
   16860   16861   16866   16867   16868   16872   16866   16867   16862   16866
   16867   16868   16872   16866   16868   16864   16865   16869   16870   16871
   16873   16874   16875   16876   16877   16878   16865   16869   16870   16871
   16869   16870   16871   16867   16868   16872   16872   16872   16870   16871
   16873   16874   16875   16876   16877   16878   16879   16880   16881   16871
   16873   16874   16875   16873   16874   16875       0   16874   16875   16876
   16877   16878   16879   16880   16881   16882   16883   16884   16875   16876
   16877   16878   16876   16877   16878   16877   16878   16879   16880   16881
   16882   16883   16884   16885   16886   16887   16878   16879   16880   16881
   16879   16880   16881   16880   16881   16882   16883   16884   16885   16886
   16887   16888   16889   16890   16881   16882   16883   16884   16882   16883
   16884   16883   16884   16885   16886   16887   16888   16889   16890   16891
   16892   16893   16884   16885   16886   16887   16885   16886   16887   16886
   16887   16888   16889   16890   16887   16888   16889   16890   16888   16889
   16890   16891   16892   16893   16894   16895   16896   16889   16890   16891
   16892   16893   16894   16895   16896   16890   16891   16892   16893   16891
   16892   16893   16892   16893   16894   16895   16896   16893   16894   16895
   16896   16894   16895   16896   16895   16896   16896       0   16898   16899
   16900   16901   16902   16903   16904   16905   16906   16907   16908   16909
   16899   16900   16901   16902   16903   16904   16905   16906   16909   16910
   16911   16912   16900   16901   16902   16903   16906   16907   16908   16909
   16913   16914   16915   16901   16903   16904   16905   16906   16910   16911
   16912   16916   16917   16918   16902   16903   16904   16905   16906   16909
   16912   16913   16915   16903   16907   16908   16909   16913   16914   16919
   16920   16921   16905   16906   16907   16908   16909   16913   16915   16919
   16905   16906   16910   16911   16912   16916   16917   16922   16906   16910
   16911   16912   16916   16918   16922   16909   16912   16916   16918   16908
   16909   16913   16914   16915   16919   16920   16921   16923   16924   16925
   16926   16913   16914   16913   16914   16915   16919   16911   16912   16916
   16917   16918   16922   16927   16928   16929   16916   16917   16916   16917
   16918   16922   16927   16928   16929   16914   16915   16919   16920   16921
   16919   16920   16921   16923   16924   16925   16926   16930   16931   16932
   16919   16917   16918   16922   16927   16928   16929   16933   16934   16935
   16922   16922       0   16921   16923   16924   16925   16926   16930   16931
   16936   16923   16924   16925   16926   16930   16932   16936   16927   16928
   16929   16933   16934   16935   16937   16938   16939   16924   16925   16930
   16931   16932   16936   16930   16931   16926   16930   16931   16932   16936
   16930   16932   16928   16929   16933   16934   16935   16937   16938   16939
   16940   16941   16942   16929   16933   16934   16935   16933   16934   16935
   16931   16932   16936   16936   16936   16934   16935   16937   16938   16939
   16940   16941   16942   16943   16944   16945   16935   16937   16938   16939
   16937   16938   16939       0   16938   16939   16940   16941   16942   16943
   16944   16945   16946   16947   16948   16939   16940   16941   16942   16940
   16941   16942   16941   16942   16943   16944   16945   16946   16947   16948
   16949   16950   16951   16942   16943   16944   16945   16943   16944   16945
   16944   16945   16946   16947   16948   16949   16950   16951   16952   16953
   16954   16945   16946   16947   16948   16946   16947   16948   16947   16948
   16949   16950   16951   16952   16953   16954   16955   16956   16957   16948
   16949   16950   16951   16949   16950   16951   16950   16951   16952   16953
   16954   16951   16952   16953   16954   16952   16953   16954   16955   16956
   16957   16958   16959   16960   16953   16954   16955   16956   16957   16958
   16959   16960   16954   16955   16956   16957   16955   16956   16957   16956
   16957   16958   16959   16960   16957   16958   16959   16960   16958   16959
   16960   16959   16960   16960       0   16962   16963   16964   16965   16966
   16967   16968   16969   16970   16971   16972   16973   16963   16964   16965
   16966   16967   16968   16969   16970   16973   16974   16975   16976   16964
   16965   16966   16967   16970   16971   16972   16973   16977   16978   16979
   16965   16967   16968   16969   16970   16974   16975   16976   16980   16981
   16982   16966   16967   16968   16969   16970   16973   16976   16977   16979
   16967   16971   16972   16973   16977   16978   16983   16984   16985   16969
   16970   16971   16972   16973   16977   16979   16983   16969   16970   16974
   16975   16976   16980   16981   16986   16970   16974   16975   16976   16980
   16982   16986   16973   16976   16980   16982   16972   16973   16977   16978
   16979   16983   16984   16985   16987   16988   16989   16990   16977   16978
   16977   16978   16979   16983   16975   16976   16980   16981   16982   16986
   16991   16992   16993   16980   16981   16980   16981   16982   16986   16991
   16992   16993   16978   16979   16983   16984   16985   16983   16984   16985
   16987   16988   16989   16990   16994   16995   16996   16983   16981   16982
   16986   16991   16992   16993   16997   16998   16999   16986   16986       0
   16985   16987   16988   16989   16990   16994   16995   17000   16987   16988
   16989   16990   16994   16996   17000   16991   16992   16993   16997   16998
   16999   17001   17002   17003   16988   16989   16994   16995   16996   17000
   16994   16995   16990   16994   16995   16996   17000   16994   16996   16992
   16993   16997   16998   16999   17001   17002   17003   17004   17005   17006
   16993   16997   16998   16999   16997   16998   16999   16995   16996   17000
   17000   17000   16998   16999   17001   17002   17003   17004   17005   17006
   17007   17008   17009   16999   17001   17002   17003   17001   17002   17003
       0   17002   17003   17004   17005   17006   17007   17008   17009   17010
   17011   17012   17003   17004   17005   17006   17004   17005   17006   17005
   17006   17007   17008   17009   17010   17011   17012   17013   17014   17015
   17006   17007   17008   17009   17007   17008   17009   17008   17009   17010
   17011   17012   17013   17014   17015   17016   17017   17018   17009   17010
   17011   17012   17010   17011   17012   17011   17012   17013   17014   17015
   17016   17017   17018   17019   17020   17021   17012   17013   17014   17015
   17013   17014   17015   17014   17015   17016   17017   17018   17015   17016
   17017   17018   17016   17017   17018   17019   17020   17021   17022   17023
   17024   17017   17018   17019   17020   17021   17022   17023   17024   17018
   17019   17020   17021   17019   17020   17021   17020   17021   17022   17023
   17024   17021   17022   17023   17024   17022   17023   17024   17023   17024
   17024       0   17026   17027   17028   17029   17030   17031   17032   17033
   17034   17035   17036   17037   17027   17028   17029   17030   17031   17032
   17033   17034   17037   17038   17039   17040   17028   17029   17030   17031
   17034   17035   17036   17037   17041   17042   17043   17029   17031   17032
   17033   17034   17038   17039   17040   17044   17045   17046   17030   17031
   17032   17033   17034   17037   17040   17041   17043   17031   17035   17036
   17037   17041   17042   17047   17048   17049   17033   17034   17035   17036
   17037   17041   17043   17047   17033   17034   17038   17039   17040   17044
   17045   17050   17034   17038   17039   17040   17044   17046   17050   17037
   17040   17044   17046   17036   17037   17041   17042   17043   17047   17048
   17049   17051   17052   17053   17054   17041   17042   17041   17042   17043
   17047   17039   17040   17044   17045   17046   17050   17055   17056   17057
   17044   17045   17044   17045   17046   17050   17055   17056   17057   17042
   17043   17047   17048   17049   17047   17048   17049   17051   17052   17053
   17054   17058   17059   17060   17047   17045   17046   17050   17055   17056
   17057   17061   17062   17063   17050   17050       0   17049   17051   17052
   17053   17054   17058   17059   17064   17051   17052   17053   17054   17058
   17060   17064   17055   17056   17057   17061   17062   17063   17065   17066
   17067   17052   17053   17058   17059   17060   17064   17058   17059   17054
   17058   17059   17060   17064   17058   17060   17056   17057   17061   17062
   17063   17065   17066   17067   17068   17069   17070   17057   17061   17062
   17063   17061   17062   17063   17059   17060   17064   17064   17064   17062
   17063   17065   17066   17067   17068   17069   17070   17071   17072   17073
   17063   17065   17066   17067   17065   17066   17067       0   17066   17067
   17068   17069   17070   17071   17072   17073   17074   17075   17076   17067
   17068   17069   17070   17068   17069   17070   17069   17070   17071   17072
   17073   17074   17075   17076   17077   17078   17079   17070   17071   17072
   17073   17071   17072   17073   17072   17073   17074   17075   17076   17077
   17078   17079   17080   17081   17082   17073   17074   17075   17076   17074
   17075   17076   17075   17076   17077   17078   17079   17080   17081   17082
   17083   17084   17085   17076   17077   17078   17079   17077   17078   17079
   17078   17079   17080   17081   17082   17079   17080   17081   17082   17080
   17081   17082   17083   17084   17085   17086   17087   17088   17081   17082
   17083   17084   17085   17086   17087   17088   17082   17083   17084   17085
   17083   17084   17085   17084   17085   17086   17087   17088   17085   17086
   17087   17088   17086   17087   17088   17087   17088   17088       0   17090
   17091   17092   17093   17094   17095   17096   17097   17098   17099   17100
   17101   17091   17092   17093   17094   17095   17096   17097   17098   17101
   17102   17103   17104   17092   17093   17094   17095   17098   17099   17100
   17101   17105   17106   17107   17093   17095   17096   17097   17098   17102
   17103   17104   17108   17109   17110   17094   17095   17096   17097   17098
   17101   17104   17105   17107   17095   17099   17100   17101   17105   17106
   17111   17112   17113   17097   17098   17099   17100   17101   17105   17107
   17111   17097   17098   17102   17103   17104   17108   17109   17114   17098
   17102   17103   17104   17108   17110   17114   17101   17104   17108   17110
   17100   17101   17105   17106   17107   17111   17112   17113   17115   17116
   17117   17118   17105   17106   17105   17106   17107   17111   17103   17104
   17108   17109   17110   17114   17119   17120   17121   17108   17109   17108
   17109   17110   17114   17119   17120   17121   17106   17107   17111   17112
   17113   17111   17112   17113   17115   17116   17117   17118   17122   17123
   17124   17111   17109   17110   17114   17119   17120   17121   17125   17126
   17127   17114   17114       0   17113   17115   17116   17117   17118   17122
   17123   17128   17115   17116   17117   17118   17122   17124   17128   17119
   17120   17121   17125   17126   17127   17129   17130   17131   17116   17117
   17122   17123   17124   17128   17122   17123   17118   17122   17123   17124
   17128   17122   17124   17120   17121   17125   17126   17127   17129   17130
   17131   17132   17133   17134   17121   17125   17126   17127   17125   17126
   17127   17123   17124   17128   17128   17128   17126   17127   17129   17130
   17131   17132   17133   17134   17135   17136   17137   17127   17129   17130
   17131   17129   17130   17131       0   17130   17131   17132   17133   17134
   17135   17136   17137   17138   17139   17140   17131   17132   17133   17134
   17132   17133   17134   17133   17134   17135   17136   17137   17138   17139
   17140   17141   17142   17143   17134   17135   17136   17137   17135   17136
   17137   17136   17137   17138   17139   17140   17141   17142   17143   17144
   17145   17146   17137   17138   17139   17140   17138   17139   17140   17139
   17140   17141   17142   17143   17144   17145   17146   17147   17148   17149
   17140   17141   17142   17143   17141   17142   17143   17142   17143   17144
   17145   17146   17143   17144   17145   17146   17144   17145   17146   17147
   17148   17149   17150   17151   17152   17145   17146   17147   17148   17149
   17150   17151   17152   17146   17147   17148   17149   17147   17148   17149
   17148   17149   17150   17151   17152   17149   17150   17151   17152   17150
   17151   17152   17151   17152   17152       0   17154   17155   17156   17157
   17158   17159   17160   17161   17162   17163   17164   17165   17155   17156
   17157   17158   17159   17160   17161   17162   17165   17166   17167   17168
   17156   17157   17158   17159   17162   17163   17164   17165   17169   17170
   17171   17157   17159   17160   17161   17162   17166   17167   17168   17172
   17173   17174   17158   17159   17160   17161   17162   17165   17168   17169
   17171   17159   17163   17164   17165   17169   17170   17175   17176   17177
   17161   17162   17163   17164   17165   17169   17171   17175   17161   17162
   17166   17167   17168   17172   17173   17178   17162   17166   17167   17168
   17172   17174   17178   17165   17168   17172   17174   17164   17165   17169
   17170   17171   17175   17176   17177   17179   17180   17181   17182   17169
   17170   17169   17170   17171   17175   17167   17168   17172   17173   17174
   17178   17183   17184   17185   17172   17173   17172   17173   17174   17178
   17183   17184   17185   17170   17171   17175   17176   17177   17175   17176
   17177   17179   17180   17181   17182   17186   17187   17188   17175   17173
   17174   17178   17183   17184   17185   17189   17190   17191   17178   17178
       0   17177   17179   17180   17181   17182   17186   17187   17192   17179
   17180   17181   17182   17186   17188   17192   17183   17184   17185   17189
   17190   17191   17193   17194   17195   17180   17181   17186   17187   17188
   17192   17186   17187   17182   17186   17187   17188   17192   17186   17188
   17184   17185   17189   17190   17191   17193   17194   17195   17196   17197
   17198   17185   17189   17190   17191   17189   17190   17191   17187   17188
   17192   17192   17192   17190   17191   17193   17194   17195   17196   17197
   17198   17199   17200   17201   17191   17193   17194   17195   17193   17194
   17195       0   17194   17195   17196   17197   17198   17199   17200   17201
   17202   17203   17204   17195   17196   17197   17198   17196   17197   17198
   17197   17198   17199   17200   17201   17202   17203   17204   17205   17206
   17207   17198   17199   17200   17201   17199   17200   17201   17200   17201
   17202   17203   17204   17205   17206   17207   17208   17209   17210   17201
   17202   17203   17204   17202   17203   17204   17203   17204   17205   17206
   17207   17208   17209   17210   17211   17212   17213   17204   17205   17206
   17207   17205   17206   17207   17206   17207   17208   17209   17210   17207
   17208   17209   17210   17208   17209   17210   17211   17212   17213   17214
   17215   17216   17209   17210   17211   17212   17213   17214   17215   17216
   17210   17211   17212   17213   17211   17212   17213   17212   17213   17214
   17215   17216   17213   17214   17215   17216   17214   17215   17216   17215
   17216   17216       0   17218   17219   17220   17221   17222   17223   17224
   17225   17226   17227   17228   17229   17219   17220   17221   17222   17223
   17224   17225   17226   17229   17230   17231   17232   17220   17221   17222
   17223   17226   17227   17228   17229   17233   17234   17235   17221   17223
   17224   17225   17226   17230   17231   17232   17236   17237   17238   17222
   17223   17224   17225   17226   17229   17232   17233   17235   17223   17227
   17228   17229   17233   17234   17239   17240   17241   17225   17226   17227
   17228   17229   17233   17235   17239   17225   17226   17230   17231   17232
   17236   17237   17242   17226   17230   17231   17232   17236   17238   17242
   17229   17232   17236   17238   17228   17229   17233   17234   17235   17239
   17240   17241   17243   17244   17245   17246   17233   17234   17233   17234
   17235   17239   17231   17232   17236   17237   17238   17242   17247   17248
   17249   17236   17237   17236   17237   17238   17242   17247   17248   17249
   17234   17235   17239   17240   17241   17239   17240   17241   17243   17244
   17245   17246   17250   17251   17252   17239   17237   17238   17242   17247
   17248   17249   17253   17254   17255   17242   17242       0   17241   17243
   17244   17245   17246   17250   17251   17256   17243   17244   17245   17246
   17250   17252   17256   17247   17248   17249   17253   17254   17255   17257
   17258   17259   17244   17245   17250   17251   17252   17256   17250   17251
   17246   17250   17251   17252   17256   17250   17252   17248   17249   17253
   17254   17255   17257   17258   17259   17260   17261   17262   17249   17253
   17254   17255   17253   17254   17255   17251   17252   17256   17256   17256
   17254   17255   17257   17258   17259   17260   17261   17262   17263   17264
   17265   17255   17257   17258   17259   17257   17258   17259       0   17258
   17259   17260   17261   17262   17263   17264   17265   17266   17267   17268
   17259   17260   17261   17262   17260   17261   17262   17261   17262   17263
   17264   17265   17266   17267   17268   17269   17270   17271   17262   17263
   17264   17265   17263   17264   17265   17264   17265   17266   17267   17268
   17269   17270   17271   17272   17273   17274   17265   17266   17267   17268
   17266   17267   17268   17267   17268   17269   17270   17271   17272   17273
   17274   17275   17276   17277   17268   17269   17270   17271   17269   17270
   17271   17270   17271   17272   17273   17274   17271   17272   17273   17274
   17272   17273   17274   17275   17276   17277   17278   17279   17280   17273
   17274   17275   17276   17277   17278   17279   17280   17274   17275   17276
   17277   17275   17276   17277   17276   17277   17278   17279   17280   17277
   17278   17279   17280   17278   17279   17280   17279   17280   17280       0
   17282   17283   17284   17285   17286   17287   17288   17289   17290   17291
   17292   17293   17283   17284   17285   17286   17287   17288   17289   17290
   17293   17294   17295   17296   17284   17285   17286   17287   17290   17291
   17292   17293   17297   17298   17299   17285   17287   17288   17289   17290
   17294   17295   17296   17300   17301   17302   17286   17287   17288   17289
   17290   17293   17296   17297   17299   17287   17291   17292   17293   17297
   17298   17303   17304   17305   17289   17290   17291   17292   17293   17297
   17299   17303   17289   17290   17294   17295   17296   17300   17301   17306
   17290   17294   17295   17296   17300   17302   17306   17293   17296   17300
   17302   17292   17293   17297   17298   17299   17303   17304   17305   17307
   17308   17309   17310   17297   17298   17297   17298   17299   17303   17295
   17296   17300   17301   17302   17306   17311   17312   17313   17300   17301
   17300   17301   17302   17306   17311   17312   17313   17298   17299   17303
   17304   17305   17303   17304   17305   17307   17308   17309   17310   17314
   17315   17316   17303   17301   17302   17306   17311   17312   17313   17317
   17318   17319   17306   17306       0   17305   17307   17308   17309   17310
   17314   17315   17320   17307   17308   17309   17310   17314   17316   17320
   17311   17312   17313   17317   17318   17319   17321   17322   17323   17308
   17309   17314   17315   17316   17320   17314   17315   17310   17314   17315
   17316   17320   17314   17316   17312   17313   17317   17318   17319   17321
   17322   17323   17324   17325   17326   17313   17317   17318   17319   17317
   17318   17319   17315   17316   17320   17320   17320   17318   17319   17321
   17322   17323   17324   17325   17326   17327   17328   17329   17319   17321
   17322   17323   17321   17322   17323       0   17322   17323   17324   17325
   17326   17327   17328   17329   17330   17331   17332   17323   17324   17325
   17326   17324   17325   17326   17325   17326   17327   17328   17329   17330
   17331   17332   17333   17334   17335   17326   17327   17328   17329   17327
   17328   17329   17328   17329   17330   17331   17332   17333   17334   17335
   17336   17337   17338   17329   17330   17331   17332   17330   17331   17332
   17331   17332   17333   17334   17335   17336   17337   17338   17339   17340
   17341   17332   17333   17334   17335   17333   17334   17335   17334   17335
   17336   17337   17338   17335   17336   17337   17338   17336   17337   17338
   17339   17340   17341   17342   17343   17344   17337   17338   17339   17340
   17341   17342   17343   17344   17338   17339   17340   17341   17339   17340
   17341   17340   17341   17342   17343   17344   17341   17342   17343   17344
   17342   17343   17344   17343   17344   17344       0   17346   17347   17348
   17349   17350   17351   17352   17353   17354   17355   17356   17357   17347
   17348   17349   17350   17351   17352   17353   17354   17357   17358   17359
   17360   17348   17349   17350   17351   17354   17355   17356   17357   17361
   17362   17363   17349   17351   17352   17353   17354   17358   17359   17360
   17364   17365   17366   17350   17351   17352   17353   17354   17357   17360
   17361   17363   17351   17355   17356   17357   17361   17362   17367   17368
   17369   17353   17354   17355   17356   17357   17361   17363   17367   17353
   17354   17358   17359   17360   17364   17365   17370   17354   17358   17359
   17360   17364   17366   17370   17357   17360   17364   17366   17356   17357
   17361   17362   17363   17367   17368   17369   17371   17372   17373   17374
   17361   17362   17361   17362   17363   17367   17359   17360   17364   17365
   17366   17370   17375   17376   17377   17364   17365   17364   17365   17366
   17370   17375   17376   17377   17362   17363   17367   17368   17369   17367
   17368   17369   17371   17372   17373   17374   17378   17379   17380   17367
   17365   17366   17370   17375   17376   17377   17381   17382   17383   17370
   17370       0   17369   17371   17372   17373   17374   17378   17379   17384
   17371   17372   17373   17374   17378   17380   17384   17375   17376   17377
   17381   17382   17383   17385   17386   17387   17372   17373   17378   17379
   17380   17384   17378   17379   17374   17378   17379   17380   17384   17378
   17380   17376   17377   17381   17382   17383   17385   17386   17387   17388
   17389   17390   17377   17381   17382   17383   17381   17382   17383   17379
   17380   17384   17384   17384   17382   17383   17385   17386   17387   17388
   17389   17390   17391   17392   17393   17383   17385   17386   17387   17385
   17386   17387       0   17386   17387   17388   17389   17390   17391   17392
   17393   17394   17395   17396   17387   17388   17389   17390   17388   17389
   17390   17389   17390   17391   17392   17393   17394   17395   17396   17397
   17398   17399   17390   17391   17392   17393   17391   17392   17393   17392
   17393   17394   17395   17396   17397   17398   17399   17400   17401   17402
   17393   17394   17395   17396   17394   17395   17396   17395   17396   17397
   17398   17399   17400   17401   17402   17403   17404   17405   17396   17397
   17398   17399   17397   17398   17399   17398   17399   17400   17401   17402
   17399   17400   17401   17402   17400   17401   17402   17403   17404   17405
   17406   17407   17408   17401   17402   17403   17404   17405   17406   17407
   17408   17402   17403   17404   17405   17403   17404   17405   17404   17405
   17406   17407   17408   17405   17406   17407   17408   17406   17407   17408
   17407   17408   17408       0   17410   17411   17412   17413   17414   17415
   17416   17417   17418   17419   17420   17421   17411   17412   17413   17414
   17415   17416   17417   17418   17421   17422   17423   17424   17412   17413
   17414   17415   17418   17419   17420   17421   17425   17426   17427   17413
   17415   17416   17417   17418   17422   17423   17424   17428   17429   17430
   17414   17415   17416   17417   17418   17421   17424   17425   17427   17415
   17419   17420   17421   17425   17426   17431   17432   17433   17417   17418
   17419   17420   17421   17425   17427   17431   17417   17418   17422   17423
   17424   17428   17429   17434   17418   17422   17423   17424   17428   17430
   17434   17421   17424   17428   17430   17420   17421   17425   17426   17427
   17431   17432   17433   17435   17436   17437   17438   17425   17426   17425
   17426   17427   17431   17423   17424   17428   17429   17430   17434   17439
   17440   17441   17428   17429   17428   17429   17430   17434   17439   17440
   17441   17426   17427   17431   17432   17433   17431   17432   17433   17435
   17436   17437   17438   17442   17443   17444   17431   17429   17430   17434
   17439   17440   17441   17445   17446   17447   17434   17434       0   17433
   17435   17436   17437   17438   17442   17443   17448   17435   17436   17437
   17438   17442   17444   17448   17439   17440   17441   17445   17446   17447
   17449   17450   17451   17436   17437   17442   17443   17444   17448   17442
   17443   17438   17442   17443   17444   17448   17442   17444   17440   17441
   17445   17446   17447   17449   17450   17451   17452   17453   17454   17441
   17445   17446   17447   17445   17446   17447   17443   17444   17448   17448
   17448   17446   17447   17449   17450   17451   17452   17453   17454   17455
   17456   17457   17447   17449   17450   17451   17449   17450   17451       0
   17450   17451   17452   17453   17454   17455   17456   17457   17458   17459
   17460   17451   17452   17453   17454   17452   17453   17454   17453   17454
   17455   17456   17457   17458   17459   17460   17461   17462   17463   17454
   17455   17456   17457   17455   17456   17457   17456   17457   17458   17459
   17460   17461   17462   17463   17464   17465   17466   17457   17458   17459
   17460   17458   17459   17460   17459   17460   17461   17462   17463   17464
   17465   17466   17467   17468   17469   17460   17461   17462   17463   17461
   17462   17463   17462   17463   17464   17465   17466   17463   17464   17465
   17466   17464   17465   17466   17467   17468   17469   17470   17471   17472
   17465   17466   17467   17468   17469   17470   17471   17472   17466   17467
   17468   17469   17467   17468   17469   17468   17469   17470   17471   17472
   17469   17470   17471   17472   17470   17471   17472   17471   17472   17472
       0   17474   17475   17476   17477   17478   17479   17480   17481   17482
   17483   17484   17485   17475   17476   17477   17478   17479   17480   17481
   17482   17485   17486   17487   17488   17476   17477   17478   17479   17482
   17483   17484   17485   17489   17490   17491   17477   17479   17480   17481
   17482   17486   17487   17488   17492   17493   17494   17478   17479   17480
   17481   17482   17485   17488   17489   17491   17479   17483   17484   17485
   17489   17490   17495   17496   17497   17481   17482   17483   17484   17485
   17489   17491   17495   17481   17482   17486   17487   17488   17492   17493
   17498   17482   17486   17487   17488   17492   17494   17498   17485   17488
   17492   17494   17484   17485   17489   17490   17491   17495   17496   17497
   17499   17500   17501   17502   17489   17490   17489   17490   17491   17495
   17487   17488   17492   17493   17494   17498   17503   17504   17505   17492
   17493   17492   17493   17494   17498   17503   17504   17505   17490   17491
   17495   17496   17497   17495   17496   17497   17499   17500   17501   17502
   17506   17507   17508   17495   17493   17494   17498   17503   17504   17505
   17509   17510   17511   17498   17498       0   17497   17499   17500   17501
   17502   17506   17507   17512   17499   17500   17501   17502   17506   17508
   17512   17503   17504   17505   17509   17510   17511   17513   17514   17515
   17500   17501   17506   17507   17508   17512   17506   17507   17502   17506
   17507   17508   17512   17506   17508   17504   17505   17509   17510   17511
   17513   17514   17515   17516   17517   17518   17505   17509   17510   17511
   17509   17510   17511   17507   17508   17512   17512   17512   17510   17511
   17513   17514   17515   17516   17517   17518   17519   17520   17521   17511
   17513   17514   17515   17513   17514   17515       0   17514   17515   17516
   17517   17518   17519   17520   17521   17522   17523   17524   17515   17516
   17517   17518   17516   17517   17518   17517   17518   17519   17520   17521
   17522   17523   17524   17525   17526   17527   17518   17519   17520   17521
   17519   17520   17521   17520   17521   17522   17523   17524   17525   17526
   17527   17528   17529   17530   17521   17522   17523   17524   17522   17523
   17524   17523   17524   17525   17526   17527   17528   17529   17530   17531
   17532   17533   17524   17525   17526   17527   17525   17526   17527   17526
   17527   17528   17529   17530   17527   17528   17529   17530   17528   17529
   17530   17531   17532   17533   17534   17535   17536   17529   17530   17531
   17532   17533   17534   17535   17536   17530   17531   17532   17533   17531
   17532   17533   17532   17533   17534   17535   17536   17533   17534   17535
   17536   17534   17535   17536   17535   17536   17536       0   17538   17539
   17540   17541   17542   17543   17544   17545   17546   17547   17548   17549
   17539   17540   17541   17542   17543   17544   17545   17546   17549   17550
   17551   17552   17540   17541   17542   17543   17546   17547   17548   17549
   17553   17554   17555   17541   17543   17544   17545   17546   17550   17551
   17552   17556   17557   17558   17542   17543   17544   17545   17546   17549
   17552   17553   17555   17543   17547   17548   17549   17553   17554   17559
   17560   17561   17545   17546   17547   17548   17549   17553   17555   17559
   17545   17546   17550   17551   17552   17556   17557   17562   17546   17550
   17551   17552   17556   17558   17562   17549   17552   17556   17558   17548
   17549   17553   17554   17555   17559   17560   17561   17563   17564   17565
   17566   17553   17554   17553   17554   17555   17559   17551   17552   17556
   17557   17558   17562   17567   17568   17569   17556   17557   17556   17557
   17558   17562   17567   17568   17569   17554   17555   17559   17560   17561
   17559   17560   17561   17563   17564   17565   17566   17570   17571   17572
   17559   17557   17558   17562   17567   17568   17569   17573   17574   17575
   17562   17562       0   17561   17563   17564   17565   17566   17570   17571
   17576   17563   17564   17565   17566   17570   17572   17576   17567   17568
   17569   17573   17574   17575   17577   17578   17579   17564   17565   17570
   17571   17572   17576   17570   17571   17566   17570   17571   17572   17576
   17570   17572   17568   17569   17573   17574   17575   17577   17578   17579
   17580   17581   17582   17569   17573   17574   17575   17573   17574   17575
   17571   17572   17576   17576   17576   17574   17575   17577   17578   17579
   17580   17581   17582   17583   17584   17585   17575   17577   17578   17579
   17577   17578   17579       0   17578   17579   17580   17581   17582   17583
   17584   17585   17586   17587   17588   17579   17580   17581   17582   17580
   17581   17582   17581   17582   17583   17584   17585   17586   17587   17588
   17589   17590   17591   17582   17583   17584   17585   17583   17584   17585
   17584   17585   17586   17587   17588   17589   17590   17591   17592   17593
   17594   17585   17586   17587   17588   17586   17587   17588   17587   17588
   17589   17590   17591   17592   17593   17594   17595   17596   17597   17588
   17589   17590   17591   17589   17590   17591   17590   17591   17592   17593
   17594   17591   17592   17593   17594   17592   17593   17594   17595   17596
   17597   17598   17599   17600   17593   17594   17595   17596   17597   17598
   17599   17600   17594   17595   17596   17597   17595   17596   17597   17596
   17597   17598   17599   17600   17597   17598   17599   17600   17598   17599
   17600   17599   17600   17600       0   17602   17603   17604   17605   17606
   17607   17608   17609   17610   17611   17612   17613   17603   17604   17605
   17606   17607   17608   17609   17610   17613   17614   17615   17616   17604
   17605   17606   17607   17610   17611   17612   17613   17617   17618   17619
   17605   17607   17608   17609   17610   17614   17615   17616   17620   17621
   17622   17606   17607   17608   17609   17610   17613   17616   17617   17619
   17607   17611   17612   17613   17617   17618   17623   17624   17625   17609
   17610   17611   17612   17613   17617   17619   17623   17609   17610   17614
   17615   17616   17620   17621   17626   17610   17614   17615   17616   17620
   17622   17626   17613   17616   17620   17622   17612   17613   17617   17618
   17619   17623   17624   17625   17627   17628   17629   17630   17617   17618
   17617   17618   17619   17623   17615   17616   17620   17621   17622   17626
   17631   17632   17633   17620   17621   17620   17621   17622   17626   17631
   17632   17633   17618   17619   17623   17624   17625   17623   17624   17625
   17627   17628   17629   17630   17634   17635   17636   17623   17621   17622
   17626   17631   17632   17633   17637   17638   17639   17626   17626       0
   17625   17627   17628   17629   17630   17634   17635   17640   17627   17628
   17629   17630   17634   17636   17640   17631   17632   17633   17637   17638
   17639   17641   17642   17643   17628   17629   17634   17635   17636   17640
   17634   17635   17630   17634   17635   17636   17640   17634   17636   17632
   17633   17637   17638   17639   17641   17642   17643   17644   17645   17646
   17633   17637   17638   17639   17637   17638   17639   17635   17636   17640
   17640   17640   17638   17639   17641   17642   17643   17644   17645   17646
   17647   17648   17649   17639   17641   17642   17643   17641   17642   17643
       0   17642   17643   17644   17645   17646   17647   17648   17649   17650
   17651   17652   17643   17644   17645   17646   17644   17645   17646   17645
   17646   17647   17648   17649   17650   17651   17652   17653   17654   17655
   17646   17647   17648   17649   17647   17648   17649   17648   17649   17650
   17651   17652   17653   17654   17655   17656   17657   17658   17649   17650
   17651   17652   17650   17651   17652   17651   17652   17653   17654   17655
   17656   17657   17658   17659   17660   17661   17652   17653   17654   17655
   17653   17654   17655   17654   17655   17656   17657   17658   17655   17656
   17657   17658   17656   17657   17658   17659   17660   17661   17662   17663
   17664   17657   17658   17659   17660   17661   17662   17663   17664   17658
   17659   17660   17661   17659   17660   17661   17660   17661   17662   17663
   17664   17661   17662   17663   17664   17662   17663   17664   17663   17664
   17664       0   17666   17667   17668   17669   17670   17671   17672   17673
   17674   17675   17676   17677   17667   17668   17669   17670   17671   17672
   17673   17674   17677   17678   17679   17680   17668   17669   17670   17671
   17674   17675   17676   17677   17681   17682   17683   17669   17671   17672
   17673   17674   17678   17679   17680   17684   17685   17686   17670   17671
   17672   17673   17674   17677   17680   17681   17683   17671   17675   17676
   17677   17681   17682   17687   17688   17689   17673   17674   17675   17676
   17677   17681   17683   17687   17673   17674   17678   17679   17680   17684
   17685   17690   17674   17678   17679   17680   17684   17686   17690   17677
   17680   17684   17686   17676   17677   17681   17682   17683   17687   17688
   17689   17691   17692   17693   17694   17681   17682   17681   17682   17683
   17687   17679   17680   17684   17685   17686   17690   17695   17696   17697
   17684   17685   17684   17685   17686   17690   17695   17696   17697   17682
   17683   17687   17688   17689   17687   17688   17689   17691   17692   17693
   17694   17698   17699   17700   17687   17685   17686   17690   17695   17696
   17697   17701   17702   17703   17690   17690       0   17689   17691   17692
   17693   17694   17698   17699   17704   17691   17692   17693   17694   17698
   17700   17704   17695   17696   17697   17701   17702   17703   17705   17706
   17707   17692   17693   17698   17699   17700   17704   17698   17699   17694
   17698   17699   17700   17704   17698   17700   17696   17697   17701   17702
   17703   17705   17706   17707   17708   17709   17710   17697   17701   17702
   17703   17701   17702   17703   17699   17700   17704   17704   17704   17702
   17703   17705   17706   17707   17708   17709   17710   17711   17712   17713
   17703   17705   17706   17707   17705   17706   17707       0   17706   17707
   17708   17709   17710   17711   17712   17713   17714   17715   17716   17707
   17708   17709   17710   17708   17709   17710   17709   17710   17711   17712
   17713   17714   17715   17716   17717   17718   17719   17710   17711   17712
   17713   17711   17712   17713   17712   17713   17714   17715   17716   17717
   17718   17719   17720   17721   17722   17713   17714   17715   17716   17714
   17715   17716   17715   17716   17717   17718   17719   17720   17721   17722
   17723   17724   17725   17716   17717   17718   17719   17717   17718   17719
   17718   17719   17720   17721   17722   17719   17720   17721   17722   17720
   17721   17722   17723   17724   17725   17726   17727   17728   17721   17722
   17723   17724   17725   17726   17727   17728   17722   17723   17724   17725
   17723   17724   17725   17724   17725   17726   17727   17728   17725   17726
   17727   17728   17726   17727   17728   17727   17728   17728       0   17730
   17731   17732   17733   17734   17735   17736   17737   17738   17739   17740
   17741   17731   17732   17733   17734   17735   17736   17737   17738   17741
   17742   17743   17744   17732   17733   17734   17735   17738   17739   17740
   17741   17745   17746   17747   17733   17735   17736   17737   17738   17742
   17743   17744   17748   17749   17750   17734   17735   17736   17737   17738
   17741   17744   17745   17747   17735   17739   17740   17741   17745   17746
   17751   17752   17753   17737   17738   17739   17740   17741   17745   17747
   17751   17737   17738   17742   17743   17744   17748   17749   17754   17738
   17742   17743   17744   17748   17750   17754   17741   17744   17748   17750
   17740   17741   17745   17746   17747   17751   17752   17753   17755   17756
   17757   17758   17745   17746   17745   17746   17747   17751   17743   17744
   17748   17749   17750   17754   17759   17760   17761   17748   17749   17748
   17749   17750   17754   17759   17760   17761   17746   17747   17751   17752
   17753   17751   17752   17753   17755   17756   17757   17758   17762   17763
   17764   17751   17749   17750   17754   17759   17760   17761   17765   17766
   17767   17754   17754       0   17753   17755   17756   17757   17758   17762
   17763   17768   17755   17756   17757   17758   17762   17764   17768   17759
   17760   17761   17765   17766   17767   17769   17770   17771   17756   17757
   17762   17763   17764   17768   17762   17763   17758   17762   17763   17764
   17768   17762   17764   17760   17761   17765   17766   17767   17769   17770
   17771   17772   17773   17774   17761   17765   17766   17767   17765   17766
   17767   17763   17764   17768   17768   17768   17766   17767   17769   17770
   17771   17772   17773   17774   17775   17776   17777   17767   17769   17770
   17771   17769   17770   17771       0   17770   17771   17772   17773   17774
   17775   17776   17777   17778   17779   17780   17771   17772   17773   17774
   17772   17773   17774   17773   17774   17775   17776   17777   17778   17779
   17780   17781   17782   17783   17774   17775   17776   17777   17775   17776
   17777   17776   17777   17778   17779   17780   17781   17782   17783   17784
   17785   17786   17777   17778   17779   17780   17778   17779   17780   17779
   17780   17781   17782   17783   17784   17785   17786   17787   17788   17789
   17780   17781   17782   17783   17781   17782   17783   17782   17783   17784
   17785   17786   17783   17784   17785   17786   17784   17785   17786   17787
   17788   17789   17790   17791   17792   17785   17786   17787   17788   17789
   17790   17791   17792   17786   17787   17788   17789   17787   17788   17789
   17788   17789   17790   17791   17792   17789   17790   17791   17792   17790
   17791   17792   17791   17792   17792       0   17794   17795   17796   17797
   17798   17799   17800   17801   17802   17803   17804   17805   17795   17796
   17797   17798   17799   17800   17801   17802   17805   17806   17807   17808
   17796   17797   17798   17799   17802   17803   17804   17805   17809   17810
   17811   17797   17799   17800   17801   17802   17806   17807   17808   17812
   17813   17814   17798   17799   17800   17801   17802   17805   17808   17809
   17811   17799   17803   17804   17805   17809   17810   17815   17816   17817
   17801   17802   17803   17804   17805   17809   17811   17815   17801   17802
   17806   17807   17808   17812   17813   17818   17802   17806   17807   17808
   17812   17814   17818   17805   17808   17812   17814   17804   17805   17809
   17810   17811   17815   17816   17817   17819   17820   17821   17822   17809
   17810   17809   17810   17811   17815   17807   17808   17812   17813   17814
   17818   17823   17824   17825   17812   17813   17812   17813   17814   17818
   17823   17824   17825   17810   17811   17815   17816   17817   17815   17816
   17817   17819   17820   17821   17822   17826   17827   17828   17815   17813
   17814   17818   17823   17824   17825   17829   17830   17831   17818   17818
       0   17817   17819   17820   17821   17822   17826   17827   17832   17819
   17820   17821   17822   17826   17828   17832   17823   17824   17825   17829
   17830   17831   17833   17834   17835   17820   17821   17826   17827   17828
   17832   17826   17827   17822   17826   17827   17828   17832   17826   17828
   17824   17825   17829   17830   17831   17833   17834   17835   17836   17837
   17838   17825   17829   17830   17831   17829   17830   17831   17827   17828
   17832   17832   17832   17830   17831   17833   17834   17835   17836   17837
   17838   17839   17840   17841   17831   17833   17834   17835   17833   17834
   17835       0   17834   17835   17836   17837   17838   17839   17840   17841
   17842   17843   17844   17835   17836   17837   17838   17836   17837   17838
   17837   17838   17839   17840   17841   17842   17843   17844   17845   17846
   17847   17838   17839   17840   17841   17839   17840   17841   17840   17841
   17842   17843   17844   17845   17846   17847   17848   17849   17850   17841
   17842   17843   17844   17842   17843   17844   17843   17844   17845   17846
   17847   17848   17849   17850   17851   17852   17853   17844   17845   17846
   17847   17845   17846   17847   17846   17847   17848   17849   17850   17847
   17848   17849   17850   17848   17849   17850   17851   17852   17853   17854
   17855   17856   17849   17850   17851   17852   17853   17854   17855   17856
   17850   17851   17852   17853   17851   17852   17853   17852   17853   17854
   17855   17856   17853   17854   17855   17856   17854   17855   17856   17855
   17856   17856       0   17858   17859   17860   17861   17862   17863   17864
   17865   17866   17867   17868   17869   17859   17860   17861   17862   17863
   17864   17865   17866   17869   17870   17871   17872   17860   17861   17862
   17863   17866   17867   17868   17869   17873   17874   17875   17861   17863
   17864   17865   17866   17870   17871   17872   17876   17877   17878   17862
   17863   17864   17865   17866   17869   17872   17873   17875   17863   17867
   17868   17869   17873   17874   17879   17880   17881   17865   17866   17867
   17868   17869   17873   17875   17879   17865   17866   17870   17871   17872
   17876   17877   17882   17866   17870   17871   17872   17876   17878   17882
   17869   17872   17876   17878   17868   17869   17873   17874   17875   17879
   17880   17881   17883   17884   17885   17886   17873   17874   17873   17874
   17875   17879   17871   17872   17876   17877   17878   17882   17887   17888
   17889   17876   17877   17876   17877   17878   17882   17887   17888   17889
   17874   17875   17879   17880   17881   17879   17880   17881   17883   17884
   17885   17886   17890   17891   17892   17879   17877   17878   17882   17887
   17888   17889   17893   17894   17895   17882   17882       0   17881   17883
   17884   17885   17886   17890   17891   17896   17883   17884   17885   17886
   17890   17892   17896   17887   17888   17889   17893   17894   17895   17897
   17898   17899   17884   17885   17890   17891   17892   17896   17890   17891
   17886   17890   17891   17892   17896   17890   17892   17888   17889   17893
   17894   17895   17897   17898   17899   17900   17901   17902   17889   17893
   17894   17895   17893   17894   17895   17891   17892   17896   17896   17896
   17894   17895   17897   17898   17899   17900   17901   17902   17903   17904
   17905   17895   17897   17898   17899   17897   17898   17899       0   17898
   17899   17900   17901   17902   17903   17904   17905   17906   17907   17908
   17899   17900   17901   17902   17900   17901   17902   17901   17902   17903
   17904   17905   17906   17907   17908   17909   17910   17911   17902   17903
   17904   17905   17903   17904   17905   17904   17905   17906   17907   17908
   17909   17910   17911   17912   17913   17914   17905   17906   17907   17908
   17906   17907   17908   17907   17908   17909   17910   17911   17912   17913
   17914   17915   17916   17917   17908   17909   17910   17911   17909   17910
   17911   17910   17911   17912   17913   17914   17911   17912   17913   17914
   17912   17913   17914   17915   17916   17917   17918   17919   17920   17913
   17914   17915   17916   17917   17918   17919   17920   17914   17915   17916
   17917   17915   17916   17917   17916   17917   17918   17919   17920   17917
   17918   17919   17920   17918   17919   17920   17919   17920   17920       0
   17922   17923   17924   17925   17926   17927   17928   17929   17930   17931
   17932   17933   17923   17924   17925   17926   17927   17928   17929   17930
   17933   17934   17935   17936   17924   17925   17926   17927   17930   17931
   17932   17933   17937   17938   17939   17925   17927   17928   17929   17930
   17934   17935   17936   17940   17941   17942   17926   17927   17928   17929
   17930   17933   17936   17937   17939   17927   17931   17932   17933   17937
   17938   17943   17944   17945   17929   17930   17931   17932   17933   17937
   17939   17943   17929   17930   17934   17935   17936   17940   17941   17946
   17930   17934   17935   17936   17940   17942   17946   17933   17936   17940
   17942   17932   17933   17937   17938   17939   17943   17944   17945   17947
   17948   17949   17950   17937   17938   17937   17938   17939   17943   17935
   17936   17940   17941   17942   17946   17951   17952   17953   17940   17941
   17940   17941   17942   17946   17951   17952   17953   17938   17939   17943
   17944   17945   17943   17944   17945   17947   17948   17949   17950   17954
   17955   17956   17943   17941   17942   17946   17951   17952   17953   17957
   17958   17959   17946   17946       0   17945   17947   17948   17949   17950
   17954   17955   17960   17947   17948   17949   17950   17954   17956   17960
   17951   17952   17953   17957   17958   17959   17961   17962   17963   17948
   17949   17954   17955   17956   17960   17954   17955   17950   17954   17955
   17956   17960   17954   17956   17952   17953   17957   17958   17959   17961
   17962   17963   17964   17965   17966   17953   17957   17958   17959   17957
   17958   17959   17955   17956   17960   17960   17960   17958   17959   17961
   17962   17963   17964   17965   17966   17967   17968   17969   17959   17961
   17962   17963   17961   17962   17963       0   17962   17963   17964   17965
   17966   17967   17968   17969   17970   17971   17972   17963   17964   17965
   17966   17964   17965   17966   17965   17966   17967   17968   17969   17970
   17971   17972   17973   17974   17975   17966   17967   17968   17969   17967
   17968   17969   17968   17969   17970   17971   17972   17973   17974   17975
   17976   17977   17978   17969   17970   17971   17972   17970   17971   17972
   17971   17972   17973   17974   17975   17976   17977   17978   17979   17980
   17981   17972   17973   17974   17975   17973   17974   17975   17974   17975
   17976   17977   17978   17975   17976   17977   17978   17976   17977   17978
   17979   17980   17981   17982   17983   17984   17977   17978   17979   17980
   17981   17982   17983   17984   17978   17979   17980   17981   17979   17980
   17981   17980   17981   17982   17983   17984   17981   17982   17983   17984
   17982   17983   17984   17983   17984   17984       0   17986   17987   17988
   17989   17990   17991   17992   17993   17994   17995   17996   17997   17987
   17988   17989   17990   17991   17992   17993   17994   17997   17998   17999
   18000   17988   17989   17990   17991   17994   17995   17996   17997   18001
   18002   18003   17989   17991   17992   17993   17994   17998   17999   18000
   18004   18005   18006   17990   17991   17992   17993   17994   17997   18000
   18001   18003   17991   17995   17996   17997   18001   18002   18007   18008
   18009   17993   17994   17995   17996   17997   18001   18003   18007   17993
   17994   17998   17999   18000   18004   18005   18010   17994   17998   17999
   18000   18004   18006   18010   17997   18000   18004   18006   17996   17997
   18001   18002   18003   18007   18008   18009   18011   18012   18013   18014
   18001   18002   18001   18002   18003   18007   17999   18000   18004   18005
   18006   18010   18015   18016   18017   18004   18005   18004   18005   18006
   18010   18015   18016   18017   18002   18003   18007   18008   18009   18007
   18008   18009   18011   18012   18013   18014   18018   18019   18020   18007
   18005   18006   18010   18015   18016   18017   18021   18022   18023   18010
   18010       0   18009   18011   18012   18013   18014   18018   18019   18024
   18011   18012   18013   18014   18018   18020   18024   18015   18016   18017
   18021   18022   18023   18025   18026   18027   18012   18013   18018   18019
   18020   18024   18018   18019   18014   18018   18019   18020   18024   18018
   18020   18016   18017   18021   18022   18023   18025   18026   18027   18028
   18029   18030   18017   18021   18022   18023   18021   18022   18023   18019
   18020   18024   18024   18024   18022   18023   18025   18026   18027   18028
   18029   18030   18031   18032   18033   18023   18025   18026   18027   18025
   18026   18027       0   18026   18027   18028   18029   18030   18031   18032
   18033   18034   18035   18036   18027   18028   18029   18030   18028   18029
   18030   18029   18030   18031   18032   18033   18034   18035   18036   18037
   18038   18039   18030   18031   18032   18033   18031   18032   18033   18032
   18033   18034   18035   18036   18037   18038   18039   18040   18041   18042
   18033   18034   18035   18036   18034   18035   18036   18035   18036   18037
   18038   18039   18040   18041   18042   18043   18044   18045   18036   18037
   18038   18039   18037   18038   18039   18038   18039   18040   18041   18042
   18039   18040   18041   18042   18040   18041   18042   18043   18044   18045
   18046   18047   18048   18041   18042   18043   18044   18045   18046   18047
   18048   18042   18043   18044   18045   18043   18044   18045   18044   18045
   18046   18047   18048   18045   18046   18047   18048   18046   18047   18048
   18047   18048   18048       0   18050   18051   18052   18053   18054   18055
   18056   18057   18058   18059   18060   18061   18051   18052   18053   18054
   18055   18056   18057   18058   18061   18062   18063   18064   18052   18053
   18054   18055   18058   18059   18060   18061   18065   18066   18067   18053
   18055   18056   18057   18058   18062   18063   18064   18068   18069   18070
   18054   18055   18056   18057   18058   18061   18064   18065   18067   18055
   18059   18060   18061   18065   18066   18071   18072   18073   18057   18058
   18059   18060   18061   18065   18067   18071   18057   18058   18062   18063
   18064   18068   18069   18074   18058   18062   18063   18064   18068   18070
   18074   18061   18064   18068   18070   18060   18061   18065   18066   18067
   18071   18072   18073   18075   18076   18077   18078   18065   18066   18065
   18066   18067   18071   18063   18064   18068   18069   18070   18074   18079
   18080   18081   18068   18069   18068   18069   18070   18074   18079   18080
   18081   18066   18067   18071   18072   18073   18071   18072   18073   18075
   18076   18077   18078   18082   18083   18084   18071   18069   18070   18074
   18079   18080   18081   18085   18086   18087   18074   18074       0   18073
   18075   18076   18077   18078   18082   18083   18088   18075   18076   18077
   18078   18082   18084   18088   18079   18080   18081   18085   18086   18087
   18089   18090   18091   18076   18077   18082   18083   18084   18088   18082
   18083   18078   18082   18083   18084   18088   18082   18084   18080   18081
   18085   18086   18087   18089   18090   18091   18092   18093   18094   18081
   18085   18086   18087   18085   18086   18087   18083   18084   18088   18088
   18088   18086   18087   18089   18090   18091   18092   18093   18094   18095
   18096   18097   18087   18089   18090   18091   18089   18090   18091       0
   18090   18091   18092   18093   18094   18095   18096   18097   18098   18099
   18100   18091   18092   18093   18094   18092   18093   18094   18093   18094
   18095   18096   18097   18098   18099   18100   18101   18102   18103   18094
   18095   18096   18097   18095   18096   18097   18096   18097   18098   18099
   18100   18101   18102   18103   18104   18105   18106   18097   18098   18099
   18100   18098   18099   18100   18099   18100   18101   18102   18103   18104
   18105   18106   18107   18108   18109   18100   18101   18102   18103   18101
   18102   18103   18102   18103   18104   18105   18106   18103   18104   18105
   18106   18104   18105   18106   18107   18108   18109   18110   18111   18112
   18105   18106   18107   18108   18109   18110   18111   18112   18106   18107
   18108   18109   18107   18108   18109   18108   18109   18110   18111   18112
   18109   18110   18111   18112   18110   18111   18112   18111   18112   18112
       0   18114   18115   18116   18117   18118   18119   18120   18121   18122
   18123   18124   18125   18115   18116   18117   18118   18119   18120   18121
   18122   18125   18126   18127   18128   18116   18117   18118   18119   18122
   18123   18124   18125   18129   18130   18131   18117   18119   18120   18121
   18122   18126   18127   18128   18132   18133   18134   18118   18119   18120
   18121   18122   18125   18128   18129   18131   18119   18123   18124   18125
   18129   18130   18135   18136   18137   18121   18122   18123   18124   18125
   18129   18131   18135   18121   18122   18126   18127   18128   18132   18133
   18138   18122   18126   18127   18128   18132   18134   18138   18125   18128
   18132   18134   18124   18125   18129   18130   18131   18135   18136   18137
   18139   18140   18141   18142   18129   18130   18129   18130   18131   18135
   18127   18128   18132   18133   18134   18138   18143   18144   18145   18132
   18133   18132   18133   18134   18138   18143   18144   18145   18130   18131
   18135   18136   18137   18135   18136   18137   18139   18140   18141   18142
   18146   18147   18148   18135   18133   18134   18138   18143   18144   18145
   18149   18150   18151   18138   18138       0   18137   18139   18140   18141
   18142   18146   18147   18152   18139   18140   18141   18142   18146   18148
   18152   18143   18144   18145   18149   18150   18151   18153   18154   18155
   18140   18141   18146   18147   18148   18152   18146   18147   18142   18146
   18147   18148   18152   18146   18148   18144   18145   18149   18150   18151
   18153   18154   18155   18156   18157   18158   18145   18149   18150   18151
   18149   18150   18151   18147   18148   18152   18152   18152   18150   18151
   18153   18154   18155   18156   18157   18158   18159   18160   18161   18151
   18153   18154   18155   18153   18154   18155       0   18154   18155   18156
   18157   18158   18159   18160   18161   18162   18163   18164   18155   18156
   18157   18158   18156   18157   18158   18157   18158   18159   18160   18161
   18162   18163   18164   18165   18166   18167   18158   18159   18160   18161
   18159   18160   18161   18160   18161   18162   18163   18164   18165   18166
   18167   18168   18169   18170   18161   18162   18163   18164   18162   18163
   18164   18163   18164   18165   18166   18167   18168   18169   18170   18171
   18172   18173   18164   18165   18166   18167   18165   18166   18167   18166
   18167   18168   18169   18170   18167   18168   18169   18170   18168   18169
   18170   18171   18172   18173   18174   18175   18176   18169   18170   18171
   18172   18173   18174   18175   18176   18170   18171   18172   18173   18171
   18172   18173   18172   18173   18174   18175   18176   18173   18174   18175
   18176   18174   18175   18176   18175   18176   18176       0   18178   18179
   18180   18181   18182   18183   18184   18185   18186   18187   18188   18189
   18179   18180   18181   18182   18183   18184   18185   18186   18189   18190
   18191   18192   18180   18181   18182   18183   18186   18187   18188   18189
   18193   18194   18195   18181   18183   18184   18185   18186   18190   18191
   18192   18196   18197   18198   18182   18183   18184   18185   18186   18189
   18192   18193   18195   18183   18187   18188   18189   18193   18194   18199
   18200   18201   18185   18186   18187   18188   18189   18193   18195   18199
   18185   18186   18190   18191   18192   18196   18197   18202   18186   18190
   18191   18192   18196   18198   18202   18189   18192   18196   18198   18188
   18189   18193   18194   18195   18199   18200   18201   18203   18204   18205
   18206   18193   18194   18193   18194   18195   18199   18191   18192   18196
   18197   18198   18202   18207   18208   18209   18196   18197   18196   18197
   18198   18202   18207   18208   18209   18194   18195   18199   18200   18201
   18199   18200   18201   18203   18204   18205   18206   18210   18211   18212
   18199   18197   18198   18202   18207   18208   18209   18213   18214   18215
   18202   18202       0   18201   18203   18204   18205   18206   18210   18211
   18216   18203   18204   18205   18206   18210   18212   18216   18207   18208
   18209   18213   18214   18215   18217   18218   18219   18204   18205   18210
   18211   18212   18216   18210   18211   18206   18210   18211   18212   18216
   18210   18212   18208   18209   18213   18214   18215   18217   18218   18219
   18220   18221   18222   18209   18213   18214   18215   18213   18214   18215
   18211   18212   18216   18216   18216   18214   18215   18217   18218   18219
   18220   18221   18222   18223   18224   18225   18215   18217   18218   18219
   18217   18218   18219       0   18218   18219   18220   18221   18222   18223
   18224   18225   18226   18227   18228   18219   18220   18221   18222   18220
   18221   18222   18221   18222   18223   18224   18225   18226   18227   18228
   18229   18230   18231   18222   18223   18224   18225   18223   18224   18225
   18224   18225   18226   18227   18228   18229   18230   18231   18232   18233
   18234   18225   18226   18227   18228   18226   18227   18228   18227   18228
   18229   18230   18231   18232   18233   18234   18235   18236   18237   18228
   18229   18230   18231   18229   18230   18231   18230   18231   18232   18233
   18234   18231   18232   18233   18234   18232   18233   18234   18235   18236
   18237   18238   18239   18240   18233   18234   18235   18236   18237   18238
   18239   18240   18234   18235   18236   18237   18235   18236   18237   18236
   18237   18238   18239   18240   18237   18238   18239   18240   18238   18239
   18240   18239   18240   18240       0   18242   18243   18244   18245   18246
   18247   18248   18249   18250   18251   18252   18253   18243   18244   18245
   18246   18247   18248   18249   18250   18253   18254   18255   18256   18244
   18245   18246   18247   18250   18251   18252   18253   18257   18258   18259
   18245   18247   18248   18249   18250   18254   18255   18256   18260   18261
   18262   18246   18247   18248   18249   18250   18253   18256   18257   18259
   18247   18251   18252   18253   18257   18258   18263   18264   18265   18249
   18250   18251   18252   18253   18257   18259   18263   18249   18250   18254
   18255   18256   18260   18261   18266   18250   18254   18255   18256   18260
   18262   18266   18253   18256   18260   18262   18252   18253   18257   18258
   18259   18263   18264   18265   18267   18268   18269   18270   18257   18258
   18257   18258   18259   18263   18255   18256   18260   18261   18262   18266
   18271   18272   18273   18260   18261   18260   18261   18262   18266   18271
   18272   18273   18258   18259   18263   18264   18265   18263   18264   18265
   18267   18268   18269   18270   18274   18275   18276   18263   18261   18262
   18266   18271   18272   18273   18277   18278   18279   18266   18266       0
   18265   18267   18268   18269   18270   18274   18275   18280   18267   18268
   18269   18270   18274   18276   18280   18271   18272   18273   18277   18278
   18279   18281   18282   18283   18268   18269   18274   18275   18276   18280
   18274   18275   18270   18274   18275   18276   18280   18274   18276   18272
   18273   18277   18278   18279   18281   18282   18283   18284   18285   18286
   18273   18277   18278   18279   18277   18278   18279   18275   18276   18280
   18280   18280   18278   18279   18281   18282   18283   18284   18285   18286
   18287   18288   18289   18279   18281   18282   18283   18281   18282   18283
       0   18282   18283   18284   18285   18286   18287   18288   18289   18290
   18291   18292   18283   18284   18285   18286   18284   18285   18286   18285
   18286   18287   18288   18289   18290   18291   18292   18293   18294   18295
   18286   18287   18288   18289   18287   18288   18289   18288   18289   18290
   18291   18292   18293   18294   18295   18296   18297   18298   18289   18290
   18291   18292   18290   18291   18292   18291   18292   18293   18294   18295
   18296   18297   18298   18299   18300   18301   18292   18293   18294   18295
   18293   18294   18295   18294   18295   18296   18297   18298   18295   18296
   18297   18298   18296   18297   18298   18299   18300   18301   18302   18303
   18304   18297   18298   18299   18300   18301   18302   18303   18304   18298
   18299   18300   18301   18299   18300   18301   18300   18301   18302   18303
   18304   18301   18302   18303   18304   18302   18303   18304   18303   18304
   18304       0   18306   18307   18308   18309   18310   18311   18312   18313
   18314   18315   18316   18317   18307   18308   18309   18310   18311   18312
   18313   18314   18317   18318   18319   18320   18308   18309   18310   18311
   18314   18315   18316   18317   18321   18322   18323   18309   18311   18312
   18313   18314   18318   18319   18320   18324   18325   18326   18310   18311
   18312   18313   18314   18317   18320   18321   18323   18311   18315   18316
   18317   18321   18322   18327   18328   18329   18313   18314   18315   18316
   18317   18321   18323   18327   18313   18314   18318   18319   18320   18324
   18325   18330   18314   18318   18319   18320   18324   18326   18330   18317
   18320   18324   18326   18316   18317   18321   18322   18323   18327   18328
   18329   18331   18332   18333   18334   18321   18322   18321   18322   18323
   18327   18319   18320   18324   18325   18326   18330   18335   18336   18337
   18324   18325   18324   18325   18326   18330   18335   18336   18337   18322
   18323   18327   18328   18329   18327   18328   18329   18331   18332   18333
   18334   18338   18339   18340   18327   18325   18326   18330   18335   18336
   18337   18341   18342   18343   18330   18330       0   18329   18331   18332
   18333   18334   18338   18339   18344   18331   18332   18333   18334   18338
   18340   18344   18335   18336   18337   18341   18342   18343   18345   18346
   18347   18332   18333   18338   18339   18340   18344   18338   18339   18334
   18338   18339   18340   18344   18338   18340   18336   18337   18341   18342
   18343   18345   18346   18347   18348   18349   18350   18337   18341   18342
   18343   18341   18342   18343   18339   18340   18344   18344   18344   18342
   18343   18345   18346   18347   18348   18349   18350   18351   18352   18353
   18343   18345   18346   18347   18345   18346   18347       0   18346   18347
   18348   18349   18350   18351   18352   18353   18354   18355   18356   18347
   18348   18349   18350   18348   18349   18350   18349   18350   18351   18352
   18353   18354   18355   18356   18357   18358   18359   18350   18351   18352
   18353   18351   18352   18353   18352   18353   18354   18355   18356   18357
   18358   18359   18360   18361   18362   18353   18354   18355   18356   18354
   18355   18356   18355   18356   18357   18358   18359   18360   18361   18362
   18363   18364   18365   18356   18357   18358   18359   18357   18358   18359
   18358   18359   18360   18361   18362   18359   18360   18361   18362   18360
   18361   18362   18363   18364   18365   18366   18367   18368   18361   18362
   18363   18364   18365   18366   18367   18368   18362   18363   18364   18365
   18363   18364   18365   18364   18365   18366   18367   18368   18365   18366
   18367   18368   18366   18367   18368   18367   18368   18368       0   18370
   18371   18372   18373   18374   18375   18376   18377   18378   18379   18380
   18381   18371   18372   18373   18374   18375   18376   18377   18378   18381
   18382   18383   18384   18372   18373   18374   18375   18378   18379   18380
   18381   18385   18386   18387   18373   18375   18376   18377   18378   18382
   18383   18384   18388   18389   18390   18374   18375   18376   18377   18378
   18381   18384   18385   18387   18375   18379   18380   18381   18385   18386
   18391   18392   18393   18377   18378   18379   18380   18381   18385   18387
   18391   18377   18378   18382   18383   18384   18388   18389   18394   18378
   18382   18383   18384   18388   18390   18394   18381   18384   18388   18390
   18380   18381   18385   18386   18387   18391   18392   18393   18395   18396
   18397   18398   18385   18386   18385   18386   18387   18391   18383   18384
   18388   18389   18390   18394   18399   18400   18401   18388   18389   18388
   18389   18390   18394   18399   18400   18401   18386   18387   18391   18392
   18393   18391   18392   18393   18395   18396   18397   18398   18402   18403
   18404   18391   18389   18390   18394   18399   18400   18401   18405   18406
   18407   18394   18394       0   18393   18395   18396   18397   18398   18402
   18403   18408   18395   18396   18397   18398   18402   18404   18408   18399
   18400   18401   18405   18406   18407   18409   18410   18411   18396   18397
   18402   18403   18404   18408   18402   18403   18398   18402   18403   18404
   18408   18402   18404   18400   18401   18405   18406   18407   18409   18410
   18411   18412   18413   18414   18401   18405   18406   18407   18405   18406
   18407   18403   18404   18408   18408   18408   18406   18407   18409   18410
   18411   18412   18413   18414   18415   18416   18417   18407   18409   18410
   18411   18409   18410   18411       0   18410   18411   18412   18413   18414
   18415   18416   18417   18418   18419   18420   18411   18412   18413   18414
   18412   18413   18414   18413   18414   18415   18416   18417   18418   18419
   18420   18421   18422   18423   18414   18415   18416   18417   18415   18416
   18417   18416   18417   18418   18419   18420   18421   18422   18423   18424
   18425   18426   18417   18418   18419   18420   18418   18419   18420   18419
   18420   18421   18422   18423   18424   18425   18426   18427   18428   18429
   18420   18421   18422   18423   18421   18422   18423   18422   18423   18424
   18425   18426   18423   18424   18425   18426   18424   18425   18426   18427
   18428   18429   18430   18431   18432   18425   18426   18427   18428   18429
   18430   18431   18432   18426   18427   18428   18429   18427   18428   18429
   18428   18429   18430   18431   18432   18429   18430   18431   18432   18430
   18431   18432   18431   18432   18432       0
%FLAG HBOND_ACOEF                                                               
%FORMAT(5E16.8)                                                                 

%FLAG HBOND_BCOEF                                                               
%FORMAT(5E16.8)                                                                 

%FLAG HBCUT                                                                     
%FORMAT(5E16.8)                                                                 

%FLAG AMBER_ATOM_TYPE                                                           
%FORMAT(20a4)                                                                   
ss  cc  ca  ca  cd  ca  ca  ca  ca  ss  cp  ha  ca  ca  ha  ca  ca  cp  ha  ca  
ha  ha  ha  ca  ca  c3  ca  ha  ca  ha  c3  hc  hc  ca  ha  ha  c3  hc  hc  ha  
c3  hc  hc  c3  hc  hc  c3  hc  hc  c3  hc  hc  hc  hc  c3  c3  hc  hc  hc  c3  
hc  hc  hc  hc  ss  cc  ca  ca  cd  ca  ca  ca  ca  ss  cp  ha  ca  ca  ha  ca  
ca  cp  ha  ca  ha  ha  ha  ca  ca  c3  ca  ha  ca  ha  c3  hc  hc  ca  ha  ha  
c3  hc  hc  ha  c3  hc  hc  c3  hc  hc  c3  hc  hc  c3  hc  hc  hc  hc  c3  c3  
hc  hc  hc  c3  hc  hc  hc  hc  ss  cc  ca  ca  cd  ca  ca  ca  ca  ss  cp  ha  
ca  ca  ha  ca  ca  cp  ha  ca  ha  ha  ha  ca  ca  c3  ca  ha  ca  ha  c3  hc  
hc  ca  ha  ha  c3  hc  hc  ha  c3  hc  hc  c3  hc  hc  c3  hc  hc  c3  hc  hc  
hc  hc  c3  c3  hc  hc  hc  c3  hc  hc  hc  hc  ss  cc  ca  ca  cd  ca  ca  ca  
ca  ss  cp  ha  ca  ca  ha  ca  ca  cp  ha  ca  ha  ha  ha  ca  ca  c3  ca  ha  
ca  ha  c3  hc  hc  ca  ha  ha  c3  hc  hc  ha  c3  hc  hc  c3  hc  hc  c3  hc  
hc  c3  hc  hc  hc  hc  c3  c3  hc  hc  hc  c3  hc  hc  hc  hc  ss  cc  ca  ca  
cd  ca  ca  ca  ca  ss  cp  ha  ca  ca  ha  ca  ca  cp  ha  ca  ha  ha  ha  ca  
ca  c3  ca  ha  ca  ha  c3  hc  hc  ca  ha  ha  c3  hc  hc  ha  c3  hc  hc  c3  
hc  hc  c3  hc  hc  c3  hc  hc  hc  hc  c3  c3  hc  hc  hc  c3  hc  hc  hc  hc  
ss  cc  ca  ca  cd  ca  ca  ca  ca  ss  cp  ha  ca  ca  ha  ca  ca  cp  ha  ca  
ha  ha  ha  ca  ca  c3  ca  ha  ca  ha  c3  hc  hc  ca  ha  ha  c3  hc  hc  ha  
c3  hc  hc  c3  hc  hc  c3  hc  hc  c3  hc  hc  hc  hc  c3  c3  hc  hc  hc  c3  
hc  hc  hc  hc  ss  cc  ca  ca  cd  ca  ca  ca  ca  ss  cp  ha  ca  ca  ha  ca  
ca  cp  ha  ca  ha  ha  ha  ca  ca  c3  ca  ha  ca  ha  c3  hc  hc  ca  ha  ha  
c3  hc  hc  ha  c3  hc  hc  c3  hc  hc  c3  hc  hc  c3  hc  hc  hc  hc  c3  c3  
hc  hc  hc  c3  hc  hc  hc  hc  ss  cc  ca  ca  cd  ca  ca  ca  ca  ss  cp  ha  
ca  ca  ha  ca  ca  cp  ha  ca  ha  ha  ha  ca  ca  c3  ca  ha  ca  ha  c3  hc  
hc  ca  ha  ha  c3  hc  hc  ha  c3  hc  hc  c3  hc  hc  c3  hc  hc  c3  hc  hc  
hc  hc  c3  c3  hc  hc  hc  c3  hc  hc  hc  hc  ss  cc  ca  ca  cd  ca  ca  ca  
ca  ss  cp  ha  ca  ca  ha  ca  ca  cp  ha  ca  ha  ha  ha  ca  ca  c3  ca  ha  
ca  ha  c3  hc  hc  ca  ha  ha  c3  hc  hc  ha  c3  hc  hc  c3  hc  hc  c3  hc  
hc  c3  hc  hc  hc  hc  c3  c3  hc  hc  hc  c3  hc  hc  hc  hc  ss  cc  ca  ca  
cd  ca  ca  ca  ca  ss  cp  ha  ca  ca  ha  ca  ca  cp  ha  ca  ha  ha  ha  ca  
ca  c3  ca  ha  ca  ha  c3  hc  hc  ca  ha  ha  c3  hc  hc  ha  c3  hc  hc  c3  
hc  hc  c3  hc  hc  c3  hc  hc  hc  hc  c3  c3  hc  hc  hc  c3  hc  hc  hc  hc  
ss  cc  ca  ca  cd  ca  ca  ca  ca  ss  cp  ha  ca  ca  ha  ca  ca  cp  ha  ca  
ha  ha  ha  ca  ca  c3  ca  ha  ca  ha  c3  hc  hc  ca  ha  ha  c3  hc  hc  ha  
c3  hc  hc  c3  hc  hc  c3  hc  hc  c3  hc  hc  hc  hc  c3  c3  hc  hc  hc  c3  
hc  hc  hc  hc  ss  cc  ca  ca  cd  ca  ca  ca  ca  ss  cp  ha  ca  ca  ha  ca  
ca  cp  ha  ca  ha  ha  ha  ca  ca  c3  ca  ha  ca  ha  c3  hc  hc  ca  ha  ha  
c3  hc  hc  ha  c3  hc  hc  c3  hc  hc  c3  hc  hc  c3  hc  hc  hc  hc  c3  c3  
hc  hc  hc  c3  hc  hc  hc  hc  ss  cc  ca  ca  cd  ca  ca  ca  ca  ss  cp  ha  
ca  ca  ha  ca  ca  cp  ha  ca  ha  ha  ha  ca  ca  c3  ca  ha  ca  ha  c3  hc  
hc  ca  ha  ha  c3  hc  hc  ha  c3  hc  hc  c3  hc  hc  c3  hc  hc  c3  hc  hc  
hc  hc  c3  c3  hc  hc  hc  c3  hc  hc  hc  hc  ss  cc  ca  ca  cd  ca  ca  ca  
ca  ss  cp  ha  ca  ca  ha  ca  ca  cp  ha  ca  ha  ha  ha  ca  ca  c3  ca  ha  
ca  ha  c3  hc  hc  ca  ha  ha  c3  hc  hc  ha  c3  hc  hc  c3  hc  hc  c3  hc  
hc  c3  hc  hc  hc  hc  c3  c3  hc  hc  hc  c3  hc  hc  hc  hc  ss  cc  ca  ca  
cd  ca  ca  ca  ca  ss  cp  ha  ca  ca  ha  ca  ca  cp  ha  ca  ha  ha  ha  ca  
ca  c3  ca  ha  ca  ha  c3  hc  hc  ca  ha  ha  c3  hc  hc  ha  c3  hc  hc  c3  
hc  hc  c3  hc  hc  c3  hc  hc  hc  hc  c3  c3  hc  hc  hc  c3  hc  hc  hc  hc  
ss  cc  ca  ca  cd  ca  ca  ca  ca  ss  cp  ha  ca  ca  ha  ca  ca  cp  ha  ca  
ha  ha  ha  ca  ca  c3  ca  ha  ca  ha  c3  hc  hc  ca  ha  ha  c3  hc  hc  ha  
c3  hc  hc  c3  hc  hc  c3  hc  hc  c3  hc  hc  hc  hc  c3  c3  hc  hc  hc  c3  
hc  hc  hc  hc  ss  cc  ca  ca  cd  ca  ca  ca  ca  ss  cp  ha  ca  ca  ha  ca  
ca  cp  ha  ca  ha  ha  ha  ca  ca  c3  ca  ha  ca  ha  c3  hc  hc  ca  ha  ha  
c3  hc  hc  ha  c3  hc  hc  c3  hc  hc  c3  hc  hc  c3  hc  hc  hc  hc  c3  c3  
hc  hc  hc  c3  hc  hc  hc  hc  ss  cc  ca  ca  cd  ca  ca  ca  ca  ss  cp  ha  
ca  ca  ha  ca  ca  cp  ha  ca  ha  ha  ha  ca  ca  c3  ca  ha  ca  ha  c3  hc  
hc  ca  ha  ha  c3  hc  hc  ha  c3  hc  hc  c3  hc  hc  c3  hc  hc  c3  hc  hc  
hc  hc  c3  c3  hc  hc  hc  c3  hc  hc  hc  hc  ss  cc  ca  ca  cd  ca  ca  ca  
ca  ss  cp  ha  ca  ca  ha  ca  ca  cp  ha  ca  ha  ha  ha  ca  ca  c3  ca  ha  
ca  ha  c3  hc  hc  ca  ha  ha  c3  hc  hc  ha  c3  hc  hc  c3  hc  hc  c3  hc  
hc  c3  hc  hc  hc  hc  c3  c3  hc  hc  hc  c3  hc  hc  hc  hc  ss  cc  ca  ca  
cd  ca  ca  ca  ca  ss  cp  ha  ca  ca  ha  ca  ca  cp  ha  ca  ha  ha  ha  ca  
ca  c3  ca  ha  ca  ha  c3  hc  hc  ca  ha  ha  c3  hc  hc  ha  c3  hc  hc  c3  
hc  hc  c3  hc  hc  c3  hc  hc  hc  hc  c3  c3  hc  hc  hc  c3  hc  hc  hc  hc  
ss  cc  ca  ca  cd  ca  ca  ca  ca  ss  cp  ha  ca  ca  ha  ca  ca  cp  ha  ca  
ha  ha  ha  ca  ca  c3  ca  ha  ca  ha  c3  hc  hc  ca  ha  ha  c3  hc  hc  ha  
c3  hc  hc  c3  hc  hc  c3  hc  hc  c3  hc  hc  hc  hc  c3  c3  hc  hc  hc  c3  
hc  hc  hc  hc  ss  cc  ca  ca  cd  ca  ca  ca  ca  ss  cp  ha  ca  ca  ha  ca  
ca  cp  ha  ca  ha  ha  ha  ca  ca  c3  ca  ha  ca  ha  c3  hc  hc  ca  ha  ha  
c3  hc  hc  ha  c3  hc  hc  c3  hc  hc  c3  hc  hc  c3  hc  hc  hc  hc  c3  c3  
hc  hc  hc  c3  hc  hc  hc  hc  ss  cc  ca  ca  cd  ca  ca  ca  ca  ss  cp  ha  
ca  ca  ha  ca  ca  cp  ha  ca  ha  ha  ha  ca  ca  c3  ca  ha  ca  ha  c3  hc  
hc  ca  ha  ha  c3  hc  hc  ha  c3  hc  hc  c3  hc  hc  c3  hc  hc  c3  hc  hc  
hc  hc  c3  c3  hc  hc  hc  c3  hc  hc  hc  hc  ss  cc  ca  ca  cd  ca  ca  ca  
ca  ss  cp  ha  ca  ca  ha  ca  ca  cp  ha  ca  ha  ha  ha  ca  ca  c3  ca  ha  
ca  ha  c3  hc  hc  ca  ha  ha  c3  hc  hc  ha  c3  hc  hc  c3  hc  hc  c3  hc  
hc  c3  hc  hc  hc  hc  c3  c3  hc  hc  hc  c3  hc  hc  hc  hc  ss  cc  ca  ca  
cd  ca  ca  ca  ca  ss  cp  ha  ca  ca  ha  ca  ca  cp  ha  ca  ha  ha  ha  ca  
ca  c3  ca  ha  ca  ha  c3  hc  hc  ca  ha  ha  c3  hc  hc  ha  c3  hc  hc  c3  
hc  hc  c3  hc  hc  c3  hc  hc  hc  hc  c3  c3  hc  hc  hc  c3  hc  hc  hc  hc  
ss  cc  ca  ca  cd  ca  ca  ca  ca  ss  cp  ha  ca  ca  ha  ca  ca  cp  ha  ca  
ha  ha  ha  ca  ca  c3  ca  ha  ca  ha  c3  hc  hc  ca  ha  ha  c3  hc  hc  ha  
c3  hc  hc  c3  hc  hc  c3  hc  hc  c3  hc  hc  hc  hc  c3  c3  hc  hc  hc  c3  
hc  hc  hc  hc  ss  cc  ca  ca  cd  ca  ca  ca  ca  ss  cp  ha  ca  ca  ha  ca  
ca  cp  ha  ca  ha  ha  ha  ca  ca  c3  ca  ha  ca  ha  c3  hc  hc  ca  ha  ha  
c3  hc  hc  ha  c3  hc  hc  c3  hc  hc  c3  hc  hc  c3  hc  hc  hc  hc  c3  c3  
hc  hc  hc  c3  hc  hc  hc  hc  ss  cc  ca  ca  cd  ca  ca  ca  ca  ss  cp  ha  
ca  ca  ha  ca  ca  cp  ha  ca  ha  ha  ha  ca  ca  c3  ca  ha  ca  ha  c3  hc  
hc  ca  ha  ha  c3  hc  hc  ha  c3  hc  hc  c3  hc  hc  c3  hc  hc  c3  hc  hc  
hc  hc  c3  c3  hc  hc  hc  c3  hc  hc  hc  hc  ss  cc  ca  ca  cd  ca  ca  ca  
ca  ss  cp  ha  ca  ca  ha  ca  ca  cp  ha  ca  ha  ha  ha  ca  ca  c3  ca  ha  
ca  ha  c3  hc  hc  ca  ha  ha  c3  hc  hc  ha  c3  hc  hc  c3  hc  hc  c3  hc  
hc  c3  hc  hc  hc  hc  c3  c3  hc  hc  hc  c3  hc  hc  hc  hc  ss  cc  ca  ca  
cd  ca  ca  ca  ca  ss  cp  ha  ca  ca  ha  ca  ca  cp  ha  ca  ha  ha  ha  ca  
ca  c3  ca  ha  ca  ha  c3  hc  hc  ca  ha  ha  c3  hc  hc  ha  c3  hc  hc  c3  
hc  hc  c3  hc  hc  c3  hc  hc  hc  hc  c3  c3  hc  hc  hc  c3  hc  hc  hc  hc  
ss  cc  ca  ca  cd  ca  ca  ca  ca  ss  cp  ha  ca  ca  ha  ca  ca  cp  ha  ca  
ha  ha  ha  ca  ca  c3  ca  ha  ca  ha  c3  hc  hc  ca  ha  ha  c3  hc  hc  ha  
c3  hc  hc  c3  hc  hc  c3  hc  hc  c3  hc  hc  hc  hc  c3  c3  hc  hc  hc  c3  
hc  hc  hc  hc  ss  cc  ca  ca  cd  ca  ca  ca  ca  ss  cp  ha  ca  ca  ha  ca  
ca  cp  ha  ca  ha  ha  ha  ca  ca  c3  ca  ha  ca  ha  c3  hc  hc  ca  ha  ha  
c3  hc  hc  ha  c3  hc  hc  c3  hc  hc  c3  hc  hc  c3  hc  hc  hc  hc  c3  c3  
hc  hc  hc  c3  hc  hc  hc  hc  ss  cc  ca  ca  cd  ca  ca  ca  ca  ss  cp  ha  
ca  ca  ha  ca  ca  cp  ha  ca  ha  ha  ha  ca  ca  c3  ca  ha  ca  ha  c3  hc  
hc  ca  ha  ha  c3  hc  hc  ha  c3  hc  hc  c3  hc  hc  c3  hc  hc  c3  hc  hc  
hc  hc  c3  c3  hc  hc  hc  c3  hc  hc  hc  hc  ss  cc  ca  ca  cd  ca  ca  ca  
ca  ss  cp  ha  ca  ca  ha  ca  ca  cp  ha  ca  ha  ha  ha  ca  ca  c3  ca  ha  
ca  ha  c3  hc  hc  ca  ha  ha  c3  hc  hc  ha  c3  hc  hc  c3  hc  hc  c3  hc  
hc  c3  hc  hc  hc  hc  c3  c3  hc  hc  hc  c3  hc  hc  hc  hc  ss  cc  ca  ca  
cd  ca  ca  ca  ca  ss  cp  ha  ca  ca  ha  ca  ca  cp  ha  ca  ha  ha  ha  ca  
ca  c3  ca  ha  ca  ha  c3  hc  hc  ca  ha  ha  c3  hc  hc  ha  c3  hc  hc  c3  
hc  hc  c3  hc  hc  c3  hc  hc  hc  hc  c3  c3  hc  hc  hc  c3  hc  hc  hc  hc  
ss  cc  ca  ca  cd  ca  ca  ca  ca  ss  cp  ha  ca  ca  ha  ca  ca  cp  ha  ca  
ha  ha  ha  ca  ca  c3  ca  ha  ca  ha  c3  hc  hc  ca  ha  ha  c3  hc  hc  ha  
c3  hc  hc  c3  hc  hc  c3  hc  hc  c3  hc  hc  hc  hc  c3  c3  hc  hc  hc  c3  
hc  hc  hc  hc  ss  cc  ca  ca  cd  ca  ca  ca  ca  ss  cp  ha  ca  ca  ha  ca  
ca  cp  ha  ca  ha  ha  ha  ca  ca  c3  ca  ha  ca  ha  c3  hc  hc  ca  ha  ha  
c3  hc  hc  ha  c3  hc  hc  c3  hc  hc  c3  hc  hc  c3  hc  hc  hc  hc  c3  c3  
hc  hc  hc  c3  hc  hc  hc  hc  ss  cc  ca  ca  cd  ca  ca  ca  ca  ss  cp  ha  
ca  ca  ha  ca  ca  cp  ha  ca  ha  ha  ha  ca  ca  c3  ca  ha  ca  ha  c3  hc  
hc  ca  ha  ha  c3  hc  hc  ha  c3  hc  hc  c3  hc  hc  c3  hc  hc  c3  hc  hc  
hc  hc  c3  c3  hc  hc  hc  c3  hc  hc  hc  hc  ss  cc  ca  ca  cd  ca  ca  ca  
ca  ss  cp  ha  ca  ca  ha  ca  ca  cp  ha  ca  ha  ha  ha  ca  ca  c3  ca  ha  
ca  ha  c3  hc  hc  ca  ha  ha  c3  hc  hc  ha  c3  hc  hc  c3  hc  hc  c3  hc  
hc  c3  hc  hc  hc  hc  c3  c3  hc  hc  hc  c3  hc  hc  hc  hc  ss  cc  ca  ca  
cd  ca  ca  ca  ca  ss  cp  ha  ca  ca  ha  ca  ca  cp  ha  ca  ha  ha  ha  ca  
ca  c3  ca  ha  ca  ha  c3  hc  hc  ca  ha  ha  c3  hc  hc  ha  c3  hc  hc  c3  
hc  hc  c3  hc  hc  c3  hc  hc  hc  hc  c3  c3  hc  hc  hc  c3  hc  hc  hc  hc  
ss  cc  ca  ca  cd  ca  ca  ca  ca  ss  cp  ha  ca  ca  ha  ca  ca  cp  ha  ca  
ha  ha  ha  ca  ca  c3  ca  ha  ca  ha  c3  hc  hc  ca  ha  ha  c3  hc  hc  ha  
c3  hc  hc  c3  hc  hc  c3  hc  hc  c3  hc  hc  hc  hc  c3  c3  hc  hc  hc  c3  
hc  hc  hc  hc  ss  cc  ca  ca  cd  ca  ca  ca  ca  ss  cp  ha  ca  ca  ha  ca  
ca  cp  ha  ca  ha  ha  ha  ca  ca  c3  ca  ha  ca  ha  c3  hc  hc  ca  ha  ha  
c3  hc  hc  ha  c3  hc  hc  c3  hc  hc  c3  hc  hc  c3  hc  hc  hc  hc  c3  c3  
hc  hc  hc  c3  hc  hc  hc  hc  ss  cc  ca  ca  cd  ca  ca  ca  ca  ss  cp  ha  
ca  ca  ha  ca  ca  cp  ha  ca  ha  ha  ha  ca  ca  c3  ca  ha  ca  ha  c3  hc  
hc  ca  ha  ha  c3  hc  hc  ha  c3  hc  hc  c3  hc  hc  c3  hc  hc  c3  hc  hc  
hc  hc  c3  c3  hc  hc  hc  c3  hc  hc  hc  hc  ss  cc  ca  ca  cd  ca  ca  ca  
ca  ss  cp  ha  ca  ca  ha  ca  ca  cp  ha  ca  ha  ha  ha  ca  ca  c3  ca  ha  
ca  ha  c3  hc  hc  ca  ha  ha  c3  hc  hc  ha  c3  hc  hc  c3  hc  hc  c3  hc  
hc  c3  hc  hc  hc  hc  c3  c3  hc  hc  hc  c3  hc  hc  hc  hc  ss  cc  ca  ca  
cd  ca  ca  ca  ca  ss  cp  ha  ca  ca  ha  ca  ca  cp  ha  ca  ha  ha  ha  ca  
ca  c3  ca  ha  ca  ha  c3  hc  hc  ca  ha  ha  c3  hc  hc  ha  c3  hc  hc  c3  
hc  hc  c3  hc  hc  c3  hc  hc  hc  hc  c3  c3  hc  hc  hc  c3  hc  hc  hc  hc  
ss  cc  ca  ca  cd  ca  ca  ca  ca  ss  cp  ha  ca  ca  ha  ca  ca  cp  ha  ca  
ha  ha  ha  ca  ca  c3  ca  ha  ca  ha  c3  hc  hc  ca  ha  ha  c3  hc  hc  ha  
c3  hc  hc  c3  hc  hc  c3  hc  hc  c3  hc  hc  hc  hc  c3  c3  hc  hc  hc  c3  
hc  hc  hc  hc  ss  cc  ca  ca  cd  ca  ca  ca  ca  ss  cp  ha  ca  ca  ha  ca  
ca  cp  ha  ca  ha  ha  ha  ca  ca  c3  ca  ha  ca  ha  c3  hc  hc  ca  ha  ha  
c3  hc  hc  ha  c3  hc  hc  c3  hc  hc  c3  hc  hc  c3  hc  hc  hc  hc  c3  c3  
hc  hc  hc  c3  hc  hc  hc  hc  ss  cc  ca  ca  cd  ca  ca  ca  ca  ss  cp  ha  
ca  ca  ha  ca  ca  cp  ha  ca  ha  ha  ha  ca  ca  c3  ca  ha  ca  ha  c3  hc  
hc  ca  ha  ha  c3  hc  hc  ha  c3  hc  hc  c3  hc  hc  c3  hc  hc  c3  hc  hc  
hc  hc  c3  c3  hc  hc  hc  c3  hc  hc  hc  hc  ss  cc  ca  ca  cd  ca  ca  ca  
ca  ss  cp  ha  ca  ca  ha  ca  ca  cp  ha  ca  ha  ha  ha  ca  ca  c3  ca  ha  
ca  ha  c3  hc  hc  ca  ha  ha  c3  hc  hc  ha  c3  hc  hc  c3  hc  hc  c3  hc  
hc  c3  hc  hc  hc  hc  c3  c3  hc  hc  hc  c3  hc  hc  hc  hc  ss  cc  ca  ca  
cd  ca  ca  ca  ca  ss  cp  ha  ca  ca  ha  ca  ca  cp  ha  ca  ha  ha  ha  ca  
ca  c3  ca  ha  ca  ha  c3  hc  hc  ca  ha  ha  c3  hc  hc  ha  c3  hc  hc  c3  
hc  hc  c3  hc  hc  c3  hc  hc  hc  hc  c3  c3  hc  hc  hc  c3  hc  hc  hc  hc  
ss  cc  ca  ca  cd  ca  ca  ca  ca  ss  cp  ha  ca  ca  ha  ca  ca  cp  ha  ca  
ha  ha  ha  ca  ca  c3  ca  ha  ca  ha  c3  hc  hc  ca  ha  ha  c3  hc  hc  ha  
c3  hc  hc  c3  hc  hc  c3  hc  hc  c3  hc  hc  hc  hc  c3  c3  hc  hc  hc  c3  
hc  hc  hc  hc  ss  cc  ca  ca  cd  ca  ca  ca  ca  ss  cp  ha  ca  ca  ha  ca  
ca  cp  ha  ca  ha  ha  ha  ca  ca  c3  ca  ha  ca  ha  c3  hc  hc  ca  ha  ha  
c3  hc  hc  ha  c3  hc  hc  c3  hc  hc  c3  hc  hc  c3  hc  hc  hc  hc  c3  c3  
hc  hc  hc  c3  hc  hc  hc  hc  ss  cc  ca  ca  cd  ca  ca  ca  ca  ss  cp  ha  
ca  ca  ha  ca  ca  cp  ha  ca  ha  ha  ha  ca  ca  c3  ca  ha  ca  ha  c3  hc  
hc  ca  ha  ha  c3  hc  hc  ha  c3  hc  hc  c3  hc  hc  c3  hc  hc  c3  hc  hc  
hc  hc  c3  c3  hc  hc  hc  c3  hc  hc  hc  hc  ss  cc  ca  ca  cd  ca  ca  ca  
ca  ss  cp  ha  ca  ca  ha  ca  ca  cp  ha  ca  ha  ha  ha  ca  ca  c3  ca  ha  
ca  ha  c3  hc  hc  ca  ha  ha  c3  hc  hc  ha  c3  hc  hc  c3  hc  hc  c3  hc  
hc  c3  hc  hc  hc  hc  c3  c3  hc  hc  hc  c3  hc  hc  hc  hc  ss  cc  ca  ca  
cd  ca  ca  ca  ca  ss  cp  ha  ca  ca  ha  ca  ca  cp  ha  ca  ha  ha  ha  ca  
ca  c3  ca  ha  ca  ha  c3  hc  hc  ca  ha  ha  c3  hc  hc  ha  c3  hc  hc  c3  
hc  hc  c3  hc  hc  c3  hc  hc  hc  hc  c3  c3  hc  hc  hc  c3  hc  hc  hc  hc  
ss  cc  ca  ca  cd  ca  ca  ca  ca  ss  cp  ha  ca  ca  ha  ca  ca  cp  ha  ca  
ha  ha  ha  ca  ca  c3  ca  ha  ca  ha  c3  hc  hc  ca  ha  ha  c3  hc  hc  ha  
c3  hc  hc  c3  hc  hc  c3  hc  hc  c3  hc  hc  hc  hc  c3  c3  hc  hc  hc  c3  
hc  hc  hc  hc  ss  cc  ca  ca  cd  ca  ca  ca  ca  ss  cp  ha  ca  ca  ha  ca  
ca  cp  ha  ca  ha  ha  ha  ca  ca  c3  ca  ha  ca  ha  c3  hc  hc  ca  ha  ha  
c3  hc  hc  ha  c3  hc  hc  c3  hc  hc  c3  hc  hc  c3  hc  hc  hc  hc  c3  c3  
hc  hc  hc  c3  hc  hc  hc  hc  ss  cc  ca  ca  cd  ca  ca  ca  ca  ss  cp  ha  
ca  ca  ha  ca  ca  cp  ha  ca  ha  ha  ha  ca  ca  c3  ca  ha  ca  ha  c3  hc  
hc  ca  ha  ha  c3  hc  hc  ha  c3  hc  hc  c3  hc  hc  c3  hc  hc  c3  hc  hc  
hc  hc  c3  c3  hc  hc  hc  c3  hc  hc  hc  hc  ss  cc  ca  ca  cd  ca  ca  ca  
ca  ss  cp  ha  ca  ca  ha  ca  ca  cp  ha  ca  ha  ha  ha  ca  ca  c3  ca  ha  
ca  ha  c3  hc  hc  ca  ha  ha  c3  hc  hc  ha  c3  hc  hc  c3  hc  hc  c3  hc  
hc  c3  hc  hc  hc  hc  c3  c3  hc  hc  hc  c3  hc  hc  hc  hc  ss  cc  ca  ca  
cd  ca  ca  ca  ca  ss  cp  ha  ca  ca  ha  ca  ca  cp  ha  ca  ha  ha  ha  ca  
ca  c3  ca  ha  ca  ha  c3  hc  hc  ca  ha  ha  c3  hc  hc  ha  c3  hc  hc  c3  
hc  hc  c3  hc  hc  c3  hc  hc  hc  hc  c3  c3  hc  hc  hc  c3  hc  hc  hc  hc  
ss  cc  ca  ca  cd  ca  ca  ca  ca  ss  cp  ha  ca  ca  ha  ca  ca  cp  ha  ca  
ha  ha  ha  ca  ca  c3  ca  ha  ca  ha  c3  hc  hc  ca  ha  ha  c3  hc  hc  ha  
c3  hc  hc  c3  hc  hc  c3  hc  hc  c3  hc  hc  hc  hc  c3  c3  hc  hc  hc  c3  
hc  hc  hc  hc  ss  cc  ca  ca  cd  ca  ca  ca  ca  ss  cp  ha  ca  ca  ha  ca  
ca  cp  ha  ca  ha  ha  ha  ca  ca  c3  ca  ha  ca  ha  c3  hc  hc  ca  ha  ha  
c3  hc  hc  ha  c3  hc  hc  c3  hc  hc  c3  hc  hc  c3  hc  hc  hc  hc  c3  c3  
hc  hc  hc  c3  hc  hc  hc  hc  ss  cc  ca  ca  cd  ca  ca  ca  ca  ss  cp  ha  
ca  ca  ha  ca  ca  cp  ha  ca  ha  ha  ha  ca  ca  c3  ca  ha  ca  ha  c3  hc  
hc  ca  ha  ha  c3  hc  hc  ha  c3  hc  hc  c3  hc  hc  c3  hc  hc  c3  hc  hc  
hc  hc  c3  c3  hc  hc  hc  c3  hc  hc  hc  hc  ss  cc  ca  ca  cd  ca  ca  ca  
ca  ss  cp  ha  ca  ca  ha  ca  ca  cp  ha  ca  ha  ha  ha  ca  ca  c3  ca  ha  
ca  ha  c3  hc  hc  ca  ha  ha  c3  hc  hc  ha  c3  hc  hc  c3  hc  hc  c3  hc  
hc  c3  hc  hc  hc  hc  c3  c3  hc  hc  hc  c3  hc  hc  hc  hc  ss  cc  ca  ca  
cd  ca  ca  ca  ca  ss  cp  ha  ca  ca  ha  ca  ca  cp  ha  ca  ha  ha  ha  ca  
ca  c3  ca  ha  ca  ha  c3  hc  hc  ca  ha  ha  c3  hc  hc  ha  c3  hc  hc  c3  
hc  hc  c3  hc  hc  c3  hc  hc  hc  hc  c3  c3  hc  hc  hc  c3  hc  hc  hc  hc  
ss  cc  ca  ca  cd  ca  ca  ca  ca  ss  cp  ha  ca  ca  ha  ca  ca  cp  ha  ca  
ha  ha  ha  ca  ca  c3  ca  ha  ca  ha  c3  hc  hc  ca  ha  ha  c3  hc  hc  ha  
c3  hc  hc  c3  hc  hc  c3  hc  hc  c3  hc  hc  hc  hc  c3  c3  hc  hc  hc  c3  
hc  hc  hc  hc  ss  cc  ca  ca  cd  ca  ca  ca  ca  ss  cp  ha  ca  ca  ha  ca  
ca  cp  ha  ca  ha  ha  ha  ca  ca  c3  ca  ha  ca  ha  c3  hc  hc  ca  ha  ha  
c3  hc  hc  ha  c3  hc  hc  c3  hc  hc  c3  hc  hc  c3  hc  hc  hc  hc  c3  c3  
hc  hc  hc  c3  hc  hc  hc  hc  ss  cc  ca  ca  cd  ca  ca  ca  ca  ss  cp  ha  
ca  ca  ha  ca  ca  cp  ha  ca  ha  ha  ha  ca  ca  c3  ca  ha  ca  ha  c3  hc  
hc  ca  ha  ha  c3  hc  hc  ha  c3  hc  hc  c3  hc  hc  c3  hc  hc  c3  hc  hc  
hc  hc  c3  c3  hc  hc  hc  c3  hc  hc  hc  hc  ss  cc  ca  ca  cd  ca  ca  ca  
ca  ss  cp  ha  ca  ca  ha  ca  ca  cp  ha  ca  ha  ha  ha  ca  ca  c3  ca  ha  
ca  ha  c3  hc  hc  ca  ha  ha  c3  hc  hc  ha  c3  hc  hc  c3  hc  hc  c3  hc  
hc  c3  hc  hc  hc  hc  c3  c3  hc  hc  hc  c3  hc  hc  hc  hc  ss  cc  ca  ca  
cd  ca  ca  ca  ca  ss  cp  ha  ca  ca  ha  ca  ca  cp  ha  ca  ha  ha  ha  ca  
ca  c3  ca  ha  ca  ha  c3  hc  hc  ca  ha  ha  c3  hc  hc  ha  c3  hc  hc  c3  
hc  hc  c3  hc  hc  c3  hc  hc  hc  hc  c3  c3  hc  hc  hc  c3  hc  hc  hc  hc  
ss  cc  ca  ca  cd  ca  ca  ca  ca  ss  cp  ha  ca  ca  ha  ca  ca  cp  ha  ca  
ha  ha  ha  ca  ca  c3  ca  ha  ca  ha  c3  hc  hc  ca  ha  ha  c3  hc  hc  ha  
c3  hc  hc  c3  hc  hc  c3  hc  hc  c3  hc  hc  hc  hc  c3  c3  hc  hc  hc  c3  
hc  hc  hc  hc  ss  cc  ca  ca  cd  ca  ca  ca  ca  ss  cp  ha  ca  ca  ha  ca  
ca  cp  ha  ca  ha  ha  ha  ca  ca  c3  ca  ha  ca  ha  c3  hc  hc  ca  ha  ha  
c3  hc  hc  ha  c3  hc  hc  c3  hc  hc  c3  hc  hc  c3  hc  hc  hc  hc  c3  c3  
hc  hc  hc  c3  hc  hc  hc  hc  ss  cc  ca  ca  cd  ca  ca  ca  ca  ss  cp  ha  
ca  ca  ha  ca  ca  cp  ha  ca  ha  ha  ha  ca  ca  c3  ca  ha  ca  ha  c3  hc  
hc  ca  ha  ha  c3  hc  hc  ha  c3  hc  hc  c3  hc  hc  c3  hc  hc  c3  hc  hc  
hc  hc  c3  c3  hc  hc  hc  c3  hc  hc  hc  hc  ss  cc  ca  ca  cd  ca  ca  ca  
ca  ss  cp  ha  ca  ca  ha  ca  ca  cp  ha  ca  ha  ha  ha  ca  ca  c3  ca  ha  
ca  ha  c3  hc  hc  ca  ha  ha  c3  hc  hc  ha  c3  hc  hc  c3  hc  hc  c3  hc  
hc  c3  hc  hc  hc  hc  c3  c3  hc  hc  hc  c3  hc  hc  hc  hc  ss  cc  ca  ca  
cd  ca  ca  ca  ca  ss  cp  ha  ca  ca  ha  ca  ca  cp  ha  ca  ha  ha  ha  ca  
ca  c3  ca  ha  ca  ha  c3  hc  hc  ca  ha  ha  c3  hc  hc  ha  c3  hc  hc  c3  
hc  hc  c3  hc  hc  c3  hc  hc  hc  hc  c3  c3  hc  hc  hc  c3  hc  hc  hc  hc  
ss  cc  ca  ca  cd  ca  ca  ca  ca  ss  cp  ha  ca  ca  ha  ca  ca  cp  ha  ca  
ha  ha  ha  ca  ca  c3  ca  ha  ca  ha  c3  hc  hc  ca  ha  ha  c3  hc  hc  ha  
c3  hc  hc  c3  hc  hc  c3  hc  hc  c3  hc  hc  hc  hc  c3  c3  hc  hc  hc  c3  
hc  hc  hc  hc  ss  cc  ca  ca  cd  ca  ca  ca  ca  ss  cp  ha  ca  ca  ha  ca  
ca  cp  ha  ca  ha  ha  ha  ca  ca  c3  ca  ha  ca  ha  c3  hc  hc  ca  ha  ha  
c3  hc  hc  ha  c3  hc  hc  c3  hc  hc  c3  hc  hc  c3  hc  hc  hc  hc  c3  c3  
hc  hc  hc  c3  hc  hc  hc  hc  ss  cc  ca  ca  cd  ca  ca  ca  ca  ss  cp  ha  
ca  ca  ha  ca  ca  cp  ha  ca  ha  ha  ha  ca  ca  c3  ca  ha  ca  ha  c3  hc  
hc  ca  ha  ha  c3  hc  hc  ha  c3  hc  hc  c3  hc  hc  c3  hc  hc  c3  hc  hc  
hc  hc  c3  c3  hc  hc  hc  c3  hc  hc  hc  hc  ss  cc  ca  ca  cd  ca  ca  ca  
ca  ss  cp  ha  ca  ca  ha  ca  ca  cp  ha  ca  ha  ha  ha  ca  ca  c3  ca  ha  
ca  ha  c3  hc  hc  ca  ha  ha  c3  hc  hc  ha  c3  hc  hc  c3  hc  hc  c3  hc  
hc  c3  hc  hc  hc  hc  c3  c3  hc  hc  hc  c3  hc  hc  hc  hc  ss  cc  ca  ca  
cd  ca  ca  ca  ca  ss  cp  ha  ca  ca  ha  ca  ca  cp  ha  ca  ha  ha  ha  ca  
ca  c3  ca  ha  ca  ha  c3  hc  hc  ca  ha  ha  c3  hc  hc  ha  c3  hc  hc  c3  
hc  hc  c3  hc  hc  c3  hc  hc  hc  hc  c3  c3  hc  hc  hc  c3  hc  hc  hc  hc  
ss  cc  ca  ca  cd  ca  ca  ca  ca  ss  cp  ha  ca  ca  ha  ca  ca  cp  ha  ca  
ha  ha  ha  ca  ca  c3  ca  ha  ca  ha  c3  hc  hc  ca  ha  ha  c3  hc  hc  ha  
c3  hc  hc  c3  hc  hc  c3  hc  hc  c3  hc  hc  hc  hc  c3  c3  hc  hc  hc  c3  
hc  hc  hc  hc  ss  cc  ca  ca  cd  ca  ca  ca  ca  ss  cp  ha  ca  ca  ha  ca  
ca  cp  ha  ca  ha  ha  ha  ca  ca  c3  ca  ha  ca  ha  c3  hc  hc  ca  ha  ha  
c3  hc  hc  ha  c3  hc  hc  c3  hc  hc  c3  hc  hc  c3  hc  hc  hc  hc  c3  c3  
hc  hc  hc  c3  hc  hc  hc  hc  ss  cc  ca  ca  cd  ca  ca  ca  ca  ss  cp  ha  
ca  ca  ha  ca  ca  cp  ha  ca  ha  ha  ha  ca  ca  c3  ca  ha  ca  ha  c3  hc  
hc  ca  ha  ha  c3  hc  hc  ha  c3  hc  hc  c3  hc  hc  c3  hc  hc  c3  hc  hc  
hc  hc  c3  c3  hc  hc  hc  c3  hc  hc  hc  hc  ss  cc  ca  ca  cd  ca  ca  ca  
ca  ss  cp  ha  ca  ca  ha  ca  ca  cp  ha  ca  ha  ha  ha  ca  ca  c3  ca  ha  
ca  ha  c3  hc  hc  ca  ha  ha  c3  hc  hc  ha  c3  hc  hc  c3  hc  hc  c3  hc  
hc  c3  hc  hc  hc  hc  c3  c3  hc  hc  hc  c3  hc  hc  hc  hc  ss  cc  ca  ca  
cd  ca  ca  ca  ca  ss  cp  ha  ca  ca  ha  ca  ca  cp  ha  ca  ha  ha  ha  ca  
ca  c3  ca  ha  ca  ha  c3  hc  hc  ca  ha  ha  c3  hc  hc  ha  c3  hc  hc  c3  
hc  hc  c3  hc  hc  c3  hc  hc  hc  hc  c3  c3  hc  hc  hc  c3  hc  hc  hc  hc  
ss  cc  ca  ca  cd  ca  ca  ca  ca  ss  cp  ha  ca  ca  ha  ca  ca  cp  ha  ca  
ha  ha  ha  ca  ca  c3  ca  ha  ca  ha  c3  hc  hc  ca  ha  ha  c3  hc  hc  ha  
c3  hc  hc  c3  hc  hc  c3  hc  hc  c3  hc  hc  hc  hc  c3  c3  hc  hc  hc  c3  
hc  hc  hc  hc  ss  cc  ca  ca  cd  ca  ca  ca  ca  ss  cp  ha  ca  ca  ha  ca  
ca  cp  ha  ca  ha  ha  ha  ca  ca  c3  ca  ha  ca  ha  c3  hc  hc  ca  ha  ha  
c3  hc  hc  ha  c3  hc  hc  c3  hc  hc  c3  hc  hc  c3  hc  hc  hc  hc  c3  c3  
hc  hc  hc  c3  hc  hc  hc  hc  ss  cc  ca  ca  cd  ca  ca  ca  ca  ss  cp  ha  
ca  ca  ha  ca  ca  cp  ha  ca  ha  ha  ha  ca  ca  c3  ca  ha  ca  ha  c3  hc  
hc  ca  ha  ha  c3  hc  hc  ha  c3  hc  hc  c3  hc  hc  c3  hc  hc  c3  hc  hc  
hc  hc  c3  c3  hc  hc  hc  c3  hc  hc  hc  hc  ss  cc  ca  ca  cd  ca  ca  ca  
ca  ss  cp  ha  ca  ca  ha  ca  ca  cp  ha  ca  ha  ha  ha  ca  ca  c3  ca  ha  
ca  ha  c3  hc  hc  ca  ha  ha  c3  hc  hc  ha  c3  hc  hc  c3  hc  hc  c3  hc  
hc  c3  hc  hc  hc  hc  c3  c3  hc  hc  hc  c3  hc  hc  hc  hc  ss  cc  ca  ca  
cd  ca  ca  ca  ca  ss  cp  ha  ca  ca  ha  ca  ca  cp  ha  ca  ha  ha  ha  ca  
ca  c3  ca  ha  ca  ha  c3  hc  hc  ca  ha  ha  c3  hc  hc  ha  c3  hc  hc  c3  
hc  hc  c3  hc  hc  c3  hc  hc  hc  hc  c3  c3  hc  hc  hc  c3  hc  hc  hc  hc  
ss  cc  ca  ca  cd  ca  ca  ca  ca  ss  cp  ha  ca  ca  ha  ca  ca  cp  ha  ca  
ha  ha  ha  ca  ca  c3  ca  ha  ca  ha  c3  hc  hc  ca  ha  ha  c3  hc  hc  ha  
c3  hc  hc  c3  hc  hc  c3  hc  hc  c3  hc  hc  hc  hc  c3  c3  hc  hc  hc  c3  
hc  hc  hc  hc  ss  cc  ca  ca  cd  ca  ca  ca  ca  ss  cp  ha  ca  ca  ha  ca  
ca  cp  ha  ca  ha  ha  ha  ca  ca  c3  ca  ha  ca  ha  c3  hc  hc  ca  ha  ha  
c3  hc  hc  ha  c3  hc  hc  c3  hc  hc  c3  hc  hc  c3  hc  hc  hc  hc  c3  c3  
hc  hc  hc  c3  hc  hc  hc  hc  ss  cc  ca  ca  cd  ca  ca  ca  ca  ss  cp  ha  
ca  ca  ha  ca  ca  cp  ha  ca  ha  ha  ha  ca  ca  c3  ca  ha  ca  ha  c3  hc  
hc  ca  ha  ha  c3  hc  hc  ha  c3  hc  hc  c3  hc  hc  c3  hc  hc  c3  hc  hc  
hc  hc  c3  c3  hc  hc  hc  c3  hc  hc  hc  hc  ss  cc  ca  ca  cd  ca  ca  ca  
ca  ss  cp  ha  ca  ca  ha  ca  ca  cp  ha  ca  ha  ha  ha  ca  ca  c3  ca  ha  
ca  ha  c3  hc  hc  ca  ha  ha  c3  hc  hc  ha  c3  hc  hc  c3  hc  hc  c3  hc  
hc  c3  hc  hc  hc  hc  c3  c3  hc  hc  hc  c3  hc  hc  hc  hc  ss  cc  ca  ca  
cd  ca  ca  ca  ca  ss  cp  ha  ca  ca  ha  ca  ca  cp  ha  ca  ha  ha  ha  ca  
ca  c3  ca  ha  ca  ha  c3  hc  hc  ca  ha  ha  c3  hc  hc  ha  c3  hc  hc  c3  
hc  hc  c3  hc  hc  c3  hc  hc  hc  hc  c3  c3  hc  hc  hc  c3  hc  hc  hc  hc  
ss  cc  ca  ca  cd  ca  ca  ca  ca  ss  cp  ha  ca  ca  ha  ca  ca  cp  ha  ca  
ha  ha  ha  ca  ca  c3  ca  ha  ca  ha  c3  hc  hc  ca  ha  ha  c3  hc  hc  ha  
c3  hc  hc  c3  hc  hc  c3  hc  hc  c3  hc  hc  hc  hc  c3  c3  hc  hc  hc  c3  
hc  hc  hc  hc  ss  cc  ca  ca  cd  ca  ca  ca  ca  ss  cp  ha  ca  ca  ha  ca  
ca  cp  ha  ca  ha  ha  ha  ca  ca  c3  ca  ha  ca  ha  c3  hc  hc  ca  ha  ha  
c3  hc  hc  ha  c3  hc  hc  c3  hc  hc  c3  hc  hc  c3  hc  hc  hc  hc  c3  c3  
hc  hc  hc  c3  hc  hc  hc  hc  ss  cc  ca  ca  cd  ca  ca  ca  ca  ss  cp  ha  
ca  ca  ha  ca  ca  cp  ha  ca  ha  ha  ha  ca  ca  c3  ca  ha  ca  ha  c3  hc  
hc  ca  ha  ha  c3  hc  hc  ha  c3  hc  hc  c3  hc  hc  c3  hc  hc  c3  hc  hc  
hc  hc  c3  c3  hc  hc  hc  c3  hc  hc  hc  hc  ss  cc  ca  ca  cd  ca  ca  ca  
ca  ss  cp  ha  ca  ca  ha  ca  ca  cp  ha  ca  ha  ha  ha  ca  ca  c3  ca  ha  
ca  ha  c3  hc  hc  ca  ha  ha  c3  hc  hc  ha  c3  hc  hc  c3  hc  hc  c3  hc  
hc  c3  hc  hc  hc  hc  c3  c3  hc  hc  hc  c3  hc  hc  hc  hc  ss  cc  ca  ca  
cd  ca  ca  ca  ca  ss  cp  ha  ca  ca  ha  ca  ca  cp  ha  ca  ha  ha  ha  ca  
ca  c3  ca  ha  ca  ha  c3  hc  hc  ca  ha  ha  c3  hc  hc  ha  c3  hc  hc  c3  
hc  hc  c3  hc  hc  c3  hc  hc  hc  hc  c3  c3  hc  hc  hc  c3  hc  hc  hc  hc  
ss  cc  ca  ca  cd  ca  ca  ca  ca  ss  cp  ha  ca  ca  ha  ca  ca  cp  ha  ca  
ha  ha  ha  ca  ca  c3  ca  ha  ca  ha  c3  hc  hc  ca  ha  ha  c3  hc  hc  ha  
c3  hc  hc  c3  hc  hc  c3  hc  hc  c3  hc  hc  hc  hc  c3  c3  hc  hc  hc  c3  
hc  hc  hc  hc  ss  cc  ca  ca  cd  ca  ca  ca  ca  ss  cp  ha  ca  ca  ha  ca  
ca  cp  ha  ca  ha  ha  ha  ca  ca  c3  ca  ha  ca  ha  c3  hc  hc  ca  ha  ha  
c3  hc  hc  ha  c3  hc  hc  c3  hc  hc  c3  hc  hc  c3  hc  hc  hc  hc  c3  c3  
hc  hc  hc  c3  hc  hc  hc  hc  ss  cc  ca  ca  cd  ca  ca  ca  ca  ss  cp  ha  
ca  ca  ha  ca  ca  cp  ha  ca  ha  ha  ha  ca  ca  c3  ca  ha  ca  ha  c3  hc  
hc  ca  ha  ha  c3  hc  hc  ha  c3  hc  hc  c3  hc  hc  c3  hc  hc  c3  hc  hc  
hc  hc  c3  c3  hc  hc  hc  c3  hc  hc  hc  hc  ss  cc  ca  ca  cd  ca  ca  ca  
ca  ss  cp  ha  ca  ca  ha  ca  ca  cp  ha  ca  ha  ha  ha  ca  ca  c3  ca  ha  
ca  ha  c3  hc  hc  ca  ha  ha  c3  hc  hc  ha  c3  hc  hc  c3  hc  hc  c3  hc  
hc  c3  hc  hc  hc  hc  c3  c3  hc  hc  hc  c3  hc  hc  hc  hc  ss  cc  ca  ca  
cd  ca  ca  ca  ca  ss  cp  ha  ca  ca  ha  ca  ca  cp  ha  ca  ha  ha  ha  ca  
ca  c3  ca  ha  ca  ha  c3  hc  hc  ca  ha  ha  c3  hc  hc  ha  c3  hc  hc  c3  
hc  hc  c3  hc  hc  c3  hc  hc  hc  hc  c3  c3  hc  hc  hc  c3  hc  hc  hc  hc  
ss  cc  ca  ca  cd  ca  ca  ca  ca  ss  cp  ha  ca  ca  ha  ca  ca  cp  ha  ca  
ha  ha  ha  ca  ca  c3  ca  ha  ca  ha  c3  hc  hc  ca  ha  ha  c3  hc  hc  ha  
c3  hc  hc  c3  hc  hc  c3  hc  hc  c3  hc  hc  hc  hc  c3  c3  hc  hc  hc  c3  
hc  hc  hc  hc  ss  cc  ca  ca  cd  ca  ca  ca  ca  ss  cp  ha  ca  ca  ha  ca  
ca  cp  ha  ca  ha  ha  ha  ca  ca  c3  ca  ha  ca  ha  c3  hc  hc  ca  ha  ha  
c3  hc  hc  ha  c3  hc  hc  c3  hc  hc  c3  hc  hc  c3  hc  hc  hc  hc  c3  c3  
hc  hc  hc  c3  hc  hc  hc  hc  ss  cc  ca  ca  cd  ca  ca  ca  ca  ss  cp  ha  
ca  ca  ha  ca  ca  cp  ha  ca  ha  ha  ha  ca  ca  c3  ca  ha  ca  ha  c3  hc  
hc  ca  ha  ha  c3  hc  hc  ha  c3  hc  hc  c3  hc  hc  c3  hc  hc  c3  hc  hc  
hc  hc  c3  c3  hc  hc  hc  c3  hc  hc  hc  hc  ss  cc  ca  ca  cd  ca  ca  ca  
ca  ss  cp  ha  ca  ca  ha  ca  ca  cp  ha  ca  ha  ha  ha  ca  ca  c3  ca  ha  
ca  ha  c3  hc  hc  ca  ha  ha  c3  hc  hc  ha  c3  hc  hc  c3  hc  hc  c3  hc  
hc  c3  hc  hc  hc  hc  c3  c3  hc  hc  hc  c3  hc  hc  hc  hc  ss  cc  ca  ca  
cd  ca  ca  ca  ca  ss  cp  ha  ca  ca  ha  ca  ca  cp  ha  ca  ha  ha  ha  ca  
ca  c3  ca  ha  ca  ha  c3  hc  hc  ca  ha  ha  c3  hc  hc  ha  c3  hc  hc  c3  
hc  hc  c3  hc  hc  c3  hc  hc  hc  hc  c3  c3  hc  hc  hc  c3  hc  hc  hc  hc  
ss  cc  ca  ca  cd  ca  ca  ca  ca  ss  cp  ha  ca  ca  ha  ca  ca  cp  ha  ca  
ha  ha  ha  ca  ca  c3  ca  ha  ca  ha  c3  hc  hc  ca  ha  ha  c3  hc  hc  ha  
c3  hc  hc  c3  hc  hc  c3  hc  hc  c3  hc  hc  hc  hc  c3  c3  hc  hc  hc  c3  
hc  hc  hc  hc  ss  cc  ca  ca  cd  ca  ca  ca  ca  ss  cp  ha  ca  ca  ha  ca  
ca  cp  ha  ca  ha  ha  ha  ca  ca  c3  ca  ha  ca  ha  c3  hc  hc  ca  ha  ha  
c3  hc  hc  ha  c3  hc  hc  c3  hc  hc  c3  hc  hc  c3  hc  hc  hc  hc  c3  c3  
hc  hc  hc  c3  hc  hc  hc  hc  ss  cc  ca  ca  cd  ca  ca  ca  ca  ss  cp  ha  
ca  ca  ha  ca  ca  cp  ha  ca  ha  ha  ha  ca  ca  c3  ca  ha  ca  ha  c3  hc  
hc  ca  ha  ha  c3  hc  hc  ha  c3  hc  hc  c3  hc  hc  c3  hc  hc  c3  hc  hc  
hc  hc  c3  c3  hc  hc  hc  c3  hc  hc  hc  hc  ss  cc  ca  ca  cd  ca  ca  ca  
ca  ss  cp  ha  ca  ca  ha  ca  ca  cp  ha  ca  ha  ha  ha  ca  ca  c3  ca  ha  
ca  ha  c3  hc  hc  ca  ha  ha  c3  hc  hc  ha  c3  hc  hc  c3  hc  hc  c3  hc  
hc  c3  hc  hc  hc  hc  c3  c3  hc  hc  hc  c3  hc  hc  hc  hc  ss  cc  ca  ca  
cd  ca  ca  ca  ca  ss  cp  ha  ca  ca  ha  ca  ca  cp  ha  ca  ha  ha  ha  ca  
ca  c3  ca  ha  ca  ha  c3  hc  hc  ca  ha  ha  c3  hc  hc  ha  c3  hc  hc  c3  
hc  hc  c3  hc  hc  c3  hc  hc  hc  hc  c3  c3  hc  hc  hc  c3  hc  hc  hc  hc  
ss  cc  ca  ca  cd  ca  ca  ca  ca  ss  cp  ha  ca  ca  ha  ca  ca  cp  ha  ca  
ha  ha  ha  ca  ca  c3  ca  ha  ca  ha  c3  hc  hc  ca  ha  ha  c3  hc  hc  ha  
c3  hc  hc  c3  hc  hc  c3  hc  hc  c3  hc  hc  hc  hc  c3  c3  hc  hc  hc  c3  
hc  hc  hc  hc  ss  cc  ca  ca  cd  ca  ca  ca  ca  ss  cp  ha  ca  ca  ha  ca  
ca  cp  ha  ca  ha  ha  ha  ca  ca  c3  ca  ha  ca  ha  c3  hc  hc  ca  ha  ha  
c3  hc  hc  ha  c3  hc  hc  c3  hc  hc  c3  hc  hc  c3  hc  hc  hc  hc  c3  c3  
hc  hc  hc  c3  hc  hc  hc  hc  ss  cc  ca  ca  cd  ca  ca  ca  ca  ss  cp  ha  
ca  ca  ha  ca  ca  cp  ha  ca  ha  ha  ha  ca  ca  c3  ca  ha  ca  ha  c3  hc  
hc  ca  ha  ha  c3  hc  hc  ha  c3  hc  hc  c3  hc  hc  c3  hc  hc  c3  hc  hc  
hc  hc  c3  c3  hc  hc  hc  c3  hc  hc  hc  hc  ss  cc  ca  ca  cd  ca  ca  ca  
ca  ss  cp  ha  ca  ca  ha  ca  ca  cp  ha  ca  ha  ha  ha  ca  ca  c3  ca  ha  
ca  ha  c3  hc  hc  ca  ha  ha  c3  hc  hc  ha  c3  hc  hc  c3  hc  hc  c3  hc  
hc  c3  hc  hc  hc  hc  c3  c3  hc  hc  hc  c3  hc  hc  hc  hc  ss  cc  ca  ca  
cd  ca  ca  ca  ca  ss  cp  ha  ca  ca  ha  ca  ca  cp  ha  ca  ha  ha  ha  ca  
ca  c3  ca  ha  ca  ha  c3  hc  hc  ca  ha  ha  c3  hc  hc  ha  c3  hc  hc  c3  
hc  hc  c3  hc  hc  c3  hc  hc  hc  hc  c3  c3  hc  hc  hc  c3  hc  hc  hc  hc  
ss  cc  ca  ca  cd  ca  ca  ca  ca  ss  cp  ha  ca  ca  ha  ca  ca  cp  ha  ca  
ha  ha  ha  ca  ca  c3  ca  ha  ca  ha  c3  hc  hc  ca  ha  ha  c3  hc  hc  ha  
c3  hc  hc  c3  hc  hc  c3  hc  hc  c3  hc  hc  hc  hc  c3  c3  hc  hc  hc  c3  
hc  hc  hc  hc  ss  cc  ca  ca  cd  ca  ca  ca  ca  ss  cp  ha  ca  ca  ha  ca  
ca  cp  ha  ca  ha  ha  ha  ca  ca  c3  ca  ha  ca  ha  c3  hc  hc  ca  ha  ha  
c3  hc  hc  ha  c3  hc  hc  c3  hc  hc  c3  hc  hc  c3  hc  hc  hc  hc  c3  c3  
hc  hc  hc  c3  hc  hc  hc  hc  ss  cc  ca  ca  cd  ca  ca  ca  ca  ss  cp  ha  
ca  ca  ha  ca  ca  cp  ha  ca  ha  ha  ha  ca  ca  c3  ca  ha  ca  ha  c3  hc  
hc  ca  ha  ha  c3  hc  hc  ha  c3  hc  hc  c3  hc  hc  c3  hc  hc  c3  hc  hc  
hc  hc  c3  c3  hc  hc  hc  c3  hc  hc  hc  hc  ss  cc  ca  ca  cd  ca  ca  ca  
ca  ss  cp  ha  ca  ca  ha  ca  ca  cp  ha  ca  ha  ha  ha  ca  ca  c3  ca  ha  
ca  ha  c3  hc  hc  ca  ha  ha  c3  hc  hc  ha  c3  hc  hc  c3  hc  hc  c3  hc  
hc  c3  hc  hc  hc  hc  c3  c3  hc  hc  hc  c3  hc  hc  hc  hc  ss  cc  ca  ca  
cd  ca  ca  ca  ca  ss  cp  ha  ca  ca  ha  ca  ca  cp  ha  ca  ha  ha  ha  ca  
ca  c3  ca  ha  ca  ha  c3  hc  hc  ca  ha  ha  c3  hc  hc  ha  c3  hc  hc  c3  
hc  hc  c3  hc  hc  c3  hc  hc  hc  hc  c3  c3  hc  hc  hc  c3  hc  hc  hc  hc  
ss  cc  ca  ca  cd  ca  ca  ca  ca  ss  cp  ha  ca  ca  ha  ca  ca  cp  ha  ca  
ha  ha  ha  ca  ca  c3  ca  ha  ca  ha  c3  hc  hc  ca  ha  ha  c3  hc  hc  ha  
c3  hc  hc  c3  hc  hc  c3  hc  hc  c3  hc  hc  hc  hc  c3  c3  hc  hc  hc  c3  
hc  hc  hc  hc  ss  cc  ca  ca  cd  ca  ca  ca  ca  ss  cp  ha  ca  ca  ha  ca  
ca  cp  ha  ca  ha  ha  ha  ca  ca  c3  ca  ha  ca  ha  c3  hc  hc  ca  ha  ha  
c3  hc  hc  ha  c3  hc  hc  c3  hc  hc  c3  hc  hc  c3  hc  hc  hc  hc  c3  c3  
hc  hc  hc  c3  hc  hc  hc  hc  ss  cc  ca  ca  cd  ca  ca  ca  ca  ss  cp  ha  
ca  ca  ha  ca  ca  cp  ha  ca  ha  ha  ha  ca  ca  c3  ca  ha  ca  ha  c3  hc  
hc  ca  ha  ha  c3  hc  hc  ha  c3  hc  hc  c3  hc  hc  c3  hc  hc  c3  hc  hc  
hc  hc  c3  c3  hc  hc  hc  c3  hc  hc  hc  hc  ss  cc  ca  ca  cd  ca  ca  ca  
ca  ss  cp  ha  ca  ca  ha  ca  ca  cp  ha  ca  ha  ha  ha  ca  ca  c3  ca  ha  
ca  ha  c3  hc  hc  ca  ha  ha  c3  hc  hc  ha  c3  hc  hc  c3  hc  hc  c3  hc  
hc  c3  hc  hc  hc  hc  c3  c3  hc  hc  hc  c3  hc  hc  hc  hc  ss  cc  ca  ca  
cd  ca  ca  ca  ca  ss  cp  ha  ca  ca  ha  ca  ca  cp  ha  ca  ha  ha  ha  ca  
ca  c3  ca  ha  ca  ha  c3  hc  hc  ca  ha  ha  c3  hc  hc  ha  c3  hc  hc  c3  
hc  hc  c3  hc  hc  c3  hc  hc  hc  hc  c3  c3  hc  hc  hc  c3  hc  hc  hc  hc  
ss  cc  ca  ca  cd  ca  ca  ca  ca  ss  cp  ha  ca  ca  ha  ca  ca  cp  ha  ca  
ha  ha  ha  ca  ca  c3  ca  ha  ca  ha  c3  hc  hc  ca  ha  ha  c3  hc  hc  ha  
c3  hc  hc  c3  hc  hc  c3  hc  hc  c3  hc  hc  hc  hc  c3  c3  hc  hc  hc  c3  
hc  hc  hc  hc  ss  cc  ca  ca  cd  ca  ca  ca  ca  ss  cp  ha  ca  ca  ha  ca  
ca  cp  ha  ca  ha  ha  ha  ca  ca  c3  ca  ha  ca  ha  c3  hc  hc  ca  ha  ha  
c3  hc  hc  ha  c3  hc  hc  c3  hc  hc  c3  hc  hc  c3  hc  hc  hc  hc  c3  c3  
hc  hc  hc  c3  hc  hc  hc  hc  ss  cc  ca  ca  cd  ca  ca  ca  ca  ss  cp  ha  
ca  ca  ha  ca  ca  cp  ha  ca  ha  ha  ha  ca  ca  c3  ca  ha  ca  ha  c3  hc  
hc  ca  ha  ha  c3  hc  hc  ha  c3  hc  hc  c3  hc  hc  c3  hc  hc  c3  hc  hc  
hc  hc  c3  c3  hc  hc  hc  c3  hc  hc  hc  hc  ss  cc  ca  ca  cd  ca  ca  ca  
ca  ss  cp  ha  ca  ca  ha  ca  ca  cp  ha  ca  ha  ha  ha  ca  ca  c3  ca  ha  
ca  ha  c3  hc  hc  ca  ha  ha  c3  hc  hc  ha  c3  hc  hc  c3  hc  hc  c3  hc  
hc  c3  hc  hc  hc  hc  c3  c3  hc  hc  hc  c3  hc  hc  hc  hc  ss  cc  ca  ca  
cd  ca  ca  ca  ca  ss  cp  ha  ca  ca  ha  ca  ca  cp  ha  ca  ha  ha  ha  ca  
ca  c3  ca  ha  ca  ha  c3  hc  hc  ca  ha  ha  c3  hc  hc  ha  c3  hc  hc  c3  
hc  hc  c3  hc  hc  c3  hc  hc  hc  hc  c3  c3  hc  hc  hc  c3  hc  hc  hc  hc  
ss  cc  ca  ca  cd  ca  ca  ca  ca  ss  cp  ha  ca  ca  ha  ca  ca  cp  ha  ca  
ha  ha  ha  ca  ca  c3  ca  ha  ca  ha  c3  hc  hc  ca  ha  ha  c3  hc  hc  ha  
c3  hc  hc  c3  hc  hc  c3  hc  hc  c3  hc  hc  hc  hc  c3  c3  hc  hc  hc  c3  
hc  hc  hc  hc  ss  cc  ca  ca  cd  ca  ca  ca  ca  ss  cp  ha  ca  ca  ha  ca  
ca  cp  ha  ca  ha  ha  ha  ca  ca  c3  ca  ha  ca  ha  c3  hc  hc  ca  ha  ha  
c3  hc  hc  ha  c3  hc  hc  c3  hc  hc  c3  hc  hc  c3  hc  hc  hc  hc  c3  c3  
hc  hc  hc  c3  hc  hc  hc  hc  ss  cc  ca  ca  cd  ca  ca  ca  ca  ss  cp  ha  
ca  ca  ha  ca  ca  cp  ha  ca  ha  ha  ha  ca  ca  c3  ca  ha  ca  ha  c3  hc  
hc  ca  ha  ha  c3  hc  hc  ha  c3  hc  hc  c3  hc  hc  c3  hc  hc  c3  hc  hc  
hc  hc  c3  c3  hc  hc  hc  c3  hc  hc  hc  hc  ss  cc  ca  ca  cd  ca  ca  ca  
ca  ss  cp  ha  ca  ca  ha  ca  ca  cp  ha  ca  ha  ha  ha  ca  ca  c3  ca  ha  
ca  ha  c3  hc  hc  ca  ha  ha  c3  hc  hc  ha  c3  hc  hc  c3  hc  hc  c3  hc  
hc  c3  hc  hc  hc  hc  c3  c3  hc  hc  hc  c3  hc  hc  hc  hc  ss  cc  ca  ca  
cd  ca  ca  ca  ca  ss  cp  ha  ca  ca  ha  ca  ca  cp  ha  ca  ha  ha  ha  ca  
ca  c3  ca  ha  ca  ha  c3  hc  hc  ca  ha  ha  c3  hc  hc  ha  c3  hc  hc  c3  
hc  hc  c3  hc  hc  c3  hc  hc  hc  hc  c3  c3  hc  hc  hc  c3  hc  hc  hc  hc  
ss  cc  ca  ca  cd  ca  ca  ca  ca  ss  cp  ha  ca  ca  ha  ca  ca  cp  ha  ca  
ha  ha  ha  ca  ca  c3  ca  ha  ca  ha  c3  hc  hc  ca  ha  ha  c3  hc  hc  ha  
c3  hc  hc  c3  hc  hc  c3  hc  hc  c3  hc  hc  hc  hc  c3  c3  hc  hc  hc  c3  
hc  hc  hc  hc  ss  cc  ca  ca  cd  ca  ca  ca  ca  ss  cp  ha  ca  ca  ha  ca  
ca  cp  ha  ca  ha  ha  ha  ca  ca  c3  ca  ha  ca  ha  c3  hc  hc  ca  ha  ha  
c3  hc  hc  ha  c3  hc  hc  c3  hc  hc  c3  hc  hc  c3  hc  hc  hc  hc  c3  c3  
hc  hc  hc  c3  hc  hc  hc  hc  ss  cc  ca  ca  cd  ca  ca  ca  ca  ss  cp  ha  
ca  ca  ha  ca  ca  cp  ha  ca  ha  ha  ha  ca  ca  c3  ca  ha  ca  ha  c3  hc  
hc  ca  ha  ha  c3  hc  hc  ha  c3  hc  hc  c3  hc  hc  c3  hc  hc  c3  hc  hc  
hc  hc  c3  c3  hc  hc  hc  c3  hc  hc  hc  hc  ss  cc  ca  ca  cd  ca  ca  ca  
ca  ss  cp  ha  ca  ca  ha  ca  ca  cp  ha  ca  ha  ha  ha  ca  ca  c3  ca  ha  
ca  ha  c3  hc  hc  ca  ha  ha  c3  hc  hc  ha  c3  hc  hc  c3  hc  hc  c3  hc  
hc  c3  hc  hc  hc  hc  c3  c3  hc  hc  hc  c3  hc  hc  hc  hc  ss  cc  ca  ca  
cd  ca  ca  ca  ca  ss  cp  ha  ca  ca  ha  ca  ca  cp  ha  ca  ha  ha  ha  ca  
ca  c3  ca  ha  ca  ha  c3  hc  hc  ca  ha  ha  c3  hc  hc  ha  c3  hc  hc  c3  
hc  hc  c3  hc  hc  c3  hc  hc  hc  hc  c3  c3  hc  hc  hc  c3  hc  hc  hc  hc  
ss  cc  ca  ca  cd  ca  ca  ca  ca  ss  cp  ha  ca  ca  ha  ca  ca  cp  ha  ca  
ha  ha  ha  ca  ca  c3  ca  ha  ca  ha  c3  hc  hc  ca  ha  ha  c3  hc  hc  ha  
c3  hc  hc  c3  hc  hc  c3  hc  hc  c3  hc  hc  hc  hc  c3  c3  hc  hc  hc  c3  
hc  hc  hc  hc  ss  cc  ca  ca  cd  ca  ca  ca  ca  ss  cp  ha  ca  ca  ha  ca  
ca  cp  ha  ca  ha  ha  ha  ca  ca  c3  ca  ha  ca  ha  c3  hc  hc  ca  ha  ha  
c3  hc  hc  ha  c3  hc  hc  c3  hc  hc  c3  hc  hc  c3  hc  hc  hc  hc  c3  c3  
hc  hc  hc  c3  hc  hc  hc  hc  ss  cc  ca  ca  cd  ca  ca  ca  ca  ss  cp  ha  
ca  ca  ha  ca  ca  cp  ha  ca  ha  ha  ha  ca  ca  c3  ca  ha  ca  ha  c3  hc  
hc  ca  ha  ha  c3  hc  hc  ha  c3  hc  hc  c3  hc  hc  c3  hc  hc  c3  hc  hc  
hc  hc  c3  c3  hc  hc  hc  c3  hc  hc  hc  hc  ss  cc  ca  ca  cd  ca  ca  ca  
ca  ss  cp  ha  ca  ca  ha  ca  ca  cp  ha  ca  ha  ha  ha  ca  ca  c3  ca  ha  
ca  ha  c3  hc  hc  ca  ha  ha  c3  hc  hc  ha  c3  hc  hc  c3  hc  hc  c3  hc  
hc  c3  hc  hc  hc  hc  c3  c3  hc  hc  hc  c3  hc  hc  hc  hc  ss  cc  ca  ca  
cd  ca  ca  ca  ca  ss  cp  ha  ca  ca  ha  ca  ca  cp  ha  ca  ha  ha  ha  ca  
ca  c3  ca  ha  ca  ha  c3  hc  hc  ca  ha  ha  c3  hc  hc  ha  c3  hc  hc  c3  
hc  hc  c3  hc  hc  c3  hc  hc  hc  hc  c3  c3  hc  hc  hc  c3  hc  hc  hc  hc  
ss  cc  ca  ca  cd  ca  ca  ca  ca  ss  cp  ha  ca  ca  ha  ca  ca  cp  ha  ca  
ha  ha  ha  ca  ca  c3  ca  ha  ca  ha  c3  hc  hc  ca  ha  ha  c3  hc  hc  ha  
c3  hc  hc  c3  hc  hc  c3  hc  hc  c3  hc  hc  hc  hc  c3  c3  hc  hc  hc  c3  
hc  hc  hc  hc  ss  cc  ca  ca  cd  ca  ca  ca  ca  ss  cp  ha  ca  ca  ha  ca  
ca  cp  ha  ca  ha  ha  ha  ca  ca  c3  ca  ha  ca  ha  c3  hc  hc  ca  ha  ha  
c3  hc  hc  ha  c3  hc  hc  c3  hc  hc  c3  hc  hc  c3  hc  hc  hc  hc  c3  c3  
hc  hc  hc  c3  hc  hc  hc  hc  ss  cc  ca  ca  cd  ca  ca  ca  ca  ss  cp  ha  
ca  ca  ha  ca  ca  cp  ha  ca  ha  ha  ha  ca  ca  c3  ca  ha  ca  ha  c3  hc  
hc  ca  ha  ha  c3  hc  hc  ha  c3  hc  hc  c3  hc  hc  c3  hc  hc  c3  hc  hc  
hc  hc  c3  c3  hc  hc  hc  c3  hc  hc  hc  hc  ss  cc  ca  ca  cd  ca  ca  ca  
ca  ss  cp  ha  ca  ca  ha  ca  ca  cp  ha  ca  ha  ha  ha  ca  ca  c3  ca  ha  
ca  ha  c3  hc  hc  ca  ha  ha  c3  hc  hc  ha  c3  hc  hc  c3  hc  hc  c3  hc  
hc  c3  hc  hc  hc  hc  c3  c3  hc  hc  hc  c3  hc  hc  hc  hc  ss  cc  ca  ca  
cd  ca  ca  ca  ca  ss  cp  ha  ca  ca  ha  ca  ca  cp  ha  ca  ha  ha  ha  ca  
ca  c3  ca  ha  ca  ha  c3  hc  hc  ca  ha  ha  c3  hc  hc  ha  c3  hc  hc  c3  
hc  hc  c3  hc  hc  c3  hc  hc  hc  hc  c3  c3  hc  hc  hc  c3  hc  hc  hc  hc  
ss  cc  ca  ca  cd  ca  ca  ca  ca  ss  cp  ha  ca  ca  ha  ca  ca  cp  ha  ca  
ha  ha  ha  ca  ca  c3  ca  ha  ca  ha  c3  hc  hc  ca  ha  ha  c3  hc  hc  ha  
c3  hc  hc  c3  hc  hc  c3  hc  hc  c3  hc  hc  hc  hc  c3  c3  hc  hc  hc  c3  
hc  hc  hc  hc  ss  cc  ca  ca  cd  ca  ca  ca  ca  ss  cp  ha  ca  ca  ha  ca  
ca  cp  ha  ca  ha  ha  ha  ca  ca  c3  ca  ha  ca  ha  c3  hc  hc  ca  ha  ha  
c3  hc  hc  ha  c3  hc  hc  c3  hc  hc  c3  hc  hc  c3  hc  hc  hc  hc  c3  c3  
hc  hc  hc  c3  hc  hc  hc  hc  ss  cc  ca  ca  cd  ca  ca  ca  ca  ss  cp  ha  
ca  ca  ha  ca  ca  cp  ha  ca  ha  ha  ha  ca  ca  c3  ca  ha  ca  ha  c3  hc  
hc  ca  ha  ha  c3  hc  hc  ha  c3  hc  hc  c3  hc  hc  c3  hc  hc  c3  hc  hc  
hc  hc  c3  c3  hc  hc  hc  c3  hc  hc  hc  hc  ss  cc  ca  ca  cd  ca  ca  ca  
ca  ss  cp  ha  ca  ca  ha  ca  ca  cp  ha  ca  ha  ha  ha  ca  ca  c3  ca  ha  
ca  ha  c3  hc  hc  ca  ha  ha  c3  hc  hc  ha  c3  hc  hc  c3  hc  hc  c3  hc  
hc  c3  hc  hc  hc  hc  c3  c3  hc  hc  hc  c3  hc  hc  hc  hc  ss  cc  ca  ca  
cd  ca  ca  ca  ca  ss  cp  ha  ca  ca  ha  ca  ca  cp  ha  ca  ha  ha  ha  ca  
ca  c3  ca  ha  ca  ha  c3  hc  hc  ca  ha  ha  c3  hc  hc  ha  c3  hc  hc  c3  
hc  hc  c3  hc  hc  c3  hc  hc  hc  hc  c3  c3  hc  hc  hc  c3  hc  hc  hc  hc  
ss  cc  ca  ca  cd  ca  ca  ca  ca  ss  cp  ha  ca  ca  ha  ca  ca  cp  ha  ca  
ha  ha  ha  ca  ca  c3  ca  ha  ca  ha  c3  hc  hc  ca  ha  ha  c3  hc  hc  ha  
c3  hc  hc  c3  hc  hc  c3  hc  hc  c3  hc  hc  hc  hc  c3  c3  hc  hc  hc  c3  
hc  hc  hc  hc  ss  cc  ca  ca  cd  ca  ca  ca  ca  ss  cp  ha  ca  ca  ha  ca  
ca  cp  ha  ca  ha  ha  ha  ca  ca  c3  ca  ha  ca  ha  c3  hc  hc  ca  ha  ha  
c3  hc  hc  ha  c3  hc  hc  c3  hc  hc  c3  hc  hc  c3  hc  hc  hc  hc  c3  c3  
hc  hc  hc  c3  hc  hc  hc  hc  ss  cc  ca  ca  cd  ca  ca  ca  ca  ss  cp  ha  
ca  ca  ha  ca  ca  cp  ha  ca  ha  ha  ha  ca  ca  c3  ca  ha  ca  ha  c3  hc  
hc  ca  ha  ha  c3  hc  hc  ha  c3  hc  hc  c3  hc  hc  c3  hc  hc  c3  hc  hc  
hc  hc  c3  c3  hc  hc  hc  c3  hc  hc  hc  hc  ss  cc  ca  ca  cd  ca  ca  ca  
ca  ss  cp  ha  ca  ca  ha  ca  ca  cp  ha  ca  ha  ha  ha  ca  ca  c3  ca  ha  
ca  ha  c3  hc  hc  ca  ha  ha  c3  hc  hc  ha  c3  hc  hc  c3  hc  hc  c3  hc  
hc  c3  hc  hc  hc  hc  c3  c3  hc  hc  hc  c3  hc  hc  hc  hc  ss  cc  ca  ca  
cd  ca  ca  ca  ca  ss  cp  ha  ca  ca  ha  ca  ca  cp  ha  ca  ha  ha  ha  ca  
ca  c3  ca  ha  ca  ha  c3  hc  hc  ca  ha  ha  c3  hc  hc  ha  c3  hc  hc  c3  
hc  hc  c3  hc  hc  c3  hc  hc  hc  hc  c3  c3  hc  hc  hc  c3  hc  hc  hc  hc  
ss  cc  ca  ca  cd  ca  ca  ca  ca  ss  cp  ha  ca  ca  ha  ca  ca  cp  ha  ca  
ha  ha  ha  ca  ca  c3  ca  ha  ca  ha  c3  hc  hc  ca  ha  ha  c3  hc  hc  ha  
c3  hc  hc  c3  hc  hc  c3  hc  hc  c3  hc  hc  hc  hc  c3  c3  hc  hc  hc  c3  
hc  hc  hc  hc  ss  cc  ca  ca  cd  ca  ca  ca  ca  ss  cp  ha  ca  ca  ha  ca  
ca  cp  ha  ca  ha  ha  ha  ca  ca  c3  ca  ha  ca  ha  c3  hc  hc  ca  ha  ha  
c3  hc  hc  ha  c3  hc  hc  c3  hc  hc  c3  hc  hc  c3  hc  hc  hc  hc  c3  c3  
hc  hc  hc  c3  hc  hc  hc  hc  ss  cc  ca  ca  cd  ca  ca  ca  ca  ss  cp  ha  
ca  ca  ha  ca  ca  cp  ha  ca  ha  ha  ha  ca  ca  c3  ca  ha  ca  ha  c3  hc  
hc  ca  ha  ha  c3  hc  hc  ha  c3  hc  hc  c3  hc  hc  c3  hc  hc  c3  hc  hc  
hc  hc  c3  c3  hc  hc  hc  c3  hc  hc  hc  hc  ss  cc  ca  ca  cd  ca  ca  ca  
ca  ss  cp  ha  ca  ca  ha  ca  ca  cp  ha  ca  ha  ha  ha  ca  ca  c3  ca  ha  
ca  ha  c3  hc  hc  ca  ha  ha  c3  hc  hc  ha  c3  hc  hc  c3  hc  hc  c3  hc  
hc  c3  hc  hc  hc  hc  c3  c3  hc  hc  hc  c3  hc  hc  hc  hc  ss  cc  ca  ca  
cd  ca  ca  ca  ca  ss  cp  ha  ca  ca  ha  ca  ca  cp  ha  ca  ha  ha  ha  ca  
ca  c3  ca  ha  ca  ha  c3  hc  hc  ca  ha  ha  c3  hc  hc  ha  c3  hc  hc  c3  
hc  hc  c3  hc  hc  c3  hc  hc  hc  hc  c3  c3  hc  hc  hc  c3  hc  hc  hc  hc  
ss  cc  ca  ca  cd  ca  ca  ca  ca  ss  cp  ha  ca  ca  ha  ca  ca  cp  ha  ca  
ha  ha  ha  ca  ca  c3  ca  ha  ca  ha  c3  hc  hc  ca  ha  ha  c3  hc  hc  ha  
c3  hc  hc  c3  hc  hc  c3  hc  hc  c3  hc  hc  hc  hc  c3  c3  hc  hc  hc  c3  
hc  hc  hc  hc  ss  cc  ca  ca  cd  ca  ca  ca  ca  ss  cp  ha  ca  ca  ha  ca  
ca  cp  ha  ca  ha  ha  ha  ca  ca  c3  ca  ha  ca  ha  c3  hc  hc  ca  ha  ha  
c3  hc  hc  ha  c3  hc  hc  c3  hc  hc  c3  hc  hc  c3  hc  hc  hc  hc  c3  c3  
hc  hc  hc  c3  hc  hc  hc  hc  ss  cc  ca  ca  cd  ca  ca  ca  ca  ss  cp  ha  
ca  ca  ha  ca  ca  cp  ha  ca  ha  ha  ha  ca  ca  c3  ca  ha  ca  ha  c3  hc  
hc  ca  ha  ha  c3  hc  hc  ha  c3  hc  hc  c3  hc  hc  c3  hc  hc  c3  hc  hc  
hc  hc  c3  c3  hc  hc  hc  c3  hc  hc  hc  hc  ss  cc  ca  ca  cd  ca  ca  ca  
ca  ss  cp  ha  ca  ca  ha  ca  ca  cp  ha  ca  ha  ha  ha  ca  ca  c3  ca  ha  
ca  ha  c3  hc  hc  ca  ha  ha  c3  hc  hc  ha  c3  hc  hc  c3  hc  hc  c3  hc  
hc  c3  hc  hc  hc  hc  c3  c3  hc  hc  hc  c3  hc  hc  hc  hc  ss  cc  ca  ca  
cd  ca  ca  ca  ca  ss  cp  ha  ca  ca  ha  ca  ca  cp  ha  ca  ha  ha  ha  ca  
ca  c3  ca  ha  ca  ha  c3  hc  hc  ca  ha  ha  c3  hc  hc  ha  c3  hc  hc  c3  
hc  hc  c3  hc  hc  c3  hc  hc  hc  hc  c3  c3  hc  hc  hc  c3  hc  hc  hc  hc  
ss  cc  ca  ca  cd  ca  ca  ca  ca  ss  cp  ha  ca  ca  ha  ca  ca  cp  ha  ca  
ha  ha  ha  ca  ca  c3  ca  ha  ca  ha  c3  hc  hc  ca  ha  ha  c3  hc  hc  ha  
c3  hc  hc  c3  hc  hc  c3  hc  hc  c3  hc  hc  hc  hc  c3  c3  hc  hc  hc  c3  
hc  hc  hc  hc  ss  cc  ca  ca  cd  ca  ca  ca  ca  ss  cp  ha  ca  ca  ha  ca  
ca  cp  ha  ca  ha  ha  ha  ca  ca  c3  ca  ha  ca  ha  c3  hc  hc  ca  ha  ha  
c3  hc  hc  ha  c3  hc  hc  c3  hc  hc  c3  hc  hc  c3  hc  hc  hc  hc  c3  c3  
hc  hc  hc  c3  hc  hc  hc  hc  ss  cc  ca  ca  cd  ca  ca  ca  ca  ss  cp  ha  
ca  ca  ha  ca  ca  cp  ha  ca  ha  ha  ha  ca  ca  c3  ca  ha  ca  ha  c3  hc  
hc  ca  ha  ha  c3  hc  hc  ha  c3  hc  hc  c3  hc  hc  c3  hc  hc  c3  hc  hc  
hc  hc  c3  c3  hc  hc  hc  c3  hc  hc  hc  hc  ss  cc  ca  ca  cd  ca  ca  ca  
ca  ss  cp  ha  ca  ca  ha  ca  ca  cp  ha  ca  ha  ha  ha  ca  ca  c3  ca  ha  
ca  ha  c3  hc  hc  ca  ha  ha  c3  hc  hc  ha  c3  hc  hc  c3  hc  hc  c3  hc  
hc  c3  hc  hc  hc  hc  c3  c3  hc  hc  hc  c3  hc  hc  hc  hc  ss  cc  ca  ca  
cd  ca  ca  ca  ca  ss  cp  ha  ca  ca  ha  ca  ca  cp  ha  ca  ha  ha  ha  ca  
ca  c3  ca  ha  ca  ha  c3  hc  hc  ca  ha  ha  c3  hc  hc  ha  c3  hc  hc  c3  
hc  hc  c3  hc  hc  c3  hc  hc  hc  hc  c3  c3  hc  hc  hc  c3  hc  hc  hc  hc  
ss  cc  ca  ca  cd  ca  ca  ca  ca  ss  cp  ha  ca  ca  ha  ca  ca  cp  ha  ca  
ha  ha  ha  ca  ca  c3  ca  ha  ca  ha  c3  hc  hc  ca  ha  ha  c3  hc  hc  ha  
c3  hc  hc  c3  hc  hc  c3  hc  hc  c3  hc  hc  hc  hc  c3  c3  hc  hc  hc  c3  
hc  hc  hc  hc  ss  cc  ca  ca  cd  ca  ca  ca  ca  ss  cp  ha  ca  ca  ha  ca  
ca  cp  ha  ca  ha  ha  ha  ca  ca  c3  ca  ha  ca  ha  c3  hc  hc  ca  ha  ha  
c3  hc  hc  ha  c3  hc  hc  c3  hc  hc  c3  hc  hc  c3  hc  hc  hc  hc  c3  c3  
hc  hc  hc  c3  hc  hc  hc  hc  ss  cc  ca  ca  cd  ca  ca  ca  ca  ss  cp  ha  
ca  ca  ha  ca  ca  cp  ha  ca  ha  ha  ha  ca  ca  c3  ca  ha  ca  ha  c3  hc  
hc  ca  ha  ha  c3  hc  hc  ha  c3  hc  hc  c3  hc  hc  c3  hc  hc  c3  hc  hc  
hc  hc  c3  c3  hc  hc  hc  c3  hc  hc  hc  hc  ss  cc  ca  ca  cd  ca  ca  ca  
ca  ss  cp  ha  ca  ca  ha  ca  ca  cp  ha  ca  ha  ha  ha  ca  ca  c3  ca  ha  
ca  ha  c3  hc  hc  ca  ha  ha  c3  hc  hc  ha  c3  hc  hc  c3  hc  hc  c3  hc  
hc  c3  hc  hc  hc  hc  c3  c3  hc  hc  hc  c3  hc  hc  hc  hc  ss  cc  ca  ca  
cd  ca  ca  ca  ca  ss  cp  ha  ca  ca  ha  ca  ca  cp  ha  ca  ha  ha  ha  ca  
ca  c3  ca  ha  ca  ha  c3  hc  hc  ca  ha  ha  c3  hc  hc  ha  c3  hc  hc  c3  
hc  hc  c3  hc  hc  c3  hc  hc  hc  hc  c3  c3  hc  hc  hc  c3  hc  hc  hc  hc  
ss  cc  ca  ca  cd  ca  ca  ca  ca  ss  cp  ha  ca  ca  ha  ca  ca  cp  ha  ca  
ha  ha  ha  ca  ca  c3  ca  ha  ca  ha  c3  hc  hc  ca  ha  ha  c3  hc  hc  ha  
c3  hc  hc  c3  hc  hc  c3  hc  hc  c3  hc  hc  hc  hc  c3  c3  hc  hc  hc  c3  
hc  hc  hc  hc  ss  cc  ca  ca  cd  ca  ca  ca  ca  ss  cp  ha  ca  ca  ha  ca  
ca  cp  ha  ca  ha  ha  ha  ca  ca  c3  ca  ha  ca  ha  c3  hc  hc  ca  ha  ha  
c3  hc  hc  ha  c3  hc  hc  c3  hc  hc  c3  hc  hc  c3  hc  hc  hc  hc  c3  c3  
hc  hc  hc  c3  hc  hc  hc  hc  ss  cc  ca  ca  cd  ca  ca  ca  ca  ss  cp  ha  
ca  ca  ha  ca  ca  cp  ha  ca  ha  ha  ha  ca  ca  c3  ca  ha  ca  ha  c3  hc  
hc  ca  ha  ha  c3  hc  hc  ha  c3  hc  hc  c3  hc  hc  c3  hc  hc  c3  hc  hc  
hc  hc  c3  c3  hc  hc  hc  c3  hc  hc  hc  hc  ss  cc  ca  ca  cd  ca  ca  ca  
ca  ss  cp  ha  ca  ca  ha  ca  ca  cp  ha  ca  ha  ha  ha  ca  ca  c3  ca  ha  
ca  ha  c3  hc  hc  ca  ha  ha  c3  hc  hc  ha  c3  hc  hc  c3  hc  hc  c3  hc  
hc  c3  hc  hc  hc  hc  c3  c3  hc  hc  hc  c3  hc  hc  hc  hc  ss  cc  ca  ca  
cd  ca  ca  ca  ca  ss  cp  ha  ca  ca  ha  ca  ca  cp  ha  ca  ha  ha  ha  ca  
ca  c3  ca  ha  ca  ha  c3  hc  hc  ca  ha  ha  c3  hc  hc  ha  c3  hc  hc  c3  
hc  hc  c3  hc  hc  c3  hc  hc  hc  hc  c3  c3  hc  hc  hc  c3  hc  hc  hc  hc  
ss  cc  ca  ca  cd  ca  ca  ca  ca  ss  cp  ha  ca  ca  ha  ca  ca  cp  ha  ca  
ha  ha  ha  ca  ca  c3  ca  ha  ca  ha  c3  hc  hc  ca  ha  ha  c3  hc  hc  ha  
c3  hc  hc  c3  hc  hc  c3  hc  hc  c3  hc  hc  hc  hc  c3  c3  hc  hc  hc  c3  
hc  hc  hc  hc  ss  cc  ca  ca  cd  ca  ca  ca  ca  ss  cp  ha  ca  ca  ha  ca  
ca  cp  ha  ca  ha  ha  ha  ca  ca  c3  ca  ha  ca  ha  c3  hc  hc  ca  ha  ha  
c3  hc  hc  ha  c3  hc  hc  c3  hc  hc  c3  hc  hc  c3  hc  hc  hc  hc  c3  c3  
hc  hc  hc  c3  hc  hc  hc  hc  ss  cc  ca  ca  cd  ca  ca  ca  ca  ss  cp  ha  
ca  ca  ha  ca  ca  cp  ha  ca  ha  ha  ha  ca  ca  c3  ca  ha  ca  ha  c3  hc  
hc  ca  ha  ha  c3  hc  hc  ha  c3  hc  hc  c3  hc  hc  c3  hc  hc  c3  hc  hc  
hc  hc  c3  c3  hc  hc  hc  c3  hc  hc  hc  hc  ss  cc  ca  ca  cd  ca  ca  ca  
ca  ss  cp  ha  ca  ca  ha  ca  ca  cp  ha  ca  ha  ha  ha  ca  ca  c3  ca  ha  
ca  ha  c3  hc  hc  ca  ha  ha  c3  hc  hc  ha  c3  hc  hc  c3  hc  hc  c3  hc  
hc  c3  hc  hc  hc  hc  c3  c3  hc  hc  hc  c3  hc  hc  hc  hc  ss  cc  ca  ca  
cd  ca  ca  ca  ca  ss  cp  ha  ca  ca  ha  ca  ca  cp  ha  ca  ha  ha  ha  ca  
ca  c3  ca  ha  ca  ha  c3  hc  hc  ca  ha  ha  c3  hc  hc  ha  c3  hc  hc  c3  
hc  hc  c3  hc  hc  c3  hc  hc  hc  hc  c3  c3  hc  hc  hc  c3  hc  hc  hc  hc  
ss  cc  ca  ca  cd  ca  ca  ca  ca  ss  cp  ha  ca  ca  ha  ca  ca  cp  ha  ca  
ha  ha  ha  ca  ca  c3  ca  ha  ca  ha  c3  hc  hc  ca  ha  ha  c3  hc  hc  ha  
c3  hc  hc  c3  hc  hc  c3  hc  hc  c3  hc  hc  hc  hc  c3  c3  hc  hc  hc  c3  
hc  hc  hc  hc  ss  cc  ca  ca  cd  ca  ca  ca  ca  ss  cp  ha  ca  ca  ha  ca  
ca  cp  ha  ca  ha  ha  ha  ca  ca  c3  ca  ha  ca  ha  c3  hc  hc  ca  ha  ha  
c3  hc  hc  ha  c3  hc  hc  c3  hc  hc  c3  hc  hc  c3  hc  hc  hc  hc  c3  c3  
hc  hc  hc  c3  hc  hc  hc  hc  ss  cc  ca  ca  cd  ca  ca  ca  ca  ss  cp  ha  
ca  ca  ha  ca  ca  cp  ha  ca  ha  ha  ha  ca  ca  c3  ca  ha  ca  ha  c3  hc  
hc  ca  ha  ha  c3  hc  hc  ha  c3  hc  hc  c3  hc  hc  c3  hc  hc  c3  hc  hc  
hc  hc  c3  c3  hc  hc  hc  c3  hc  hc  hc  hc  ss  cc  ca  ca  cd  ca  ca  ca  
ca  ss  cp  ha  ca  ca  ha  ca  ca  cp  ha  ca  ha  ha  ha  ca  ca  c3  ca  ha  
ca  ha  c3  hc  hc  ca  ha  ha  c3  hc  hc  ha  c3  hc  hc  c3  hc  hc  c3  hc  
hc  c3  hc  hc  hc  hc  c3  c3  hc  hc  hc  c3  hc  hc  hc  hc  ss  cc  ca  ca  
cd  ca  ca  ca  ca  ss  cp  ha  ca  ca  ha  ca  ca  cp  ha  ca  ha  ha  ha  ca  
ca  c3  ca  ha  ca  ha  c3  hc  hc  ca  ha  ha  c3  hc  hc  ha  c3  hc  hc  c3  
hc  hc  c3  hc  hc  c3  hc  hc  hc  hc  c3  c3  hc  hc  hc  c3  hc  hc  hc  hc  
ss  cc  ca  ca  cd  ca  ca  ca  ca  ss  cp  ha  ca  ca  ha  ca  ca  cp  ha  ca  
ha  ha  ha  ca  ca  c3  ca  ha  ca  ha  c3  hc  hc  ca  ha  ha  c3  hc  hc  ha  
c3  hc  hc  c3  hc  hc  c3  hc  hc  c3  hc  hc  hc  hc  c3  c3  hc  hc  hc  c3  
hc  hc  hc  hc  ss  cc  ca  ca  cd  ca  ca  ca  ca  ss  cp  ha  ca  ca  ha  ca  
ca  cp  ha  ca  ha  ha  ha  ca  ca  c3  ca  ha  ca  ha  c3  hc  hc  ca  ha  ha  
c3  hc  hc  ha  c3  hc  hc  c3  hc  hc  c3  hc  hc  c3  hc  hc  hc  hc  c3  c3  
hc  hc  hc  c3  hc  hc  hc  hc  ss  cc  ca  ca  cd  ca  ca  ca  ca  ss  cp  ha  
ca  ca  ha  ca  ca  cp  ha  ca  ha  ha  ha  ca  ca  c3  ca  ha  ca  ha  c3  hc  
hc  ca  ha  ha  c3  hc  hc  ha  c3  hc  hc  c3  hc  hc  c3  hc  hc  c3  hc  hc  
hc  hc  c3  c3  hc  hc  hc  c3  hc  hc  hc  hc  ss  cc  ca  ca  cd  ca  ca  ca  
ca  ss  cp  ha  ca  ca  ha  ca  ca  cp  ha  ca  ha  ha  ha  ca  ca  c3  ca  ha  
ca  ha  c3  hc  hc  ca  ha  ha  c3  hc  hc  ha  c3  hc  hc  c3  hc  hc  c3  hc  
hc  c3  hc  hc  hc  hc  c3  c3  hc  hc  hc  c3  hc  hc  hc  hc  ss  cc  ca  ca  
cd  ca  ca  ca  ca  ss  cp  ha  ca  ca  ha  ca  ca  cp  ha  ca  ha  ha  ha  ca  
ca  c3  ca  ha  ca  ha  c3  hc  hc  ca  ha  ha  c3  hc  hc  ha  c3  hc  hc  c3  
hc  hc  c3  hc  hc  c3  hc  hc  hc  hc  c3  c3  hc  hc  hc  c3  hc  hc  hc  hc  
ss  cc  ca  ca  cd  ca  ca  ca  ca  ss  cp  ha  ca  ca  ha  ca  ca  cp  ha  ca  
ha  ha  ha  ca  ca  c3  ca  ha  ca  ha  c3  hc  hc  ca  ha  ha  c3  hc  hc  ha  
c3  hc  hc  c3  hc  hc  c3  hc  hc  c3  hc  hc  hc  hc  c3  c3  hc  hc  hc  c3  
hc  hc  hc  hc  ss  cc  ca  ca  cd  ca  ca  ca  ca  ss  cp  ha  ca  ca  ha  ca  
ca  cp  ha  ca  ha  ha  ha  ca  ca  c3  ca  ha  ca  ha  c3  hc  hc  ca  ha  ha  
c3  hc  hc  ha  c3  hc  hc  c3  hc  hc  c3  hc  hc  c3  hc  hc  hc  hc  c3  c3  
hc  hc  hc  c3  hc  hc  hc  hc  ss  cc  ca  ca  cd  ca  ca  ca  ca  ss  cp  ha  
ca  ca  ha  ca  ca  cp  ha  ca  ha  ha  ha  ca  ca  c3  ca  ha  ca  ha  c3  hc  
hc  ca  ha  ha  c3  hc  hc  ha  c3  hc  hc  c3  hc  hc  c3  hc  hc  c3  hc  hc  
hc  hc  c3  c3  hc  hc  hc  c3  hc  hc  hc  hc  ss  cc  ca  ca  cd  ca  ca  ca  
ca  ss  cp  ha  ca  ca  ha  ca  ca  cp  ha  ca  ha  ha  ha  ca  ca  c3  ca  ha  
ca  ha  c3  hc  hc  ca  ha  ha  c3  hc  hc  ha  c3  hc  hc  c3  hc  hc  c3  hc  
hc  c3  hc  hc  hc  hc  c3  c3  hc  hc  hc  c3  hc  hc  hc  hc  ss  cc  ca  ca  
cd  ca  ca  ca  ca  ss  cp  ha  ca  ca  ha  ca  ca  cp  ha  ca  ha  ha  ha  ca  
ca  c3  ca  ha  ca  ha  c3  hc  hc  ca  ha  ha  c3  hc  hc  ha  c3  hc  hc  c3  
hc  hc  c3  hc  hc  c3  hc  hc  hc  hc  c3  c3  hc  hc  hc  c3  hc  hc  hc  hc  
ss  cc  ca  ca  cd  ca  ca  ca  ca  ss  cp  ha  ca  ca  ha  ca  ca  cp  ha  ca  
ha  ha  ha  ca  ca  c3  ca  ha  ca  ha  c3  hc  hc  ca  ha  ha  c3  hc  hc  ha  
c3  hc  hc  c3  hc  hc  c3  hc  hc  c3  hc  hc  hc  hc  c3  c3  hc  hc  hc  c3  
hc  hc  hc  hc  ss  cc  ca  ca  cd  ca  ca  ca  ca  ss  cp  ha  ca  ca  ha  ca  
ca  cp  ha  ca  ha  ha  ha  ca  ca  c3  ca  ha  ca  ha  c3  hc  hc  ca  ha  ha  
c3  hc  hc  ha  c3  hc  hc  c3  hc  hc  c3  hc  hc  c3  hc  hc  hc  hc  c3  c3  
hc  hc  hc  c3  hc  hc  hc  hc  ss  cc  ca  ca  cd  ca  ca  ca  ca  ss  cp  ha  
ca  ca  ha  ca  ca  cp  ha  ca  ha  ha  ha  ca  ca  c3  ca  ha  ca  ha  c3  hc  
hc  ca  ha  ha  c3  hc  hc  ha  c3  hc  hc  c3  hc  hc  c3  hc  hc  c3  hc  hc  
hc  hc  c3  c3  hc  hc  hc  c3  hc  hc  hc  hc  ss  cc  ca  ca  cd  ca  ca  ca  
ca  ss  cp  ha  ca  ca  ha  ca  ca  cp  ha  ca  ha  ha  ha  ca  ca  c3  ca  ha  
ca  ha  c3  hc  hc  ca  ha  ha  c3  hc  hc  ha  c3  hc  hc  c3  hc  hc  c3  hc  
hc  c3  hc  hc  hc  hc  c3  c3  hc  hc  hc  c3  hc  hc  hc  hc  ss  cc  ca  ca  
cd  ca  ca  ca  ca  ss  cp  ha  ca  ca  ha  ca  ca  cp  ha  ca  ha  ha  ha  ca  
ca  c3  ca  ha  ca  ha  c3  hc  hc  ca  ha  ha  c3  hc  hc  ha  c3  hc  hc  c3  
hc  hc  c3  hc  hc  c3  hc  hc  hc  hc  c3  c3  hc  hc  hc  c3  hc  hc  hc  hc  
ss  cc  ca  ca  cd  ca  ca  ca  ca  ss  cp  ha  ca  ca  ha  ca  ca  cp  ha  ca  
ha  ha  ha  ca  ca  c3  ca  ha  ca  ha  c3  hc  hc  ca  ha  ha  c3  hc  hc  ha  
c3  hc  hc  c3  hc  hc  c3  hc  hc  c3  hc  hc  hc  hc  c3  c3  hc  hc  hc  c3  
hc  hc  hc  hc  ss  cc  ca  ca  cd  ca  ca  ca  ca  ss  cp  ha  ca  ca  ha  ca  
ca  cp  ha  ca  ha  ha  ha  ca  ca  c3  ca  ha  ca  ha  c3  hc  hc  ca  ha  ha  
c3  hc  hc  ha  c3  hc  hc  c3  hc  hc  c3  hc  hc  c3  hc  hc  hc  hc  c3  c3  
hc  hc  hc  c3  hc  hc  hc  hc  ss  cc  ca  ca  cd  ca  ca  ca  ca  ss  cp  ha  
ca  ca  ha  ca  ca  cp  ha  ca  ha  ha  ha  ca  ca  c3  ca  ha  ca  ha  c3  hc  
hc  ca  ha  ha  c3  hc  hc  ha  c3  hc  hc  c3  hc  hc  c3  hc  hc  c3  hc  hc  
hc  hc  c3  c3  hc  hc  hc  c3  hc  hc  hc  hc  ss  cc  ca  ca  cd  ca  ca  ca  
ca  ss  cp  ha  ca  ca  ha  ca  ca  cp  ha  ca  ha  ha  ha  ca  ca  c3  ca  ha  
ca  ha  c3  hc  hc  ca  ha  ha  c3  hc  hc  ha  c3  hc  hc  c3  hc  hc  c3  hc  
hc  c3  hc  hc  hc  hc  c3  c3  hc  hc  hc  c3  hc  hc  hc  hc  ss  cc  ca  ca  
cd  ca  ca  ca  ca  ss  cp  ha  ca  ca  ha  ca  ca  cp  ha  ca  ha  ha  ha  ca  
ca  c3  ca  ha  ca  ha  c3  hc  hc  ca  ha  ha  c3  hc  hc  ha  c3  hc  hc  c3  
hc  hc  c3  hc  hc  c3  hc  hc  hc  hc  c3  c3  hc  hc  hc  c3  hc  hc  hc  hc  
ss  cc  ca  ca  cd  ca  ca  ca  ca  ss  cp  ha  ca  ca  ha  ca  ca  cp  ha  ca  
ha  ha  ha  ca  ca  c3  ca  ha  ca  ha  c3  hc  hc  ca  ha  ha  c3  hc  hc  ha  
c3  hc  hc  c3  hc  hc  c3  hc  hc  c3  hc  hc  hc  hc  c3  c3  hc  hc  hc  c3  
hc  hc  hc  hc  ss  cc  ca  ca  cd  ca  ca  ca  ca  ss  cp  ha  ca  ca  ha  ca  
ca  cp  ha  ca  ha  ha  ha  ca  ca  c3  ca  ha  ca  ha  c3  hc  hc  ca  ha  ha  
c3  hc  hc  ha  c3  hc  hc  c3  hc  hc  c3  hc  hc  c3  hc  hc  hc  hc  c3  c3  
hc  hc  hc  c3  hc  hc  hc  hc  ss  cc  ca  ca  cd  ca  ca  ca  ca  ss  cp  ha  
ca  ca  ha  ca  ca  cp  ha  ca  ha  ha  ha  ca  ca  c3  ca  ha  ca  ha  c3  hc  
hc  ca  ha  ha  c3  hc  hc  ha  c3  hc  hc  c3  hc  hc  c3  hc  hc  c3  hc  hc  
hc  hc  c3  c3  hc  hc  hc  c3  hc  hc  hc  hc  ss  cc  ca  ca  cd  ca  ca  ca  
ca  ss  cp  ha  ca  ca  ha  ca  ca  cp  ha  ca  ha  ha  ha  ca  ca  c3  ca  ha  
ca  ha  c3  hc  hc  ca  ha  ha  c3  hc  hc  ha  c3  hc  hc  c3  hc  hc  c3  hc  
hc  c3  hc  hc  hc  hc  c3  c3  hc  hc  hc  c3  hc  hc  hc  hc  ss  cc  ca  ca  
cd  ca  ca  ca  ca  ss  cp  ha  ca  ca  ha  ca  ca  cp  ha  ca  ha  ha  ha  ca  
ca  c3  ca  ha  ca  ha  c3  hc  hc  ca  ha  ha  c3  hc  hc  ha  c3  hc  hc  c3  
hc  hc  c3  hc  hc  c3  hc  hc  hc  hc  c3  c3  hc  hc  hc  c3  hc  hc  hc  hc  
ss  cc  ca  ca  cd  ca  ca  ca  ca  ss  cp  ha  ca  ca  ha  ca  ca  cp  ha  ca  
ha  ha  ha  ca  ca  c3  ca  ha  ca  ha  c3  hc  hc  ca  ha  ha  c3  hc  hc  ha  
c3  hc  hc  c3  hc  hc  c3  hc  hc  c3  hc  hc  hc  hc  c3  c3  hc  hc  hc  c3  
hc  hc  hc  hc  ss  cc  ca  ca  cd  ca  ca  ca  ca  ss  cp  ha  ca  ca  ha  ca  
ca  cp  ha  ca  ha  ha  ha  ca  ca  c3  ca  ha  ca  ha  c3  hc  hc  ca  ha  ha  
c3  hc  hc  ha  c3  hc  hc  c3  hc  hc  c3  hc  hc  c3  hc  hc  hc  hc  c3  c3  
hc  hc  hc  c3  hc  hc  hc  hc  ss  cc  ca  ca  cd  ca  ca  ca  ca  ss  cp  ha  
ca  ca  ha  ca  ca  cp  ha  ca  ha  ha  ha  ca  ca  c3  ca  ha  ca  ha  c3  hc  
hc  ca  ha  ha  c3  hc  hc  ha  c3  hc  hc  c3  hc  hc  c3  hc  hc  c3  hc  hc  
hc  hc  c3  c3  hc  hc  hc  c3  hc  hc  hc  hc  ss  cc  ca  ca  cd  ca  ca  ca  
ca  ss  cp  ha  ca  ca  ha  ca  ca  cp  ha  ca  ha  ha  ha  ca  ca  c3  ca  ha  
ca  ha  c3  hc  hc  ca  ha  ha  c3  hc  hc  ha  c3  hc  hc  c3  hc  hc  c3  hc  
hc  c3  hc  hc  hc  hc  c3  c3  hc  hc  hc  c3  hc  hc  hc  hc  ss  cc  ca  ca  
cd  ca  ca  ca  ca  ss  cp  ha  ca  ca  ha  ca  ca  cp  ha  ca  ha  ha  ha  ca  
ca  c3  ca  ha  ca  ha  c3  hc  hc  ca  ha  ha  c3  hc  hc  ha  c3  hc  hc  c3  
hc  hc  c3  hc  hc  c3  hc  hc  hc  hc  c3  c3  hc  hc  hc  c3  hc  hc  hc  hc  
ss  cc  ca  ca  cd  ca  ca  ca  ca  ss  cp  ha  ca  ca  ha  ca  ca  cp  ha  ca  
ha  ha  ha  ca  ca  c3  ca  ha  ca  ha  c3  hc  hc  ca  ha  ha  c3  hc  hc  ha  
c3  hc  hc  c3  hc  hc  c3  hc  hc  c3  hc  hc  hc  hc  c3  c3  hc  hc  hc  c3  
hc  hc  hc  hc  ss  cc  ca  ca  cd  ca  ca  ca  ca  ss  cp  ha  ca  ca  ha  ca  
ca  cp  ha  ca  ha  ha  ha  ca  ca  c3  ca  ha  ca  ha  c3  hc  hc  ca  ha  ha  
c3  hc  hc  ha  c3  hc  hc  c3  hc  hc  c3  hc  hc  c3  hc  hc  hc  hc  c3  c3  
hc  hc  hc  c3  hc  hc  hc  hc  ss  cc  ca  ca  cd  ca  ca  ca  ca  ss  cp  ha  
ca  ca  ha  ca  ca  cp  ha  ca  ha  ha  ha  ca  ca  c3  ca  ha  ca  ha  c3  hc  
hc  ca  ha  ha  c3  hc  hc  ha  c3  hc  hc  c3  hc  hc  c3  hc  hc  c3  hc  hc  
hc  hc  c3  c3  hc  hc  hc  c3  hc  hc  hc  hc  ss  cc  ca  ca  cd  ca  ca  ca  
ca  ss  cp  ha  ca  ca  ha  ca  ca  cp  ha  ca  ha  ha  ha  ca  ca  c3  ca  ha  
ca  ha  c3  hc  hc  ca  ha  ha  c3  hc  hc  ha  c3  hc  hc  c3  hc  hc  c3  hc  
hc  c3  hc  hc  hc  hc  c3  c3  hc  hc  hc  c3  hc  hc  hc  hc  ss  cc  ca  ca  
cd  ca  ca  ca  ca  ss  cp  ha  ca  ca  ha  ca  ca  cp  ha  ca  ha  ha  ha  ca  
ca  c3  ca  ha  ca  ha  c3  hc  hc  ca  ha  ha  c3  hc  hc  ha  c3  hc  hc  c3  
hc  hc  c3  hc  hc  c3  hc  hc  hc  hc  c3  c3  hc  hc  hc  c3  hc  hc  hc  hc  
ss  cc  ca  ca  cd  ca  ca  ca  ca  ss  cp  ha  ca  ca  ha  ca  ca  cp  ha  ca  
ha  ha  ha  ca  ca  c3  ca  ha  ca  ha  c3  hc  hc  ca  ha  ha  c3  hc  hc  ha  
c3  hc  hc  c3  hc  hc  c3  hc  hc  c3  hc  hc  hc  hc  c3  c3  hc  hc  hc  c3  
hc  hc  hc  hc  ss  cc  ca  ca  cd  ca  ca  ca  ca  ss  cp  ha  ca  ca  ha  ca  
ca  cp  ha  ca  ha  ha  ha  ca  ca  c3  ca  ha  ca  ha  c3  hc  hc  ca  ha  ha  
c3  hc  hc  ha  c3  hc  hc  c3  hc  hc  c3  hc  hc  c3  hc  hc  hc  hc  c3  c3  
hc  hc  hc  c3  hc  hc  hc  hc  ss  cc  ca  ca  cd  ca  ca  ca  ca  ss  cp  ha  
ca  ca  ha  ca  ca  cp  ha  ca  ha  ha  ha  ca  ca  c3  ca  ha  ca  ha  c3  hc  
hc  ca  ha  ha  c3  hc  hc  ha  c3  hc  hc  c3  hc  hc  c3  hc  hc  c3  hc  hc  
hc  hc  c3  c3  hc  hc  hc  c3  hc  hc  hc  hc  ss  cc  ca  ca  cd  ca  ca  ca  
ca  ss  cp  ha  ca  ca  ha  ca  ca  cp  ha  ca  ha  ha  ha  ca  ca  c3  ca  ha  
ca  ha  c3  hc  hc  ca  ha  ha  c3  hc  hc  ha  c3  hc  hc  c3  hc  hc  c3  hc  
hc  c3  hc  hc  hc  hc  c3  c3  hc  hc  hc  c3  hc  hc  hc  hc  ss  cc  ca  ca  
cd  ca  ca  ca  ca  ss  cp  ha  ca  ca  ha  ca  ca  cp  ha  ca  ha  ha  ha  ca  
ca  c3  ca  ha  ca  ha  c3  hc  hc  ca  ha  ha  c3  hc  hc  ha  c3  hc  hc  c3  
hc  hc  c3  hc  hc  c3  hc  hc  hc  hc  c3  c3  hc  hc  hc  c3  hc  hc  hc  hc  
ss  cc  ca  ca  cd  ca  ca  ca  ca  ss  cp  ha  ca  ca  ha  ca  ca  cp  ha  ca  
ha  ha  ha  ca  ca  c3  ca  ha  ca  ha  c3  hc  hc  ca  ha  ha  c3  hc  hc  ha  
c3  hc  hc  c3  hc  hc  c3  hc  hc  c3  hc  hc  hc  hc  c3  c3  hc  hc  hc  c3  
hc  hc  hc  hc  ss  cc  ca  ca  cd  ca  ca  ca  ca  ss  cp  ha  ca  ca  ha  ca  
ca  cp  ha  ca  ha  ha  ha  ca  ca  c3  ca  ha  ca  ha  c3  hc  hc  ca  ha  ha  
c3  hc  hc  ha  c3  hc  hc  c3  hc  hc  c3  hc  hc  c3  hc  hc  hc  hc  c3  c3  
hc  hc  hc  c3  hc  hc  hc  hc  ss  cc  ca  ca  cd  ca  ca  ca  ca  ss  cp  ha  
ca  ca  ha  ca  ca  cp  ha  ca  ha  ha  ha  ca  ca  c3  ca  ha  ca  ha  c3  hc  
hc  ca  ha  ha  c3  hc  hc  ha  c3  hc  hc  c3  hc  hc  c3  hc  hc  c3  hc  hc  
hc  hc  c3  c3  hc  hc  hc  c3  hc  hc  hc  hc  ss  cc  ca  ca  cd  ca  ca  ca  
ca  ss  cp  ha  ca  ca  ha  ca  ca  cp  ha  ca  ha  ha  ha  ca  ca  c3  ca  ha  
ca  ha  c3  hc  hc  ca  ha  ha  c3  hc  hc  ha  c3  hc  hc  c3  hc  hc  c3  hc  
hc  c3  hc  hc  hc  hc  c3  c3  hc  hc  hc  c3  hc  hc  hc  hc  ss  cc  ca  ca  
cd  ca  ca  ca  ca  ss  cp  ha  ca  ca  ha  ca  ca  cp  ha  ca  ha  ha  ha  ca  
ca  c3  ca  ha  ca  ha  c3  hc  hc  ca  ha  ha  c3  hc  hc  ha  c3  hc  hc  c3  
hc  hc  c3  hc  hc  c3  hc  hc  hc  hc  c3  c3  hc  hc  hc  c3  hc  hc  hc  hc  
ss  cc  ca  ca  cd  ca  ca  ca  ca  ss  cp  ha  ca  ca  ha  ca  ca  cp  ha  ca  
ha  ha  ha  ca  ca  c3  ca  ha  ca  ha  c3  hc  hc  ca  ha  ha  c3  hc  hc  ha  
c3  hc  hc  c3  hc  hc  c3  hc  hc  c3  hc  hc  hc  hc  c3  c3  hc  hc  hc  c3  
hc  hc  hc  hc  ss  cc  ca  ca  cd  ca  ca  ca  ca  ss  cp  ha  ca  ca  ha  ca  
ca  cp  ha  ca  ha  ha  ha  ca  ca  c3  ca  ha  ca  ha  c3  hc  hc  ca  ha  ha  
c3  hc  hc  ha  c3  hc  hc  c3  hc  hc  c3  hc  hc  c3  hc  hc  hc  hc  c3  c3  
hc  hc  hc  c3  hc  hc  hc  hc  ss  cc  ca  ca  cd  ca  ca  ca  ca  ss  cp  ha  
ca  ca  ha  ca  ca  cp  ha  ca  ha  ha  ha  ca  ca  c3  ca  ha  ca  ha  c3  hc  
hc  ca  ha  ha  c3  hc  hc  ha  c3  hc  hc  c3  hc  hc  c3  hc  hc  c3  hc  hc  
hc  hc  c3  c3  hc  hc  hc  c3  hc  hc  hc  hc  ss  cc  ca  ca  cd  ca  ca  ca  
ca  ss  cp  ha  ca  ca  ha  ca  ca  cp  ha  ca  ha  ha  ha  ca  ca  c3  ca  ha  
ca  ha  c3  hc  hc  ca  ha  ha  c3  hc  hc  ha  c3  hc  hc  c3  hc  hc  c3  hc  
hc  c3  hc  hc  hc  hc  c3  c3  hc  hc  hc  c3  hc  hc  hc  hc  ss  cc  ca  ca  
cd  ca  ca  ca  ca  ss  cp  ha  ca  ca  ha  ca  ca  cp  ha  ca  ha  ha  ha  ca  
ca  c3  ca  ha  ca  ha  c3  hc  hc  ca  ha  ha  c3  hc  hc  ha  c3  hc  hc  c3  
hc  hc  c3  hc  hc  c3  hc  hc  hc  hc  c3  c3  hc  hc  hc  c3  hc  hc  hc  hc  
ss  cc  ca  ca  cd  ca  ca  ca  ca  ss  cp  ha  ca  ca  ha  ca  ca  cp  ha  ca  
ha  ha  ha  ca  ca  c3  ca  ha  ca  ha  c3  hc  hc  ca  ha  ha  c3  hc  hc  ha  
c3  hc  hc  c3  hc  hc  c3  hc  hc  c3  hc  hc  hc  hc  c3  c3  hc  hc  hc  c3  
hc  hc  hc  hc  ss  cc  ca  ca  cd  ca  ca  ca  ca  ss  cp  ha  ca  ca  ha  ca  
ca  cp  ha  ca  ha  ha  ha  ca  ca  c3  ca  ha  ca  ha  c3  hc  hc  ca  ha  ha  
c3  hc  hc  ha  c3  hc  hc  c3  hc  hc  c3  hc  hc  c3  hc  hc  hc  hc  c3  c3  
hc  hc  hc  c3  hc  hc  hc  hc  ss  cc  ca  ca  cd  ca  ca  ca  ca  ss  cp  ha  
ca  ca  ha  ca  ca  cp  ha  ca  ha  ha  ha  ca  ca  c3  ca  ha  ca  ha  c3  hc  
hc  ca  ha  ha  c3  hc  hc  ha  c3  hc  hc  c3  hc  hc  c3  hc  hc  c3  hc  hc  
hc  hc  c3  c3  hc  hc  hc  c3  hc  hc  hc  hc  ss  cc  ca  ca  cd  ca  ca  ca  
ca  ss  cp  ha  ca  ca  ha  ca  ca  cp  ha  ca  ha  ha  ha  ca  ca  c3  ca  ha  
ca  ha  c3  hc  hc  ca  ha  ha  c3  hc  hc  ha  c3  hc  hc  c3  hc  hc  c3  hc  
hc  c3  hc  hc  hc  hc  c3  c3  hc  hc  hc  c3  hc  hc  hc  hc  ss  cc  ca  ca  
cd  ca  ca  ca  ca  ss  cp  ha  ca  ca  ha  ca  ca  cp  ha  ca  ha  ha  ha  ca  
ca  c3  ca  ha  ca  ha  c3  hc  hc  ca  ha  ha  c3  hc  hc  ha  c3  hc  hc  c3  
hc  hc  c3  hc  hc  c3  hc  hc  hc  hc  c3  c3  hc  hc  hc  c3  hc  hc  hc  hc  
ss  cc  ca  ca  cd  ca  ca  ca  ca  ss  cp  ha  ca  ca  ha  ca  ca  cp  ha  ca  
ha  ha  ha  ca  ca  c3  ca  ha  ca  ha  c3  hc  hc  ca  ha  ha  c3  hc  hc  ha  
c3  hc  hc  c3  hc  hc  c3  hc  hc  c3  hc  hc  hc  hc  c3  c3  hc  hc  hc  c3  
hc  hc  hc  hc  ss  cc  ca  ca  cd  ca  ca  ca  ca  ss  cp  ha  ca  ca  ha  ca  
ca  cp  ha  ca  ha  ha  ha  ca  ca  c3  ca  ha  ca  ha  c3  hc  hc  ca  ha  ha  
c3  hc  hc  ha  c3  hc  hc  c3  hc  hc  c3  hc  hc  c3  hc  hc  hc  hc  c3  c3  
hc  hc  hc  c3  hc  hc  hc  hc  ss  cc  ca  ca  cd  ca  ca  ca  ca  ss  cp  ha  
ca  ca  ha  ca  ca  cp  ha  ca  ha  ha  ha  ca  ca  c3  ca  ha  ca  ha  c3  hc  
hc  ca  ha  ha  c3  hc  hc  ha  c3  hc  hc  c3  hc  hc  c3  hc  hc  c3  hc  hc  
hc  hc  c3  c3  hc  hc  hc  c3  hc  hc  hc  hc  ss  cc  ca  ca  cd  ca  ca  ca  
ca  ss  cp  ha  ca  ca  ha  ca  ca  cp  ha  ca  ha  ha  ha  ca  ca  c3  ca  ha  
ca  ha  c3  hc  hc  ca  ha  ha  c3  hc  hc  ha  c3  hc  hc  c3  hc  hc  c3  hc  
hc  c3  hc  hc  hc  hc  c3  c3  hc  hc  hc  c3  hc  hc  hc  hc  ss  cc  ca  ca  
cd  ca  ca  ca  ca  ss  cp  ha  ca  ca  ha  ca  ca  cp  ha  ca  ha  ha  ha  ca  
ca  c3  ca  ha  ca  ha  c3  hc  hc  ca  ha  ha  c3  hc  hc  ha  c3  hc  hc  c3  
hc  hc  c3  hc  hc  c3  hc  hc  hc  hc  c3  c3  hc  hc  hc  c3  hc  hc  hc  hc  
ss  cc  ca  ca  cd  ca  ca  ca  ca  ss  cp  ha  ca  ca  ha  ca  ca  cp  ha  ca  
ha  ha  ha  ca  ca  c3  ca  ha  ca  ha  c3  hc  hc  ca  ha  ha  c3  hc  hc  ha  
c3  hc  hc  c3  hc  hc  c3  hc  hc  c3  hc  hc  hc  hc  c3  c3  hc  hc  hc  c3  
hc  hc  hc  hc  ss  cc  ca  ca  cd  ca  ca  ca  ca  ss  cp  ha  ca  ca  ha  ca  
ca  cp  ha  ca  ha  ha  ha  ca  ca  c3  ca  ha  ca  ha  c3  hc  hc  ca  ha  ha  
c3  hc  hc  ha  c3  hc  hc  c3  hc  hc  c3  hc  hc  c3  hc  hc  hc  hc  c3  c3  
hc  hc  hc  c3  hc  hc  hc  hc  ss  cc  ca  ca  cd  ca  ca  ca  ca  ss  cp  ha  
ca  ca  ha  ca  ca  cp  ha  ca  ha  ha  ha  ca  ca  c3  ca  ha  ca  ha  c3  hc  
hc  ca  ha  ha  c3  hc  hc  ha  c3  hc  hc  c3  hc  hc  c3  hc  hc  c3  hc  hc  
hc  hc  c3  c3  hc  hc  hc  c3  hc  hc  hc  hc  ss  cc  ca  ca  cd  ca  ca  ca  
ca  ss  cp  ha  ca  ca  ha  ca  ca  cp  ha  ca  ha  ha  ha  ca  ca  c3  ca  ha  
ca  ha  c3  hc  hc  ca  ha  ha  c3  hc  hc  ha  c3  hc  hc  c3  hc  hc  c3  hc  
hc  c3  hc  hc  hc  hc  c3  c3  hc  hc  hc  c3  hc  hc  hc  hc  ss  cc  ca  ca  
cd  ca  ca  ca  ca  ss  cp  ha  ca  ca  ha  ca  ca  cp  ha  ca  ha  ha  ha  ca  
ca  c3  ca  ha  ca  ha  c3  hc  hc  ca  ha  ha  c3  hc  hc  ha  c3  hc  hc  c3  
hc  hc  c3  hc  hc  c3  hc  hc  hc  hc  c3  c3  hc  hc  hc  c3  hc  hc  hc  hc  
ss  cc  ca  ca  cd  ca  ca  ca  ca  ss  cp  ha  ca  ca  ha  ca  ca  cp  ha  ca  
ha  ha  ha  ca  ca  c3  ca  ha  ca  ha  c3  hc  hc  ca  ha  ha  c3  hc  hc  ha  
c3  hc  hc  c3  hc  hc  c3  hc  hc  c3  hc  hc  hc  hc  c3  c3  hc  hc  hc  c3  
hc  hc  hc  hc  ss  cc  ca  ca  cd  ca  ca  ca  ca  ss  cp  ha  ca  ca  ha  ca  
ca  cp  ha  ca  ha  ha  ha  ca  ca  c3  ca  ha  ca  ha  c3  hc  hc  ca  ha  ha  
c3  hc  hc  ha  c3  hc  hc  c3  hc  hc  c3  hc  hc  c3  hc  hc  hc  hc  c3  c3  
hc  hc  hc  c3  hc  hc  hc  hc  ss  cc  ca  ca  cd  ca  ca  ca  ca  ss  cp  ha  
ca  ca  ha  ca  ca  cp  ha  ca  ha  ha  ha  ca  ca  c3  ca  ha  ca  ha  c3  hc  
hc  ca  ha  ha  c3  hc  hc  ha  c3  hc  hc  c3  hc  hc  c3  hc  hc  c3  hc  hc  
hc  hc  c3  c3  hc  hc  hc  c3  hc  hc  hc  hc  ss  cc  ca  ca  cd  ca  ca  ca  
ca  ss  cp  ha  ca  ca  ha  ca  ca  cp  ha  ca  ha  ha  ha  ca  ca  c3  ca  ha  
ca  ha  c3  hc  hc  ca  ha  ha  c3  hc  hc  ha  c3  hc  hc  c3  hc  hc  c3  hc  
hc  c3  hc  hc  hc  hc  c3  c3  hc  hc  hc  c3  hc  hc  hc  hc  ss  cc  ca  ca  
cd  ca  ca  ca  ca  ss  cp  ha  ca  ca  ha  ca  ca  cp  ha  ca  ha  ha  ha  ca  
ca  c3  ca  ha  ca  ha  c3  hc  hc  ca  ha  ha  c3  hc  hc  ha  c3  hc  hc  c3  
hc  hc  c3  hc  hc  c3  hc  hc  hc  hc  c3  c3  hc  hc  hc  c3  hc  hc  hc  hc  
ss  cc  ca  ca  cd  ca  ca  ca  ca  ss  cp  ha  ca  ca  ha  ca  ca  cp  ha  ca  
ha  ha  ha  ca  ca  c3  ca  ha  ca  ha  c3  hc  hc  ca  ha  ha  c3  hc  hc  ha  
c3  hc  hc  c3  hc  hc  c3  hc  hc  c3  hc  hc  hc  hc  c3  c3  hc  hc  hc  c3  
hc  hc  hc  hc  ss  cc  ca  ca  cd  ca  ca  ca  ca  ss  cp  ha  ca  ca  ha  ca  
ca  cp  ha  ca  ha  ha  ha  ca  ca  c3  ca  ha  ca  ha  c3  hc  hc  ca  ha  ha  
c3  hc  hc  ha  c3  hc  hc  c3  hc  hc  c3  hc  hc  c3  hc  hc  hc  hc  c3  c3  
hc  hc  hc  c3  hc  hc  hc  hc  ss  cc  ca  ca  cd  ca  ca  ca  ca  ss  cp  ha  
ca  ca  ha  ca  ca  cp  ha  ca  ha  ha  ha  ca  ca  c3  ca  ha  ca  ha  c3  hc  
hc  ca  ha  ha  c3  hc  hc  ha  c3  hc  hc  c3  hc  hc  c3  hc  hc  c3  hc  hc  
hc  hc  c3  c3  hc  hc  hc  c3  hc  hc  hc  hc  ss  cc  ca  ca  cd  ca  ca  ca  
ca  ss  cp  ha  ca  ca  ha  ca  ca  cp  ha  ca  ha  ha  ha  ca  ca  c3  ca  ha  
ca  ha  c3  hc  hc  ca  ha  ha  c3  hc  hc  ha  c3  hc  hc  c3  hc  hc  c3  hc  
hc  c3  hc  hc  hc  hc  c3  c3  hc  hc  hc  c3  hc  hc  hc  hc  ss  cc  ca  ca  
cd  ca  ca  ca  ca  ss  cp  ha  ca  ca  ha  ca  ca  cp  ha  ca  ha  ha  ha  ca  
ca  c3  ca  ha  ca  ha  c3  hc  hc  ca  ha  ha  c3  hc  hc  ha  c3  hc  hc  c3  
hc  hc  c3  hc  hc  c3  hc  hc  hc  hc  c3  c3  hc  hc  hc  c3  hc  hc  hc  hc  
ss  cc  ca  ca  cd  ca  ca  ca  ca  ss  cp  ha  ca  ca  ha  ca  ca  cp  ha  ca  
ha  ha  ha  ca  ca  c3  ca  ha  ca  ha  c3  hc  hc  ca  ha  ha  c3  hc  hc  ha  
c3  hc  hc  c3  hc  hc  c3  hc  hc  c3  hc  hc  hc  hc  c3  c3  hc  hc  hc  c3  
hc  hc  hc  hc  ss  cc  ca  ca  cd  ca  ca  ca  ca  ss  cp  ha  ca  ca  ha  ca  
ca  cp  ha  ca  ha  ha  ha  ca  ca  c3  ca  ha  ca  ha  c3  hc  hc  ca  ha  ha  
c3  hc  hc  ha  c3  hc  hc  c3  hc  hc  c3  hc  hc  c3  hc  hc  hc  hc  c3  c3  
hc  hc  hc  c3  hc  hc  hc  hc  ss  cc  ca  ca  cd  ca  ca  ca  ca  ss  cp  ha  
ca  ca  ha  ca  ca  cp  ha  ca  ha  ha  ha  ca  ca  c3  ca  ha  ca  ha  c3  hc  
hc  ca  ha  ha  c3  hc  hc  ha  c3  hc  hc  c3  hc  hc  c3  hc  hc  c3  hc  hc  
hc  hc  c3  c3  hc  hc  hc  c3  hc  hc  hc  hc  ss  cc  ca  ca  cd  ca  ca  ca  
ca  ss  cp  ha  ca  ca  ha  ca  ca  cp  ha  ca  ha  ha  ha  ca  ca  c3  ca  ha  
ca  ha  c3  hc  hc  ca  ha  ha  c3  hc  hc  ha  c3  hc  hc  c3  hc  hc  c3  hc  
hc  c3  hc  hc  hc  hc  c3  c3  hc  hc  hc  c3  hc  hc  hc  hc  ss  cc  ca  ca  
cd  ca  ca  ca  ca  ss  cp  ha  ca  ca  ha  ca  ca  cp  ha  ca  ha  ha  ha  ca  
ca  c3  ca  ha  ca  ha  c3  hc  hc  ca  ha  ha  c3  hc  hc  ha  c3  hc  hc  c3  
hc  hc  c3  hc  hc  c3  hc  hc  hc  hc  c3  c3  hc  hc  hc  c3  hc  hc  hc  hc  
ss  cc  ca  ca  cd  ca  ca  ca  ca  ss  cp  ha  ca  ca  ha  ca  ca  cp  ha  ca  
ha  ha  ha  ca  ca  c3  ca  ha  ca  ha  c3  hc  hc  ca  ha  ha  c3  hc  hc  ha  
c3  hc  hc  c3  hc  hc  c3  hc  hc  c3  hc  hc  hc  hc  c3  c3  hc  hc  hc  c3  
hc  hc  hc  hc  ss  cc  ca  ca  cd  ca  ca  ca  ca  ss  cp  ha  ca  ca  ha  ca  
ca  cp  ha  ca  ha  ha  ha  ca  ca  c3  ca  ha  ca  ha  c3  hc  hc  ca  ha  ha  
c3  hc  hc  ha  c3  hc  hc  c3  hc  hc  c3  hc  hc  c3  hc  hc  hc  hc  c3  c3  
hc  hc  hc  c3  hc  hc  hc  hc  ss  cc  ca  ca  cd  ca  ca  ca  ca  ss  cp  ha  
ca  ca  ha  ca  ca  cp  ha  ca  ha  ha  ha  ca  ca  c3  ca  ha  ca  ha  c3  hc  
hc  ca  ha  ha  c3  hc  hc  ha  c3  hc  hc  c3  hc  hc  c3  hc  hc  c3  hc  hc  
hc  hc  c3  c3  hc  hc  hc  c3  hc  hc  hc  hc  ss  cc  ca  ca  cd  ca  ca  ca  
ca  ss  cp  ha  ca  ca  ha  ca  ca  cp  ha  ca  ha  ha  ha  ca  ca  c3  ca  ha  
ca  ha  c3  hc  hc  ca  ha  ha  c3  hc  hc  ha  c3  hc  hc  c3  hc  hc  c3  hc  
hc  c3  hc  hc  hc  hc  c3  c3  hc  hc  hc  c3  hc  hc  hc  hc  ss  cc  ca  ca  
cd  ca  ca  ca  ca  ss  cp  ha  ca  ca  ha  ca  ca  cp  ha  ca  ha  ha  ha  ca  
ca  c3  ca  ha  ca  ha  c3  hc  hc  ca  ha  ha  c3  hc  hc  ha  c3  hc  hc  c3  
hc  hc  c3  hc  hc  c3  hc  hc  hc  hc  c3  c3  hc  hc  hc  c3  hc  hc  hc  hc  
ss  cc  ca  ca  cd  ca  ca  ca  ca  ss  cp  ha  ca  ca  ha  ca  ca  cp  ha  ca  
ha  ha  ha  ca  ca  c3  ca  ha  ca  ha  c3  hc  hc  ca  ha  ha  c3  hc  hc  ha  
c3  hc  hc  c3  hc  hc  c3  hc  hc  c3  hc  hc  hc  hc  c3  c3  hc  hc  hc  c3  
hc  hc  hc  hc  ss  cc  ca  ca  cd  ca  ca  ca  ca  ss  cp  ha  ca  ca  ha  ca  
ca  cp  ha  ca  ha  ha  ha  ca  ca  c3  ca  ha  ca  ha  c3  hc  hc  ca  ha  ha  
c3  hc  hc  ha  c3  hc  hc  c3  hc  hc  c3  hc  hc  c3  hc  hc  hc  hc  c3  c3  
hc  hc  hc  c3  hc  hc  hc  hc  ss  cc  ca  ca  cd  ca  ca  ca  ca  ss  cp  ha  
ca  ca  ha  ca  ca  cp  ha  ca  ha  ha  ha  ca  ca  c3  ca  ha  ca  ha  c3  hc  
hc  ca  ha  ha  c3  hc  hc  ha  c3  hc  hc  c3  hc  hc  c3  hc  hc  c3  hc  hc  
hc  hc  c3  c3  hc  hc  hc  c3  hc  hc  hc  hc  
%FLAG TREE_CHAIN_CLASSIFICATION                                                 
%FORMAT(20a4)                                                                   
BLA BLA BLA BLA BLA BLA BLA BLA BLA BLA BLA BLA BLA BLA BLA BLA BLA BLA BLA BLA 
BLA BLA BLA BLA BLA BLA BLA BLA BLA BLA BLA BLA BLA BLA BLA BLA BLA BLA BLA BLA 
BLA BLA BLA BLA BLA BLA BLA BLA BLA BLA BLA BLA BLA BLA BLA BLA BLA BLA BLA BLA 
BLA BLA BLA BLA BLA BLA BLA BLA BLA BLA BLA BLA BLA BLA BLA BLA BLA BLA BLA BLA 
BLA BLA BLA BLA BLA BLA BLA BLA BLA BLA BLA BLA BLA BLA BLA BLA BLA BLA BLA BLA 
BLA BLA BLA BLA BLA BLA BLA BLA BLA BLA BLA BLA BLA BLA BLA BLA BLA BLA BLA BLA 
BLA BLA BLA BLA BLA BLA BLA BLA BLA BLA BLA BLA BLA BLA BLA BLA BLA BLA BLA BLA 
BLA BLA BLA BLA BLA BLA BLA BLA BLA BLA BLA BLA BLA BLA BLA BLA BLA BLA BLA BLA 
BLA BLA BLA BLA BLA BLA BLA BLA BLA BLA BLA BLA BLA BLA BLA BLA BLA BLA BLA BLA 
BLA BLA BLA BLA BLA BLA BLA BLA BLA BLA BLA BLA BLA BLA BLA BLA BLA BLA BLA BLA 
BLA BLA BLA BLA BLA BLA BLA BLA BLA BLA BLA BLA BLA BLA BLA BLA BLA BLA BLA BLA 
BLA BLA BLA BLA BLA BLA BLA BLA BLA BLA BLA BLA BLA BLA BLA BLA BLA BLA BLA BLA 
BLA BLA BLA BLA BLA BLA BLA BLA BLA BLA BLA BLA BLA BLA BLA BLA BLA BLA BLA BLA 
BLA BLA BLA BLA BLA BLA BLA BLA BLA BLA BLA BLA BLA BLA BLA BLA BLA BLA BLA BLA 
BLA BLA BLA BLA BLA BLA BLA BLA BLA BLA BLA BLA BLA BLA BLA BLA BLA BLA BLA BLA 
BLA BLA BLA BLA BLA BLA BLA BLA BLA BLA BLA BLA BLA BLA BLA BLA BLA BLA BLA BLA 
BLA BLA BLA BLA BLA BLA BLA BLA BLA BLA BLA BLA BLA BLA BLA BLA BLA BLA BLA BLA 
BLA BLA BLA BLA BLA BLA BLA BLA BLA BLA BLA BLA BLA BLA BLA BLA BLA BLA BLA BLA 
BLA BLA BLA BLA BLA BLA BLA BLA BLA BLA BLA BLA BLA BLA BLA BLA BLA BLA BLA BLA 
BLA BLA BLA BLA BLA BLA BLA BLA BLA BLA BLA BLA BLA BLA BLA BLA BLA BLA BLA BLA 
BLA BLA BLA BLA BLA BLA BLA BLA BLA BLA BLA BLA BLA BLA BLA BLA BLA BLA BLA BLA 
BLA BLA BLA BLA BLA BLA BLA BLA BLA BLA BLA BLA BLA BLA BLA BLA BLA BLA BLA BLA 
BLA BLA BLA BLA BLA BLA BLA BLA BLA BLA BLA BLA BLA BLA BLA BLA BLA BLA BLA BLA 
BLA BLA BLA BLA BLA BLA BLA BLA BLA BLA BLA BLA BLA BLA BLA BLA BLA BLA BLA BLA 
BLA BLA BLA BLA BLA BLA BLA BLA BLA BLA BLA BLA BLA BLA BLA BLA BLA BLA BLA BLA 
BLA BLA BLA BLA BLA BLA BLA BLA BLA BLA BLA BLA BLA BLA BLA BLA BLA BLA BLA BLA 
BLA BLA BLA BLA BLA BLA BLA BLA BLA BLA BLA BLA BLA BLA BLA BLA BLA BLA BLA BLA 
BLA BLA BLA BLA BLA BLA BLA BLA BLA BLA BLA BLA BLA BLA BLA BLA BLA BLA BLA BLA 
BLA BLA BLA BLA BLA BLA BLA BLA BLA BLA BLA BLA BLA BLA BLA BLA BLA BLA BLA BLA 
BLA BLA BLA BLA BLA BLA BLA BLA BLA BLA BLA BLA BLA BLA BLA BLA BLA BLA BLA BLA 
BLA BLA BLA BLA BLA BLA BLA BLA BLA BLA BLA BLA BLA BLA BLA BLA BLA BLA BLA BLA 
BLA BLA BLA BLA BLA BLA BLA BLA BLA BLA BLA BLA BLA BLA BLA BLA BLA BLA BLA BLA 
BLA BLA BLA BLA BLA BLA BLA BLA BLA BLA BLA BLA BLA BLA BLA BLA BLA BLA BLA BLA 
BLA BLA BLA BLA BLA BLA BLA BLA BLA BLA BLA BLA BLA BLA BLA BLA BLA BLA BLA BLA 
BLA BLA BLA BLA BLA BLA BLA BLA BLA BLA BLA BLA BLA BLA BLA BLA BLA BLA BLA BLA 
BLA BLA BLA BLA BLA BLA BLA BLA BLA BLA BLA BLA BLA BLA BLA BLA BLA BLA BLA BLA 
BLA BLA BLA BLA BLA BLA BLA BLA BLA BLA BLA BLA BLA BLA BLA BLA BLA BLA BLA BLA 
BLA BLA BLA BLA BLA BLA BLA BLA BLA BLA BLA BLA BLA BLA BLA BLA BLA BLA BLA BLA 
BLA BLA BLA BLA BLA BLA BLA BLA BLA BLA BLA BLA BLA BLA BLA BLA BLA BLA BLA BLA 
BLA BLA BLA BLA BLA BLA BLA BLA BLA BLA BLA BLA BLA BLA BLA BLA BLA BLA BLA BLA 
BLA BLA BLA BLA BLA BLA BLA BLA BLA BLA BLA BLA BLA BLA BLA BLA BLA BLA BLA BLA 
BLA BLA BLA BLA BLA BLA BLA BLA BLA BLA BLA BLA BLA BLA BLA BLA BLA BLA BLA BLA 
BLA BLA BLA BLA BLA BLA BLA BLA BLA BLA BLA BLA BLA BLA BLA BLA BLA BLA BLA BLA 
BLA BLA BLA BLA BLA BLA BLA BLA BLA BLA BLA BLA BLA BLA BLA BLA BLA BLA BLA BLA 
BLA BLA BLA BLA BLA BLA BLA BLA BLA BLA BLA BLA BLA BLA BLA BLA BLA BLA BLA BLA 
BLA BLA BLA BLA BLA BLA BLA BLA BLA BLA BLA BLA BLA BLA BLA BLA BLA BLA BLA BLA 
BLA BLA BLA BLA BLA BLA BLA BLA BLA BLA BLA BLA BLA BLA BLA BLA BLA BLA BLA BLA 
BLA BLA BLA BLA BLA BLA BLA BLA BLA BLA BLA BLA BLA BLA BLA BLA BLA BLA BLA BLA 
BLA BLA BLA BLA BLA BLA BLA BLA BLA BLA BLA BLA BLA BLA BLA BLA BLA BLA BLA BLA 
BLA BLA BLA BLA BLA BLA BLA BLA BLA BLA BLA BLA BLA BLA BLA BLA BLA BLA BLA BLA 
BLA BLA BLA BLA BLA BLA BLA BLA BLA BLA BLA BLA BLA BLA BLA BLA BLA BLA BLA BLA 
BLA BLA BLA BLA BLA BLA BLA BLA BLA BLA BLA BLA BLA BLA BLA BLA BLA BLA BLA BLA 
BLA BLA BLA BLA BLA BLA BLA BLA BLA BLA BLA BLA BLA BLA BLA BLA BLA BLA BLA BLA 
BLA BLA BLA BLA BLA BLA BLA BLA BLA BLA BLA BLA BLA BLA BLA BLA BLA BLA BLA BLA 
BLA BLA BLA BLA BLA BLA BLA BLA BLA BLA BLA BLA BLA BLA BLA BLA BLA BLA BLA BLA 
BLA BLA BLA BLA BLA BLA BLA BLA BLA BLA BLA BLA BLA BLA BLA BLA BLA BLA BLA BLA 
BLA BLA BLA BLA BLA BLA BLA BLA BLA BLA BLA BLA BLA BLA BLA BLA BLA BLA BLA BLA 
BLA BLA BLA BLA BLA BLA BLA BLA BLA BLA BLA BLA BLA BLA BLA BLA BLA BLA BLA BLA 
BLA BLA BLA BLA BLA BLA BLA BLA BLA BLA BLA BLA BLA BLA BLA BLA BLA BLA BLA BLA 
BLA BLA BLA BLA BLA BLA BLA BLA BLA BLA BLA BLA BLA BLA BLA BLA BLA BLA BLA BLA 
BLA BLA BLA BLA BLA BLA BLA BLA BLA BLA BLA BLA BLA BLA BLA BLA BLA BLA BLA BLA 
BLA BLA BLA BLA BLA BLA BLA BLA BLA BLA BLA BLA BLA BLA BLA BLA BLA BLA BLA BLA 
BLA BLA BLA BLA BLA BLA BLA BLA BLA BLA BLA BLA BLA BLA BLA BLA BLA BLA BLA BLA 
BLA BLA BLA BLA BLA BLA BLA BLA BLA BLA BLA BLA BLA BLA BLA BLA BLA BLA BLA BLA 
BLA BLA BLA BLA BLA BLA BLA BLA BLA BLA BLA BLA BLA BLA BLA BLA BLA BLA BLA BLA 
BLA BLA BLA BLA BLA BLA BLA BLA BLA BLA BLA BLA BLA BLA BLA BLA BLA BLA BLA BLA 
BLA BLA BLA BLA BLA BLA BLA BLA BLA BLA BLA BLA BLA BLA BLA BLA BLA BLA BLA BLA 
BLA BLA BLA BLA BLA BLA BLA BLA BLA BLA BLA BLA BLA BLA BLA BLA BLA BLA BLA BLA 
BLA BLA BLA BLA BLA BLA BLA BLA BLA BLA BLA BLA BLA BLA BLA BLA BLA BLA BLA BLA 
BLA BLA BLA BLA BLA BLA BLA BLA BLA BLA BLA BLA BLA BLA BLA BLA BLA BLA BLA BLA 
BLA BLA BLA BLA BLA BLA BLA BLA BLA BLA BLA BLA BLA BLA BLA BLA BLA BLA BLA BLA 
BLA BLA BLA BLA BLA BLA BLA BLA BLA BLA BLA BLA BLA BLA BLA BLA BLA BLA BLA BLA 
BLA BLA BLA BLA BLA BLA BLA BLA BLA BLA BLA BLA BLA BLA BLA BLA BLA BLA BLA BLA 
BLA BLA BLA BLA BLA BLA BLA BLA BLA BLA BLA BLA BLA BLA BLA BLA BLA BLA BLA BLA 
BLA BLA BLA BLA BLA BLA BLA BLA BLA BLA BLA BLA BLA BLA BLA BLA BLA BLA BLA BLA 
BLA BLA BLA BLA BLA BLA BLA BLA BLA BLA BLA BLA BLA BLA BLA BLA BLA BLA BLA BLA 
BLA BLA BLA BLA BLA BLA BLA BLA BLA BLA BLA BLA BLA BLA BLA BLA BLA BLA BLA BLA 
BLA BLA BLA BLA BLA BLA BLA BLA BLA BLA BLA BLA BLA BLA BLA BLA BLA BLA BLA BLA 
BLA BLA BLA BLA BLA BLA BLA BLA BLA BLA BLA BLA BLA BLA BLA BLA BLA BLA BLA BLA 
BLA BLA BLA BLA BLA BLA BLA BLA BLA BLA BLA BLA BLA BLA BLA BLA BLA BLA BLA BLA 
BLA BLA BLA BLA BLA BLA BLA BLA BLA BLA BLA BLA BLA BLA BLA BLA BLA BLA BLA BLA 
BLA BLA BLA BLA BLA BLA BLA BLA BLA BLA BLA BLA BLA BLA BLA BLA BLA BLA BLA BLA 
BLA BLA BLA BLA BLA BLA BLA BLA BLA BLA BLA BLA BLA BLA BLA BLA BLA BLA BLA BLA 
BLA BLA BLA BLA BLA BLA BLA BLA BLA BLA BLA BLA BLA BLA BLA BLA BLA BLA BLA BLA 
BLA BLA BLA BLA BLA BLA BLA BLA BLA BLA BLA BLA BLA BLA BLA BLA BLA BLA BLA BLA 
BLA BLA BLA BLA BLA BLA BLA BLA BLA BLA BLA BLA BLA BLA BLA BLA BLA BLA BLA BLA 
BLA BLA BLA BLA BLA BLA BLA BLA BLA BLA BLA BLA BLA BLA BLA BLA BLA BLA BLA BLA 
BLA BLA BLA BLA BLA BLA BLA BLA BLA BLA BLA BLA BLA BLA BLA BLA BLA BLA BLA BLA 
BLA BLA BLA BLA BLA BLA BLA BLA BLA BLA BLA BLA BLA BLA BLA BLA BLA BLA BLA BLA 
BLA BLA BLA BLA BLA BLA BLA BLA BLA BLA BLA BLA BLA BLA BLA BLA BLA BLA BLA BLA 
BLA BLA BLA BLA BLA BLA BLA BLA BLA BLA BLA BLA BLA BLA BLA BLA BLA BLA BLA BLA 
BLA BLA BLA BLA BLA BLA BLA BLA BLA BLA BLA BLA BLA BLA BLA BLA BLA BLA BLA BLA 
BLA BLA BLA BLA BLA BLA BLA BLA BLA BLA BLA BLA BLA BLA BLA BLA BLA BLA BLA BLA 
BLA BLA BLA BLA BLA BLA BLA BLA BLA BLA BLA BLA BLA BLA BLA BLA BLA BLA BLA BLA 
BLA BLA BLA BLA BLA BLA BLA BLA BLA BLA BLA BLA BLA BLA BLA BLA BLA BLA BLA BLA 
BLA BLA BLA BLA BLA BLA BLA BLA BLA BLA BLA BLA BLA BLA BLA BLA BLA BLA BLA BLA 
BLA BLA BLA BLA BLA BLA BLA BLA BLA BLA BLA BLA BLA BLA BLA BLA BLA BLA BLA BLA 
BLA BLA BLA BLA BLA BLA BLA BLA BLA BLA BLA BLA BLA BLA BLA BLA BLA BLA BLA BLA 
BLA BLA BLA BLA BLA BLA BLA BLA BLA BLA BLA BLA BLA BLA BLA BLA BLA BLA BLA BLA 
BLA BLA BLA BLA BLA BLA BLA BLA BLA BLA BLA BLA BLA BLA BLA BLA BLA BLA BLA BLA 
BLA BLA BLA BLA BLA BLA BLA BLA BLA BLA BLA BLA BLA BLA BLA BLA BLA BLA BLA BLA 
BLA BLA BLA BLA BLA BLA BLA BLA BLA BLA BLA BLA BLA BLA BLA BLA BLA BLA BLA BLA 
BLA BLA BLA BLA BLA BLA BLA BLA BLA BLA BLA BLA BLA BLA BLA BLA BLA BLA BLA BLA 
BLA BLA BLA BLA BLA BLA BLA BLA BLA BLA BLA BLA BLA BLA BLA BLA BLA BLA BLA BLA 
BLA BLA BLA BLA BLA BLA BLA BLA BLA BLA BLA BLA BLA BLA BLA BLA BLA BLA BLA BLA 
BLA BLA BLA BLA BLA BLA BLA BLA BLA BLA BLA BLA BLA BLA BLA BLA BLA BLA BLA BLA 
BLA BLA BLA BLA BLA BLA BLA BLA BLA BLA BLA BLA BLA BLA BLA BLA BLA BLA BLA BLA 
BLA BLA BLA BLA BLA BLA BLA BLA BLA BLA BLA BLA BLA BLA BLA BLA BLA BLA BLA BLA 
BLA BLA BLA BLA BLA BLA BLA BLA BLA BLA BLA BLA BLA BLA BLA BLA BLA BLA BLA BLA 
BLA BLA BLA BLA BLA BLA BLA BLA BLA BLA BLA BLA BLA BLA BLA BLA BLA BLA BLA BLA 
BLA BLA BLA BLA BLA BLA BLA BLA BLA BLA BLA BLA BLA BLA BLA BLA BLA BLA BLA BLA 
BLA BLA BLA BLA BLA BLA BLA BLA BLA BLA BLA BLA BLA BLA BLA BLA BLA BLA BLA BLA 
BLA BLA BLA BLA BLA BLA BLA BLA BLA BLA BLA BLA BLA BLA BLA BLA BLA BLA BLA BLA 
BLA BLA BLA BLA BLA BLA BLA BLA BLA BLA BLA BLA BLA BLA BLA BLA BLA BLA BLA BLA 
BLA BLA BLA BLA BLA BLA BLA BLA BLA BLA BLA BLA BLA BLA BLA BLA BLA BLA BLA BLA 
BLA BLA BLA BLA BLA BLA BLA BLA BLA BLA BLA BLA BLA BLA BLA BLA BLA BLA BLA BLA 
BLA BLA BLA BLA BLA BLA BLA BLA BLA BLA BLA BLA BLA BLA BLA BLA BLA BLA BLA BLA 
BLA BLA BLA BLA BLA BLA BLA BLA BLA BLA BLA BLA BLA BLA BLA BLA BLA BLA BLA BLA 
BLA BLA BLA BLA BLA BLA BLA BLA BLA BLA BLA BLA BLA BLA BLA BLA BLA BLA BLA BLA 
BLA BLA BLA BLA BLA BLA BLA BLA BLA BLA BLA BLA BLA BLA BLA BLA BLA BLA BLA BLA 
BLA BLA BLA BLA BLA BLA BLA BLA BLA BLA BLA BLA BLA BLA BLA BLA BLA BLA BLA BLA 
BLA BLA BLA BLA BLA BLA BLA BLA BLA BLA BLA BLA BLA BLA BLA BLA BLA BLA BLA BLA 
BLA BLA BLA BLA BLA BLA BLA BLA BLA BLA BLA BLA BLA BLA BLA BLA BLA BLA BLA BLA 
BLA BLA BLA BLA BLA BLA BLA BLA BLA BLA BLA BLA BLA BLA BLA BLA BLA BLA BLA BLA 
BLA BLA BLA BLA BLA BLA BLA BLA BLA BLA BLA BLA BLA BLA BLA BLA BLA BLA BLA BLA 
BLA BLA BLA BLA BLA BLA BLA BLA BLA BLA BLA BLA BLA BLA BLA BLA BLA BLA BLA BLA 
BLA BLA BLA BLA BLA BLA BLA BLA BLA BLA BLA BLA BLA BLA BLA BLA BLA BLA BLA BLA 
BLA BLA BLA BLA BLA BLA BLA BLA BLA BLA BLA BLA BLA BLA BLA BLA BLA BLA BLA BLA 
BLA BLA BLA BLA BLA BLA BLA BLA BLA BLA BLA BLA BLA BLA BLA BLA BLA BLA BLA BLA 
BLA BLA BLA BLA BLA BLA BLA BLA BLA BLA BLA BLA BLA BLA BLA BLA BLA BLA BLA BLA 
BLA BLA BLA BLA BLA BLA BLA BLA BLA BLA BLA BLA BLA BLA BLA BLA BLA BLA BLA BLA 
BLA BLA BLA BLA BLA BLA BLA BLA BLA BLA BLA BLA BLA BLA BLA BLA BLA BLA BLA BLA 
BLA BLA BLA BLA BLA BLA BLA BLA BLA BLA BLA BLA BLA BLA BLA BLA BLA BLA BLA BLA 
BLA BLA BLA BLA BLA BLA BLA BLA BLA BLA BLA BLA BLA BLA BLA BLA BLA BLA BLA BLA 
BLA BLA BLA BLA BLA BLA BLA BLA BLA BLA BLA BLA BLA BLA BLA BLA BLA BLA BLA BLA 
BLA BLA BLA BLA BLA BLA BLA BLA BLA BLA BLA BLA BLA BLA BLA BLA BLA BLA BLA BLA 
BLA BLA BLA BLA BLA BLA BLA BLA BLA BLA BLA BLA BLA BLA BLA BLA BLA BLA BLA BLA 
BLA BLA BLA BLA BLA BLA BLA BLA BLA BLA BLA BLA BLA BLA BLA BLA BLA BLA BLA BLA 
BLA BLA BLA BLA BLA BLA BLA BLA BLA BLA BLA BLA BLA BLA BLA BLA BLA BLA BLA BLA 
BLA BLA BLA BLA BLA BLA BLA BLA BLA BLA BLA BLA BLA BLA BLA BLA BLA BLA BLA BLA 
BLA BLA BLA BLA BLA BLA BLA BLA BLA BLA BLA BLA BLA BLA BLA BLA BLA BLA BLA BLA 
BLA BLA BLA BLA BLA BLA BLA BLA BLA BLA BLA BLA BLA BLA BLA BLA BLA BLA BLA BLA 
BLA BLA BLA BLA BLA BLA BLA BLA BLA BLA BLA BLA BLA BLA BLA BLA BLA BLA BLA BLA 
BLA BLA BLA BLA BLA BLA BLA BLA BLA BLA BLA BLA BLA BLA BLA BLA BLA BLA BLA BLA 
BLA BLA BLA BLA BLA BLA BLA BLA BLA BLA BLA BLA BLA BLA BLA BLA BLA BLA BLA BLA 
BLA BLA BLA BLA BLA BLA BLA BLA BLA BLA BLA BLA BLA BLA BLA BLA BLA BLA BLA BLA 
BLA BLA BLA BLA BLA BLA BLA BLA BLA BLA BLA BLA BLA BLA BLA BLA BLA BLA BLA BLA 
BLA BLA BLA BLA BLA BLA BLA BLA BLA BLA BLA BLA BLA BLA BLA BLA BLA BLA BLA BLA 
BLA BLA BLA BLA BLA BLA BLA BLA BLA BLA BLA BLA BLA BLA BLA BLA BLA BLA BLA BLA 
BLA BLA BLA BLA BLA BLA BLA BLA BLA BLA BLA BLA BLA BLA BLA BLA BLA BLA BLA BLA 
BLA BLA BLA BLA BLA BLA BLA BLA BLA BLA BLA BLA BLA BLA BLA BLA BLA BLA BLA BLA 
BLA BLA BLA BLA BLA BLA BLA BLA BLA BLA BLA BLA BLA BLA BLA BLA BLA BLA BLA BLA 
BLA BLA BLA BLA BLA BLA BLA BLA BLA BLA BLA BLA BLA BLA BLA BLA BLA BLA BLA BLA 
BLA BLA BLA BLA BLA BLA BLA BLA BLA BLA BLA BLA BLA BLA BLA BLA BLA BLA BLA BLA 
BLA BLA BLA BLA BLA BLA BLA BLA BLA BLA BLA BLA BLA BLA BLA BLA BLA BLA BLA BLA 
BLA BLA BLA BLA BLA BLA BLA BLA BLA BLA BLA BLA BLA BLA BLA BLA BLA BLA BLA BLA 
BLA BLA BLA BLA BLA BLA BLA BLA BLA BLA BLA BLA BLA BLA BLA BLA BLA BLA BLA BLA 
BLA BLA BLA BLA BLA BLA BLA BLA BLA BLA BLA BLA BLA BLA BLA BLA BLA BLA BLA BLA 
BLA BLA BLA BLA BLA BLA BLA BLA BLA BLA BLA BLA BLA BLA BLA BLA BLA BLA BLA BLA 
BLA BLA BLA BLA BLA BLA BLA BLA BLA BLA BLA BLA BLA BLA BLA BLA BLA BLA BLA BLA 
BLA BLA BLA BLA BLA BLA BLA BLA BLA BLA BLA BLA BLA BLA BLA BLA BLA BLA BLA BLA 
BLA BLA BLA BLA BLA BLA BLA BLA BLA BLA BLA BLA BLA BLA BLA BLA BLA BLA BLA BLA 
BLA BLA BLA BLA BLA BLA BLA BLA BLA BLA BLA BLA BLA BLA BLA BLA BLA BLA BLA BLA 
BLA BLA BLA BLA BLA BLA BLA BLA BLA BLA BLA BLA BLA BLA BLA BLA BLA BLA BLA BLA 
BLA BLA BLA BLA BLA BLA BLA BLA BLA BLA BLA BLA BLA BLA BLA BLA BLA BLA BLA BLA 
BLA BLA BLA BLA BLA BLA BLA BLA BLA BLA BLA BLA BLA BLA BLA BLA BLA BLA BLA BLA 
BLA BLA BLA BLA BLA BLA BLA BLA BLA BLA BLA BLA BLA BLA BLA BLA BLA BLA BLA BLA 
BLA BLA BLA BLA BLA BLA BLA BLA BLA BLA BLA BLA BLA BLA BLA BLA BLA BLA BLA BLA 
BLA BLA BLA BLA BLA BLA BLA BLA BLA BLA BLA BLA BLA BLA BLA BLA BLA BLA BLA BLA 
BLA BLA BLA BLA BLA BLA BLA BLA BLA BLA BLA BLA BLA BLA BLA BLA BLA BLA BLA BLA 
BLA BLA BLA BLA BLA BLA BLA BLA BLA BLA BLA BLA BLA BLA BLA BLA BLA BLA BLA BLA 
BLA BLA BLA BLA BLA BLA BLA BLA BLA BLA BLA BLA BLA BLA BLA BLA BLA BLA BLA BLA 
BLA BLA BLA BLA BLA BLA BLA BLA BLA BLA BLA BLA BLA BLA BLA BLA BLA BLA BLA BLA 
BLA BLA BLA BLA BLA BLA BLA BLA BLA BLA BLA BLA BLA BLA BLA BLA BLA BLA BLA BLA 
BLA BLA BLA BLA BLA BLA BLA BLA BLA BLA BLA BLA BLA BLA BLA BLA BLA BLA BLA BLA 
BLA BLA BLA BLA BLA BLA BLA BLA BLA BLA BLA BLA BLA BLA BLA BLA BLA BLA BLA BLA 
BLA BLA BLA BLA BLA BLA BLA BLA BLA BLA BLA BLA BLA BLA BLA BLA BLA BLA BLA BLA 
BLA BLA BLA BLA BLA BLA BLA BLA BLA BLA BLA BLA BLA BLA BLA BLA BLA BLA BLA BLA 
BLA BLA BLA BLA BLA BLA BLA BLA BLA BLA BLA BLA BLA BLA BLA BLA BLA BLA BLA BLA 
BLA BLA BLA BLA BLA BLA BLA BLA BLA BLA BLA BLA BLA BLA BLA BLA BLA BLA BLA BLA 
BLA BLA BLA BLA BLA BLA BLA BLA BLA BLA BLA BLA BLA BLA BLA BLA BLA BLA BLA BLA 
BLA BLA BLA BLA BLA BLA BLA BLA BLA BLA BLA BLA BLA BLA BLA BLA BLA BLA BLA BLA 
BLA BLA BLA BLA BLA BLA BLA BLA BLA BLA BLA BLA BLA BLA BLA BLA BLA BLA BLA BLA 
BLA BLA BLA BLA BLA BLA BLA BLA BLA BLA BLA BLA BLA BLA BLA BLA BLA BLA BLA BLA 
BLA BLA BLA BLA BLA BLA BLA BLA BLA BLA BLA BLA BLA BLA BLA BLA BLA BLA BLA BLA 
BLA BLA BLA BLA BLA BLA BLA BLA BLA BLA BLA BLA BLA BLA BLA BLA BLA BLA BLA BLA 
BLA BLA BLA BLA BLA BLA BLA BLA BLA BLA BLA BLA BLA BLA BLA BLA BLA BLA BLA BLA 
BLA BLA BLA BLA BLA BLA BLA BLA BLA BLA BLA BLA BLA BLA BLA BLA BLA BLA BLA BLA 
BLA BLA BLA BLA BLA BLA BLA BLA BLA BLA BLA BLA BLA BLA BLA BLA BLA BLA BLA BLA 
BLA BLA BLA BLA BLA BLA BLA BLA BLA BLA BLA BLA BLA BLA BLA BLA BLA BLA BLA BLA 
BLA BLA BLA BLA BLA BLA BLA BLA BLA BLA BLA BLA BLA BLA BLA BLA BLA BLA BLA BLA 
BLA BLA BLA BLA BLA BLA BLA BLA BLA BLA BLA BLA BLA BLA BLA BLA BLA BLA BLA BLA 
BLA BLA BLA BLA BLA BLA BLA BLA BLA BLA BLA BLA BLA BLA BLA BLA BLA BLA BLA BLA 
BLA BLA BLA BLA BLA BLA BLA BLA BLA BLA BLA BLA BLA BLA BLA BLA BLA BLA BLA BLA 
BLA BLA BLA BLA BLA BLA BLA BLA BLA BLA BLA BLA BLA BLA BLA BLA BLA BLA BLA BLA 
BLA BLA BLA BLA BLA BLA BLA BLA BLA BLA BLA BLA BLA BLA BLA BLA BLA BLA BLA BLA 
BLA BLA BLA BLA BLA BLA BLA BLA BLA BLA BLA BLA BLA BLA BLA BLA BLA BLA BLA BLA 
BLA BLA BLA BLA BLA BLA BLA BLA BLA BLA BLA BLA BLA BLA BLA BLA BLA BLA BLA BLA 
BLA BLA BLA BLA BLA BLA BLA BLA BLA BLA BLA BLA BLA BLA BLA BLA BLA BLA BLA BLA 
BLA BLA BLA BLA BLA BLA BLA BLA BLA BLA BLA BLA BLA BLA BLA BLA BLA BLA BLA BLA 
BLA BLA BLA BLA BLA BLA BLA BLA BLA BLA BLA BLA BLA BLA BLA BLA BLA BLA BLA BLA 
BLA BLA BLA BLA BLA BLA BLA BLA BLA BLA BLA BLA BLA BLA BLA BLA BLA BLA BLA BLA 
BLA BLA BLA BLA BLA BLA BLA BLA BLA BLA BLA BLA BLA BLA BLA BLA BLA BLA BLA BLA 
BLA BLA BLA BLA BLA BLA BLA BLA BLA BLA BLA BLA BLA BLA BLA BLA BLA BLA BLA BLA 
BLA BLA BLA BLA BLA BLA BLA BLA BLA BLA BLA BLA BLA BLA BLA BLA BLA BLA BLA BLA 
BLA BLA BLA BLA BLA BLA BLA BLA BLA BLA BLA BLA BLA BLA BLA BLA BLA BLA BLA BLA 
BLA BLA BLA BLA BLA BLA BLA BLA BLA BLA BLA BLA BLA BLA BLA BLA BLA BLA BLA BLA 
BLA BLA BLA BLA BLA BLA BLA BLA BLA BLA BLA BLA BLA BLA BLA BLA BLA BLA BLA BLA 
BLA BLA BLA BLA BLA BLA BLA BLA BLA BLA BLA BLA BLA BLA BLA BLA BLA BLA BLA BLA 
BLA BLA BLA BLA BLA BLA BLA BLA BLA BLA BLA BLA BLA BLA BLA BLA BLA BLA BLA BLA 
BLA BLA BLA BLA BLA BLA BLA BLA BLA BLA BLA BLA BLA BLA BLA BLA BLA BLA BLA BLA 
BLA BLA BLA BLA BLA BLA BLA BLA BLA BLA BLA BLA BLA BLA BLA BLA BLA BLA BLA BLA 
BLA BLA BLA BLA BLA BLA BLA BLA BLA BLA BLA BLA BLA BLA BLA BLA BLA BLA BLA BLA 
BLA BLA BLA BLA BLA BLA BLA BLA BLA BLA BLA BLA BLA BLA BLA BLA BLA BLA BLA BLA 
BLA BLA BLA BLA BLA BLA BLA BLA BLA BLA BLA BLA BLA BLA BLA BLA BLA BLA BLA BLA 
BLA BLA BLA BLA BLA BLA BLA BLA BLA BLA BLA BLA BLA BLA BLA BLA BLA BLA BLA BLA 
BLA BLA BLA BLA BLA BLA BLA BLA BLA BLA BLA BLA BLA BLA BLA BLA BLA BLA BLA BLA 
BLA BLA BLA BLA BLA BLA BLA BLA BLA BLA BLA BLA BLA BLA BLA BLA BLA BLA BLA BLA 
BLA BLA BLA BLA BLA BLA BLA BLA BLA BLA BLA BLA BLA BLA BLA BLA BLA BLA BLA BLA 
BLA BLA BLA BLA BLA BLA BLA BLA BLA BLA BLA BLA BLA BLA BLA BLA BLA BLA BLA BLA 
BLA BLA BLA BLA BLA BLA BLA BLA BLA BLA BLA BLA BLA BLA BLA BLA BLA BLA BLA BLA 
BLA BLA BLA BLA BLA BLA BLA BLA BLA BLA BLA BLA BLA BLA BLA BLA BLA BLA BLA BLA 
BLA BLA BLA BLA BLA BLA BLA BLA BLA BLA BLA BLA BLA BLA BLA BLA BLA BLA BLA BLA 
BLA BLA BLA BLA BLA BLA BLA BLA BLA BLA BLA BLA BLA BLA BLA BLA BLA BLA BLA BLA 
BLA BLA BLA BLA BLA BLA BLA BLA BLA BLA BLA BLA BLA BLA BLA BLA BLA BLA BLA BLA 
BLA BLA BLA BLA BLA BLA BLA BLA BLA BLA BLA BLA BLA BLA BLA BLA BLA BLA BLA BLA 
BLA BLA BLA BLA BLA BLA BLA BLA BLA BLA BLA BLA BLA BLA BLA BLA BLA BLA BLA BLA 
BLA BLA BLA BLA BLA BLA BLA BLA BLA BLA BLA BLA BLA BLA BLA BLA BLA BLA BLA BLA 
BLA BLA BLA BLA BLA BLA BLA BLA BLA BLA BLA BLA BLA BLA BLA BLA BLA BLA BLA BLA 
BLA BLA BLA BLA BLA BLA BLA BLA BLA BLA BLA BLA BLA BLA BLA BLA BLA BLA BLA BLA 
BLA BLA BLA BLA BLA BLA BLA BLA BLA BLA BLA BLA BLA BLA BLA BLA BLA BLA BLA BLA 
BLA BLA BLA BLA BLA BLA BLA BLA BLA BLA BLA BLA BLA BLA BLA BLA BLA BLA BLA BLA 
BLA BLA BLA BLA BLA BLA BLA BLA BLA BLA BLA BLA BLA BLA BLA BLA BLA BLA BLA BLA 
BLA BLA BLA BLA BLA BLA BLA BLA BLA BLA BLA BLA BLA BLA BLA BLA BLA BLA BLA BLA 
BLA BLA BLA BLA BLA BLA BLA BLA BLA BLA BLA BLA BLA BLA BLA BLA BLA BLA BLA BLA 
BLA BLA BLA BLA BLA BLA BLA BLA BLA BLA BLA BLA BLA BLA BLA BLA BLA BLA BLA BLA 
BLA BLA BLA BLA BLA BLA BLA BLA BLA BLA BLA BLA BLA BLA BLA BLA BLA BLA BLA BLA 
BLA BLA BLA BLA BLA BLA BLA BLA BLA BLA BLA BLA BLA BLA BLA BLA BLA BLA BLA BLA 
BLA BLA BLA BLA BLA BLA BLA BLA BLA BLA BLA BLA BLA BLA BLA BLA BLA BLA BLA BLA 
BLA BLA BLA BLA BLA BLA BLA BLA BLA BLA BLA BLA BLA BLA BLA BLA BLA BLA BLA BLA 
BLA BLA BLA BLA BLA BLA BLA BLA BLA BLA BLA BLA BLA BLA BLA BLA BLA BLA BLA BLA 
BLA BLA BLA BLA BLA BLA BLA BLA BLA BLA BLA BLA BLA BLA BLA BLA BLA BLA BLA BLA 
BLA BLA BLA BLA BLA BLA BLA BLA BLA BLA BLA BLA BLA BLA BLA BLA BLA BLA BLA BLA 
BLA BLA BLA BLA BLA BLA BLA BLA BLA BLA BLA BLA BLA BLA BLA BLA BLA BLA BLA BLA 
BLA BLA BLA BLA BLA BLA BLA BLA BLA BLA BLA BLA BLA BLA BLA BLA BLA BLA BLA BLA 
BLA BLA BLA BLA BLA BLA BLA BLA BLA BLA BLA BLA BLA BLA BLA BLA BLA BLA BLA BLA 
BLA BLA BLA BLA BLA BLA BLA BLA BLA BLA BLA BLA BLA BLA BLA BLA BLA BLA BLA BLA 
BLA BLA BLA BLA BLA BLA BLA BLA BLA BLA BLA BLA BLA BLA BLA BLA BLA BLA BLA BLA 
BLA BLA BLA BLA BLA BLA BLA BLA BLA BLA BLA BLA BLA BLA BLA BLA BLA BLA BLA BLA 
BLA BLA BLA BLA BLA BLA BLA BLA BLA BLA BLA BLA BLA BLA BLA BLA BLA BLA BLA BLA 
BLA BLA BLA BLA BLA BLA BLA BLA BLA BLA BLA BLA BLA BLA BLA BLA BLA BLA BLA BLA 
BLA BLA BLA BLA BLA BLA BLA BLA BLA BLA BLA BLA BLA BLA BLA BLA BLA BLA BLA BLA 
BLA BLA BLA BLA BLA BLA BLA BLA BLA BLA BLA BLA BLA BLA BLA BLA BLA BLA BLA BLA 
BLA BLA BLA BLA BLA BLA BLA BLA BLA BLA BLA BLA BLA BLA BLA BLA BLA BLA BLA BLA 
BLA BLA BLA BLA BLA BLA BLA BLA BLA BLA BLA BLA BLA BLA BLA BLA BLA BLA BLA BLA 
BLA BLA BLA BLA BLA BLA BLA BLA BLA BLA BLA BLA BLA BLA BLA BLA BLA BLA BLA BLA 
BLA BLA BLA BLA BLA BLA BLA BLA BLA BLA BLA BLA BLA BLA BLA BLA BLA BLA BLA BLA 
BLA BLA BLA BLA BLA BLA BLA BLA BLA BLA BLA BLA BLA BLA BLA BLA BLA BLA BLA BLA 
BLA BLA BLA BLA BLA BLA BLA BLA BLA BLA BLA BLA BLA BLA BLA BLA BLA BLA BLA BLA 
BLA BLA BLA BLA BLA BLA BLA BLA BLA BLA BLA BLA BLA BLA BLA BLA BLA BLA BLA BLA 
BLA BLA BLA BLA BLA BLA BLA BLA BLA BLA BLA BLA BLA BLA BLA BLA BLA BLA BLA BLA 
BLA BLA BLA BLA BLA BLA BLA BLA BLA BLA BLA BLA BLA BLA BLA BLA BLA BLA BLA BLA 
BLA BLA BLA BLA BLA BLA BLA BLA BLA BLA BLA BLA BLA BLA BLA BLA BLA BLA BLA BLA 
BLA BLA BLA BLA BLA BLA BLA BLA BLA BLA BLA BLA BLA BLA BLA BLA BLA BLA BLA BLA 
BLA BLA BLA BLA BLA BLA BLA BLA BLA BLA BLA BLA BLA BLA BLA BLA BLA BLA BLA BLA 
BLA BLA BLA BLA BLA BLA BLA BLA BLA BLA BLA BLA BLA BLA BLA BLA BLA BLA BLA BLA 
BLA BLA BLA BLA BLA BLA BLA BLA BLA BLA BLA BLA BLA BLA BLA BLA BLA BLA BLA BLA 
BLA BLA BLA BLA BLA BLA BLA BLA BLA BLA BLA BLA BLA BLA BLA BLA BLA BLA BLA BLA 
BLA BLA BLA BLA BLA BLA BLA BLA BLA BLA BLA BLA BLA BLA BLA BLA BLA BLA BLA BLA 
BLA BLA BLA BLA BLA BLA BLA BLA BLA BLA BLA BLA BLA BLA BLA BLA BLA BLA BLA BLA 
BLA BLA BLA BLA BLA BLA BLA BLA BLA BLA BLA BLA BLA BLA BLA BLA BLA BLA BLA BLA 
BLA BLA BLA BLA BLA BLA BLA BLA BLA BLA BLA BLA BLA BLA BLA BLA BLA BLA BLA BLA 
BLA BLA BLA BLA BLA BLA BLA BLA BLA BLA BLA BLA BLA BLA BLA BLA BLA BLA BLA BLA 
BLA BLA BLA BLA BLA BLA BLA BLA BLA BLA BLA BLA BLA BLA BLA BLA BLA BLA BLA BLA 
BLA BLA BLA BLA BLA BLA BLA BLA BLA BLA BLA BLA BLA BLA BLA BLA BLA BLA BLA BLA 
BLA BLA BLA BLA BLA BLA BLA BLA BLA BLA BLA BLA BLA BLA BLA BLA BLA BLA BLA BLA 
BLA BLA BLA BLA BLA BLA BLA BLA BLA BLA BLA BLA BLA BLA BLA BLA BLA BLA BLA BLA 
BLA BLA BLA BLA BLA BLA BLA BLA BLA BLA BLA BLA BLA BLA BLA BLA BLA BLA BLA BLA 
BLA BLA BLA BLA BLA BLA BLA BLA BLA BLA BLA BLA BLA BLA BLA BLA BLA BLA BLA BLA 
BLA BLA BLA BLA BLA BLA BLA BLA BLA BLA BLA BLA BLA BLA BLA BLA BLA BLA BLA BLA 
BLA BLA BLA BLA BLA BLA BLA BLA BLA BLA BLA BLA BLA BLA BLA BLA BLA BLA BLA BLA 
BLA BLA BLA BLA BLA BLA BLA BLA BLA BLA BLA BLA BLA BLA BLA BLA BLA BLA BLA BLA 
BLA BLA BLA BLA BLA BLA BLA BLA BLA BLA BLA BLA BLA BLA BLA BLA BLA BLA BLA BLA 
BLA BLA BLA BLA BLA BLA BLA BLA BLA BLA BLA BLA BLA BLA BLA BLA BLA BLA BLA BLA 
BLA BLA BLA BLA BLA BLA BLA BLA BLA BLA BLA BLA BLA BLA BLA BLA BLA BLA BLA BLA 
BLA BLA BLA BLA BLA BLA BLA BLA BLA BLA BLA BLA BLA BLA BLA BLA BLA BLA BLA BLA 
BLA BLA BLA BLA BLA BLA BLA BLA BLA BLA BLA BLA BLA BLA BLA BLA BLA BLA BLA BLA 
BLA BLA BLA BLA BLA BLA BLA BLA BLA BLA BLA BLA BLA BLA BLA BLA BLA BLA BLA BLA 
BLA BLA BLA BLA BLA BLA BLA BLA BLA BLA BLA BLA BLA BLA BLA BLA BLA BLA BLA BLA 
BLA BLA BLA BLA BLA BLA BLA BLA BLA BLA BLA BLA BLA BLA BLA BLA BLA BLA BLA BLA 
BLA BLA BLA BLA BLA BLA BLA BLA BLA BLA BLA BLA BLA BLA BLA BLA BLA BLA BLA BLA 
BLA BLA BLA BLA BLA BLA BLA BLA BLA BLA BLA BLA BLA BLA BLA BLA BLA BLA BLA BLA 
BLA BLA BLA BLA BLA BLA BLA BLA BLA BLA BLA BLA BLA BLA BLA BLA BLA BLA BLA BLA 
BLA BLA BLA BLA BLA BLA BLA BLA BLA BLA BLA BLA BLA BLA BLA BLA BLA BLA BLA BLA 
BLA BLA BLA BLA BLA BLA BLA BLA BLA BLA BLA BLA BLA BLA BLA BLA BLA BLA BLA BLA 
BLA BLA BLA BLA BLA BLA BLA BLA BLA BLA BLA BLA BLA BLA BLA BLA BLA BLA BLA BLA 
BLA BLA BLA BLA BLA BLA BLA BLA BLA BLA BLA BLA BLA BLA BLA BLA BLA BLA BLA BLA 
BLA BLA BLA BLA BLA BLA BLA BLA BLA BLA BLA BLA BLA BLA BLA BLA BLA BLA BLA BLA 
BLA BLA BLA BLA BLA BLA BLA BLA BLA BLA BLA BLA BLA BLA BLA BLA BLA BLA BLA BLA 
BLA BLA BLA BLA BLA BLA BLA BLA BLA BLA BLA BLA BLA BLA BLA BLA BLA BLA BLA BLA 
BLA BLA BLA BLA BLA BLA BLA BLA BLA BLA BLA BLA BLA BLA BLA BLA BLA BLA BLA BLA 
BLA BLA BLA BLA BLA BLA BLA BLA BLA BLA BLA BLA BLA BLA BLA BLA BLA BLA BLA BLA 
BLA BLA BLA BLA BLA BLA BLA BLA BLA BLA BLA BLA BLA BLA BLA BLA BLA BLA BLA BLA 
BLA BLA BLA BLA BLA BLA BLA BLA BLA BLA BLA BLA BLA BLA BLA BLA BLA BLA BLA BLA 
BLA BLA BLA BLA BLA BLA BLA BLA BLA BLA BLA BLA BLA BLA BLA BLA BLA BLA BLA BLA 
BLA BLA BLA BLA BLA BLA BLA BLA BLA BLA BLA BLA BLA BLA BLA BLA BLA BLA BLA BLA 
BLA BLA BLA BLA BLA BLA BLA BLA BLA BLA BLA BLA BLA BLA BLA BLA BLA BLA BLA BLA 
BLA BLA BLA BLA BLA BLA BLA BLA BLA BLA BLA BLA BLA BLA BLA BLA BLA BLA BLA BLA 
BLA BLA BLA BLA BLA BLA BLA BLA BLA BLA BLA BLA BLA BLA BLA BLA BLA BLA BLA BLA 
BLA BLA BLA BLA BLA BLA BLA BLA BLA BLA BLA BLA BLA BLA BLA BLA BLA BLA BLA BLA 
BLA BLA BLA BLA BLA BLA BLA BLA BLA BLA BLA BLA BLA BLA BLA BLA BLA BLA BLA BLA 
BLA BLA BLA BLA BLA BLA BLA BLA BLA BLA BLA BLA BLA BLA BLA BLA BLA BLA BLA BLA 
BLA BLA BLA BLA BLA BLA BLA BLA BLA BLA BLA BLA BLA BLA BLA BLA BLA BLA BLA BLA 
BLA BLA BLA BLA BLA BLA BLA BLA BLA BLA BLA BLA BLA BLA BLA BLA BLA BLA BLA BLA 
BLA BLA BLA BLA BLA BLA BLA BLA BLA BLA BLA BLA BLA BLA BLA BLA BLA BLA BLA BLA 
BLA BLA BLA BLA BLA BLA BLA BLA BLA BLA BLA BLA BLA BLA BLA BLA BLA BLA BLA BLA 
BLA BLA BLA BLA BLA BLA BLA BLA BLA BLA BLA BLA BLA BLA BLA BLA BLA BLA BLA BLA 
BLA BLA BLA BLA BLA BLA BLA BLA BLA BLA BLA BLA BLA BLA BLA BLA BLA BLA BLA BLA 
BLA BLA BLA BLA BLA BLA BLA BLA BLA BLA BLA BLA BLA BLA BLA BLA BLA BLA BLA BLA 
BLA BLA BLA BLA BLA BLA BLA BLA BLA BLA BLA BLA BLA BLA BLA BLA BLA BLA BLA BLA 
BLA BLA BLA BLA BLA BLA BLA BLA BLA BLA BLA BLA BLA BLA BLA BLA BLA BLA BLA BLA 
BLA BLA BLA BLA BLA BLA BLA BLA BLA BLA BLA BLA BLA BLA BLA BLA BLA BLA BLA BLA 
BLA BLA BLA BLA BLA BLA BLA BLA BLA BLA BLA BLA BLA BLA BLA BLA BLA BLA BLA BLA 
BLA BLA BLA BLA BLA BLA BLA BLA BLA BLA BLA BLA BLA BLA BLA BLA BLA BLA BLA BLA 
BLA BLA BLA BLA BLA BLA BLA BLA BLA BLA BLA BLA BLA BLA BLA BLA BLA BLA BLA BLA 
BLA BLA BLA BLA BLA BLA BLA BLA BLA BLA BLA BLA BLA BLA BLA BLA BLA BLA BLA BLA 
BLA BLA BLA BLA BLA BLA BLA BLA BLA BLA BLA BLA BLA BLA BLA BLA BLA BLA BLA BLA 
BLA BLA BLA BLA BLA BLA BLA BLA BLA BLA BLA BLA BLA BLA BLA BLA BLA BLA BLA BLA 
BLA BLA BLA BLA BLA BLA BLA BLA BLA BLA BLA BLA BLA BLA BLA BLA BLA BLA BLA BLA 
BLA BLA BLA BLA BLA BLA BLA BLA BLA BLA BLA BLA BLA BLA BLA BLA BLA BLA BLA BLA 
BLA BLA BLA BLA BLA BLA BLA BLA BLA BLA BLA BLA BLA BLA BLA BLA BLA BLA BLA BLA 
BLA BLA BLA BLA BLA BLA BLA BLA BLA BLA BLA BLA BLA BLA BLA BLA BLA BLA BLA BLA 
BLA BLA BLA BLA BLA BLA BLA BLA BLA BLA BLA BLA BLA BLA BLA BLA BLA BLA BLA BLA 
BLA BLA BLA BLA BLA BLA BLA BLA BLA BLA BLA BLA BLA BLA BLA BLA BLA BLA BLA BLA 
BLA BLA BLA BLA BLA BLA BLA BLA BLA BLA BLA BLA BLA BLA BLA BLA BLA BLA BLA BLA 
BLA BLA BLA BLA BLA BLA BLA BLA BLA BLA BLA BLA BLA BLA BLA BLA BLA BLA BLA BLA 
BLA BLA BLA BLA BLA BLA BLA BLA BLA BLA BLA BLA BLA BLA BLA BLA BLA BLA BLA BLA 
BLA BLA BLA BLA BLA BLA BLA BLA BLA BLA BLA BLA BLA BLA BLA BLA BLA BLA BLA BLA 
BLA BLA BLA BLA BLA BLA BLA BLA BLA BLA BLA BLA BLA BLA BLA BLA BLA BLA BLA BLA 
BLA BLA BLA BLA BLA BLA BLA BLA BLA BLA BLA BLA BLA BLA BLA BLA BLA BLA BLA BLA 
BLA BLA BLA BLA BLA BLA BLA BLA BLA BLA BLA BLA BLA BLA BLA BLA BLA BLA BLA BLA 
BLA BLA BLA BLA BLA BLA BLA BLA BLA BLA BLA BLA BLA BLA BLA BLA BLA BLA BLA BLA 
BLA BLA BLA BLA BLA BLA BLA BLA BLA BLA BLA BLA BLA BLA BLA BLA BLA BLA BLA BLA 
BLA BLA BLA BLA BLA BLA BLA BLA BLA BLA BLA BLA BLA BLA BLA BLA BLA BLA BLA BLA 
BLA BLA BLA BLA BLA BLA BLA BLA BLA BLA BLA BLA BLA BLA BLA BLA BLA BLA BLA BLA 
BLA BLA BLA BLA BLA BLA BLA BLA BLA BLA BLA BLA BLA BLA BLA BLA BLA BLA BLA BLA 
BLA BLA BLA BLA BLA BLA BLA BLA BLA BLA BLA BLA BLA BLA BLA BLA BLA BLA BLA BLA 
BLA BLA BLA BLA BLA BLA BLA BLA BLA BLA BLA BLA BLA BLA BLA BLA BLA BLA BLA BLA 
BLA BLA BLA BLA BLA BLA BLA BLA BLA BLA BLA BLA BLA BLA BLA BLA BLA BLA BLA BLA 
BLA BLA BLA BLA BLA BLA BLA BLA BLA BLA BLA BLA BLA BLA BLA BLA BLA BLA BLA BLA 
BLA BLA BLA BLA BLA BLA BLA BLA BLA BLA BLA BLA BLA BLA BLA BLA BLA BLA BLA BLA 
BLA BLA BLA BLA BLA BLA BLA BLA BLA BLA BLA BLA BLA BLA BLA BLA BLA BLA BLA BLA 
BLA BLA BLA BLA BLA BLA BLA BLA BLA BLA BLA BLA BLA BLA BLA BLA BLA BLA BLA BLA 
BLA BLA BLA BLA BLA BLA BLA BLA BLA BLA BLA BLA BLA BLA BLA BLA BLA BLA BLA BLA 
BLA BLA BLA BLA BLA BLA BLA BLA BLA BLA BLA BLA BLA BLA BLA BLA BLA BLA BLA BLA 
BLA BLA BLA BLA BLA BLA BLA BLA BLA BLA BLA BLA BLA BLA BLA BLA BLA BLA BLA BLA 
BLA BLA BLA BLA BLA BLA BLA BLA BLA BLA BLA BLA BLA BLA BLA BLA BLA BLA BLA BLA 
BLA BLA BLA BLA BLA BLA BLA BLA BLA BLA BLA BLA BLA BLA BLA BLA BLA BLA BLA BLA 
BLA BLA BLA BLA BLA BLA BLA BLA BLA BLA BLA BLA BLA BLA BLA BLA BLA BLA BLA BLA 
BLA BLA BLA BLA BLA BLA BLA BLA BLA BLA BLA BLA BLA BLA BLA BLA BLA BLA BLA BLA 
BLA BLA BLA BLA BLA BLA BLA BLA BLA BLA BLA BLA BLA BLA BLA BLA BLA BLA BLA BLA 
BLA BLA BLA BLA BLA BLA BLA BLA BLA BLA BLA BLA BLA BLA BLA BLA BLA BLA BLA BLA 
BLA BLA BLA BLA BLA BLA BLA BLA BLA BLA BLA BLA BLA BLA BLA BLA BLA BLA BLA BLA 
BLA BLA BLA BLA BLA BLA BLA BLA BLA BLA BLA BLA BLA BLA BLA BLA BLA BLA BLA BLA 
BLA BLA BLA BLA BLA BLA BLA BLA BLA BLA BLA BLA BLA BLA BLA BLA BLA BLA BLA BLA 
BLA BLA BLA BLA BLA BLA BLA BLA BLA BLA BLA BLA BLA BLA BLA BLA BLA BLA BLA BLA 
BLA BLA BLA BLA BLA BLA BLA BLA BLA BLA BLA BLA BLA BLA BLA BLA BLA BLA BLA BLA 
BLA BLA BLA BLA BLA BLA BLA BLA BLA BLA BLA BLA BLA BLA BLA BLA BLA BLA BLA BLA 
BLA BLA BLA BLA BLA BLA BLA BLA BLA BLA BLA BLA BLA BLA BLA BLA BLA BLA BLA BLA 
BLA BLA BLA BLA BLA BLA BLA BLA BLA BLA BLA BLA BLA BLA BLA BLA BLA BLA BLA BLA 
BLA BLA BLA BLA BLA BLA BLA BLA BLA BLA BLA BLA BLA BLA BLA BLA BLA BLA BLA BLA 
BLA BLA BLA BLA BLA BLA BLA BLA BLA BLA BLA BLA BLA BLA BLA BLA BLA BLA BLA BLA 
BLA BLA BLA BLA BLA BLA BLA BLA BLA BLA BLA BLA BLA BLA BLA BLA BLA BLA BLA BLA 
BLA BLA BLA BLA BLA BLA BLA BLA BLA BLA BLA BLA BLA BLA BLA BLA BLA BLA BLA BLA 
BLA BLA BLA BLA BLA BLA BLA BLA BLA BLA BLA BLA BLA BLA BLA BLA BLA BLA BLA BLA 
BLA BLA BLA BLA BLA BLA BLA BLA BLA BLA BLA BLA BLA BLA BLA BLA BLA BLA BLA BLA 
BLA BLA BLA BLA BLA BLA BLA BLA BLA BLA BLA BLA BLA BLA BLA BLA BLA BLA BLA BLA 
BLA BLA BLA BLA BLA BLA BLA BLA BLA BLA BLA BLA BLA BLA BLA BLA BLA BLA BLA BLA 
BLA BLA BLA BLA BLA BLA BLA BLA BLA BLA BLA BLA BLA BLA BLA BLA BLA BLA BLA BLA 
BLA BLA BLA BLA BLA BLA BLA BLA BLA BLA BLA BLA BLA BLA BLA BLA BLA BLA BLA BLA 
BLA BLA BLA BLA BLA BLA BLA BLA BLA BLA BLA BLA BLA BLA BLA BLA BLA BLA BLA BLA 
BLA BLA BLA BLA BLA BLA BLA BLA BLA BLA BLA BLA BLA BLA BLA BLA BLA BLA BLA BLA 
BLA BLA BLA BLA BLA BLA BLA BLA BLA BLA BLA BLA BLA BLA BLA BLA BLA BLA BLA BLA 
BLA BLA BLA BLA BLA BLA BLA BLA BLA BLA BLA BLA BLA BLA BLA BLA BLA BLA BLA BLA 
BLA BLA BLA BLA BLA BLA BLA BLA BLA BLA BLA BLA BLA BLA BLA BLA BLA BLA BLA BLA 
BLA BLA BLA BLA BLA BLA BLA BLA BLA BLA BLA BLA BLA BLA BLA BLA BLA BLA BLA BLA 
BLA BLA BLA BLA BLA BLA BLA BLA BLA BLA BLA BLA BLA BLA BLA BLA BLA BLA BLA BLA 
BLA BLA BLA BLA BLA BLA BLA BLA BLA BLA BLA BLA BLA BLA BLA BLA BLA BLA BLA BLA 
BLA BLA BLA BLA BLA BLA BLA BLA BLA BLA BLA BLA BLA BLA BLA BLA BLA BLA BLA BLA 
BLA BLA BLA BLA BLA BLA BLA BLA BLA BLA BLA BLA BLA BLA BLA BLA BLA BLA BLA BLA 
BLA BLA BLA BLA BLA BLA BLA BLA BLA BLA BLA BLA BLA BLA BLA BLA BLA BLA BLA BLA 
BLA BLA BLA BLA BLA BLA BLA BLA BLA BLA BLA BLA BLA BLA BLA BLA BLA BLA BLA BLA 
BLA BLA BLA BLA BLA BLA BLA BLA BLA BLA BLA BLA BLA BLA BLA BLA BLA BLA BLA BLA 
BLA BLA BLA BLA BLA BLA BLA BLA BLA BLA BLA BLA BLA BLA BLA BLA BLA BLA BLA BLA 
BLA BLA BLA BLA BLA BLA BLA BLA BLA BLA BLA BLA BLA BLA BLA BLA BLA BLA BLA BLA 
BLA BLA BLA BLA BLA BLA BLA BLA BLA BLA BLA BLA BLA BLA BLA BLA BLA BLA BLA BLA 
BLA BLA BLA BLA BLA BLA BLA BLA BLA BLA BLA BLA BLA BLA BLA BLA BLA BLA BLA BLA 
BLA BLA BLA BLA BLA BLA BLA BLA BLA BLA BLA BLA BLA BLA BLA BLA BLA BLA BLA BLA 
BLA BLA BLA BLA BLA BLA BLA BLA BLA BLA BLA BLA BLA BLA BLA BLA BLA BLA BLA BLA 
BLA BLA BLA BLA BLA BLA BLA BLA BLA BLA BLA BLA BLA BLA BLA BLA BLA BLA BLA BLA 
BLA BLA BLA BLA BLA BLA BLA BLA BLA BLA BLA BLA BLA BLA BLA BLA BLA BLA BLA BLA 
BLA BLA BLA BLA BLA BLA BLA BLA BLA BLA BLA BLA BLA BLA BLA BLA BLA BLA BLA BLA 
BLA BLA BLA BLA BLA BLA BLA BLA BLA BLA BLA BLA BLA BLA BLA BLA BLA BLA BLA BLA 
BLA BLA BLA BLA BLA BLA BLA BLA BLA BLA BLA BLA BLA BLA BLA BLA BLA BLA BLA BLA 
BLA BLA BLA BLA BLA BLA BLA BLA BLA BLA BLA BLA BLA BLA BLA BLA BLA BLA BLA BLA 
BLA BLA BLA BLA BLA BLA BLA BLA BLA BLA BLA BLA BLA BLA BLA BLA BLA BLA BLA BLA 
BLA BLA BLA BLA BLA BLA BLA BLA BLA BLA BLA BLA BLA BLA BLA BLA BLA BLA BLA BLA 
BLA BLA BLA BLA BLA BLA BLA BLA BLA BLA BLA BLA BLA BLA BLA BLA BLA BLA BLA BLA 
BLA BLA BLA BLA BLA BLA BLA BLA BLA BLA BLA BLA BLA BLA BLA BLA BLA BLA BLA BLA 
BLA BLA BLA BLA BLA BLA BLA BLA BLA BLA BLA BLA BLA BLA BLA BLA BLA BLA BLA BLA 
BLA BLA BLA BLA BLA BLA BLA BLA BLA BLA BLA BLA BLA BLA BLA BLA BLA BLA BLA BLA 
BLA BLA BLA BLA BLA BLA BLA BLA BLA BLA BLA BLA BLA BLA BLA BLA BLA BLA BLA BLA 
BLA BLA BLA BLA BLA BLA BLA BLA BLA BLA BLA BLA BLA BLA BLA BLA BLA BLA BLA BLA 
BLA BLA BLA BLA BLA BLA BLA BLA BLA BLA BLA BLA BLA BLA BLA BLA BLA BLA BLA BLA 
BLA BLA BLA BLA BLA BLA BLA BLA BLA BLA BLA BLA BLA BLA BLA BLA BLA BLA BLA BLA 
BLA BLA BLA BLA BLA BLA BLA BLA BLA BLA BLA BLA BLA BLA BLA BLA BLA BLA BLA BLA 
BLA BLA BLA BLA BLA BLA BLA BLA BLA BLA BLA BLA BLA BLA BLA BLA BLA BLA BLA BLA 
BLA BLA BLA BLA BLA BLA BLA BLA BLA BLA BLA BLA BLA BLA BLA BLA BLA BLA BLA BLA 
BLA BLA BLA BLA BLA BLA BLA BLA BLA BLA BLA BLA BLA BLA BLA BLA BLA BLA BLA BLA 
BLA BLA BLA BLA BLA BLA BLA BLA BLA BLA BLA BLA BLA BLA BLA BLA BLA BLA BLA BLA 
BLA BLA BLA BLA BLA BLA BLA BLA BLA BLA BLA BLA BLA BLA BLA BLA BLA BLA BLA BLA 
BLA BLA BLA BLA BLA BLA BLA BLA BLA BLA BLA BLA BLA BLA BLA BLA BLA BLA BLA BLA 
BLA BLA BLA BLA BLA BLA BLA BLA BLA BLA BLA BLA BLA BLA BLA BLA BLA BLA BLA BLA 
BLA BLA BLA BLA BLA BLA BLA BLA BLA BLA BLA BLA BLA BLA BLA BLA BLA BLA BLA BLA 
BLA BLA BLA BLA BLA BLA BLA BLA BLA BLA BLA BLA BLA BLA BLA BLA BLA BLA BLA BLA 
BLA BLA BLA BLA BLA BLA BLA BLA BLA BLA BLA BLA BLA BLA BLA BLA BLA BLA BLA BLA 
BLA BLA BLA BLA BLA BLA BLA BLA BLA BLA BLA BLA BLA BLA BLA BLA BLA BLA BLA BLA 
BLA BLA BLA BLA BLA BLA BLA BLA BLA BLA BLA BLA BLA BLA BLA BLA BLA BLA BLA BLA 
BLA BLA BLA BLA BLA BLA BLA BLA BLA BLA BLA BLA BLA BLA BLA BLA BLA BLA BLA BLA 
BLA BLA BLA BLA BLA BLA BLA BLA BLA BLA BLA BLA BLA BLA BLA BLA BLA BLA BLA BLA 
BLA BLA BLA BLA BLA BLA BLA BLA BLA BLA BLA BLA BLA BLA BLA BLA BLA BLA BLA BLA 
BLA BLA BLA BLA BLA BLA BLA BLA BLA BLA BLA BLA BLA BLA BLA BLA BLA BLA BLA BLA 
BLA BLA BLA BLA BLA BLA BLA BLA BLA BLA BLA BLA BLA BLA BLA BLA BLA BLA BLA BLA 
BLA BLA BLA BLA BLA BLA BLA BLA BLA BLA BLA BLA BLA BLA BLA BLA BLA BLA BLA BLA 
BLA BLA BLA BLA BLA BLA BLA BLA BLA BLA BLA BLA BLA BLA BLA BLA BLA BLA BLA BLA 
BLA BLA BLA BLA BLA BLA BLA BLA BLA BLA BLA BLA BLA BLA BLA BLA BLA BLA BLA BLA 
BLA BLA BLA BLA BLA BLA BLA BLA BLA BLA BLA BLA BLA BLA BLA BLA BLA BLA BLA BLA 
BLA BLA BLA BLA BLA BLA BLA BLA BLA BLA BLA BLA BLA BLA BLA BLA BLA BLA BLA BLA 
BLA BLA BLA BLA BLA BLA BLA BLA BLA BLA BLA BLA BLA BLA BLA BLA BLA BLA BLA BLA 
BLA BLA BLA BLA BLA BLA BLA BLA BLA BLA BLA BLA BLA BLA BLA BLA BLA BLA BLA BLA 
BLA BLA BLA BLA BLA BLA BLA BLA BLA BLA BLA BLA BLA BLA BLA BLA BLA BLA BLA BLA 
BLA BLA BLA BLA BLA BLA BLA BLA BLA BLA BLA BLA BLA BLA BLA BLA BLA BLA BLA BLA 
BLA BLA BLA BLA BLA BLA BLA BLA BLA BLA BLA BLA BLA BLA BLA BLA BLA BLA BLA BLA 
BLA BLA BLA BLA BLA BLA BLA BLA BLA BLA BLA BLA BLA BLA BLA BLA BLA BLA BLA BLA 
BLA BLA BLA BLA BLA BLA BLA BLA BLA BLA BLA BLA BLA BLA BLA BLA BLA BLA BLA BLA 
BLA BLA BLA BLA BLA BLA BLA BLA BLA BLA BLA BLA BLA BLA BLA BLA BLA BLA BLA BLA 
BLA BLA BLA BLA BLA BLA BLA BLA BLA BLA BLA BLA BLA BLA BLA BLA BLA BLA BLA BLA 
BLA BLA BLA BLA BLA BLA BLA BLA BLA BLA BLA BLA BLA BLA BLA BLA BLA BLA BLA BLA 
BLA BLA BLA BLA BLA BLA BLA BLA BLA BLA BLA BLA BLA BLA BLA BLA BLA BLA BLA BLA 
BLA BLA BLA BLA BLA BLA BLA BLA BLA BLA BLA BLA BLA BLA BLA BLA BLA BLA BLA BLA 
BLA BLA BLA BLA BLA BLA BLA BLA BLA BLA BLA BLA BLA BLA BLA BLA BLA BLA BLA BLA 
BLA BLA BLA BLA BLA BLA BLA BLA BLA BLA BLA BLA BLA BLA BLA BLA BLA BLA BLA BLA 
BLA BLA BLA BLA BLA BLA BLA BLA BLA BLA BLA BLA BLA BLA BLA BLA BLA BLA BLA BLA 
BLA BLA BLA BLA BLA BLA BLA BLA BLA BLA BLA BLA BLA BLA BLA BLA BLA BLA BLA BLA 
BLA BLA BLA BLA BLA BLA BLA BLA BLA BLA BLA BLA BLA BLA BLA BLA BLA BLA BLA BLA 
BLA BLA BLA BLA BLA BLA BLA BLA BLA BLA BLA BLA BLA BLA BLA BLA BLA BLA BLA BLA 
BLA BLA BLA BLA BLA BLA BLA BLA BLA BLA BLA BLA BLA BLA BLA BLA BLA BLA BLA BLA 
BLA BLA BLA BLA BLA BLA BLA BLA BLA BLA BLA BLA BLA BLA BLA BLA BLA BLA BLA BLA 
BLA BLA BLA BLA BLA BLA BLA BLA BLA BLA BLA BLA BLA BLA BLA BLA BLA BLA BLA BLA 
BLA BLA BLA BLA BLA BLA BLA BLA BLA BLA BLA BLA BLA BLA BLA BLA BLA BLA BLA BLA 
BLA BLA BLA BLA BLA BLA BLA BLA BLA BLA BLA BLA BLA BLA BLA BLA BLA BLA BLA BLA 
BLA BLA BLA BLA BLA BLA BLA BLA BLA BLA BLA BLA BLA BLA BLA BLA BLA BLA BLA BLA 
BLA BLA BLA BLA BLA BLA BLA BLA BLA BLA BLA BLA BLA BLA BLA BLA BLA BLA BLA BLA 
BLA BLA BLA BLA BLA BLA BLA BLA BLA BLA BLA BLA BLA BLA BLA BLA BLA BLA BLA BLA 
BLA BLA BLA BLA BLA BLA BLA BLA BLA BLA BLA BLA BLA BLA BLA BLA BLA BLA BLA BLA 
BLA BLA BLA BLA BLA BLA BLA BLA BLA BLA BLA BLA BLA BLA BLA BLA BLA BLA BLA BLA 
BLA BLA BLA BLA BLA BLA BLA BLA BLA BLA BLA BLA BLA BLA BLA BLA BLA BLA BLA BLA 
BLA BLA BLA BLA BLA BLA BLA BLA BLA BLA BLA BLA BLA BLA BLA BLA BLA BLA BLA BLA 
BLA BLA BLA BLA BLA BLA BLA BLA BLA BLA BLA BLA BLA BLA BLA BLA BLA BLA BLA BLA 
BLA BLA BLA BLA BLA BLA BLA BLA BLA BLA BLA BLA BLA BLA BLA BLA BLA BLA BLA BLA 
BLA BLA BLA BLA BLA BLA BLA BLA BLA BLA BLA BLA BLA BLA BLA BLA BLA BLA BLA BLA 
BLA BLA BLA BLA BLA BLA BLA BLA BLA BLA BLA BLA BLA BLA BLA BLA BLA BLA BLA BLA 
BLA BLA BLA BLA BLA BLA BLA BLA BLA BLA BLA BLA BLA BLA BLA BLA BLA BLA BLA BLA 
BLA BLA BLA BLA BLA BLA BLA BLA BLA BLA BLA BLA BLA BLA BLA BLA BLA BLA BLA BLA 
BLA BLA BLA BLA BLA BLA BLA BLA BLA BLA BLA BLA BLA BLA BLA BLA BLA BLA BLA BLA 
BLA BLA BLA BLA BLA BLA BLA BLA BLA BLA BLA BLA BLA BLA BLA BLA BLA BLA BLA BLA 
BLA BLA BLA BLA BLA BLA BLA BLA BLA BLA BLA BLA BLA BLA BLA BLA BLA BLA BLA BLA 
BLA BLA BLA BLA BLA BLA BLA BLA BLA BLA BLA BLA BLA BLA BLA BLA BLA BLA BLA BLA 
BLA BLA BLA BLA BLA BLA BLA BLA BLA BLA BLA BLA BLA BLA BLA BLA BLA BLA BLA BLA 
BLA BLA BLA BLA BLA BLA BLA BLA BLA BLA BLA BLA BLA BLA BLA BLA BLA BLA BLA BLA 
BLA BLA BLA BLA BLA BLA BLA BLA BLA BLA BLA BLA BLA BLA BLA BLA BLA BLA BLA BLA 
BLA BLA BLA BLA BLA BLA BLA BLA BLA BLA BLA BLA BLA BLA BLA BLA BLA BLA BLA BLA 
BLA BLA BLA BLA BLA BLA BLA BLA BLA BLA BLA BLA BLA BLA BLA BLA BLA BLA BLA BLA 
BLA BLA BLA BLA BLA BLA BLA BLA BLA BLA BLA BLA BLA BLA BLA BLA BLA BLA BLA BLA 
BLA BLA BLA BLA BLA BLA BLA BLA BLA BLA BLA BLA BLA BLA BLA BLA BLA BLA BLA BLA 
BLA BLA BLA BLA BLA BLA BLA BLA BLA BLA BLA BLA BLA BLA BLA BLA BLA BLA BLA BLA 
BLA BLA BLA BLA BLA BLA BLA BLA BLA BLA BLA BLA BLA BLA BLA BLA BLA BLA BLA BLA 
BLA BLA BLA BLA BLA BLA BLA BLA BLA BLA BLA BLA BLA BLA BLA BLA BLA BLA BLA BLA 
BLA BLA BLA BLA BLA BLA BLA BLA BLA BLA BLA BLA BLA BLA BLA BLA BLA BLA BLA BLA 
BLA BLA BLA BLA BLA BLA BLA BLA BLA BLA BLA BLA BLA BLA BLA BLA BLA BLA BLA BLA 
BLA BLA BLA BLA BLA BLA BLA BLA BLA BLA BLA BLA BLA BLA BLA BLA BLA BLA BLA BLA 
BLA BLA BLA BLA BLA BLA BLA BLA BLA BLA BLA BLA BLA BLA BLA BLA BLA BLA BLA BLA 
BLA BLA BLA BLA BLA BLA BLA BLA BLA BLA BLA BLA BLA BLA BLA BLA BLA BLA BLA BLA 
BLA BLA BLA BLA BLA BLA BLA BLA BLA BLA BLA BLA BLA BLA BLA BLA BLA BLA BLA BLA 
BLA BLA BLA BLA BLA BLA BLA BLA BLA BLA BLA BLA BLA BLA BLA BLA BLA BLA BLA BLA 
BLA BLA BLA BLA BLA BLA BLA BLA BLA BLA BLA BLA BLA BLA BLA BLA BLA BLA BLA BLA 
BLA BLA BLA BLA BLA BLA BLA BLA BLA BLA BLA BLA BLA BLA BLA BLA BLA BLA BLA BLA 
BLA BLA BLA BLA BLA BLA BLA BLA BLA BLA BLA BLA BLA BLA BLA BLA BLA BLA BLA BLA 
BLA BLA BLA BLA BLA BLA BLA BLA BLA BLA BLA BLA BLA BLA BLA BLA BLA BLA BLA BLA 
BLA BLA BLA BLA BLA BLA BLA BLA BLA BLA BLA BLA BLA BLA BLA BLA BLA BLA BLA BLA 
BLA BLA BLA BLA BLA BLA BLA BLA BLA BLA BLA BLA BLA BLA BLA BLA BLA BLA BLA BLA 
BLA BLA BLA BLA BLA BLA BLA BLA BLA BLA BLA BLA BLA BLA BLA BLA BLA BLA BLA BLA 
BLA BLA BLA BLA BLA BLA BLA BLA BLA BLA BLA BLA BLA BLA BLA BLA BLA BLA BLA BLA 
BLA BLA BLA BLA BLA BLA BLA BLA BLA BLA BLA BLA BLA BLA BLA BLA BLA BLA BLA BLA 
BLA BLA BLA BLA BLA BLA BLA BLA BLA BLA BLA BLA BLA BLA BLA BLA BLA BLA BLA BLA 
BLA BLA BLA BLA BLA BLA BLA BLA BLA BLA BLA BLA BLA BLA BLA BLA BLA BLA BLA BLA 
BLA BLA BLA BLA BLA BLA BLA BLA BLA BLA BLA BLA BLA BLA BLA BLA BLA BLA BLA BLA 
BLA BLA BLA BLA BLA BLA BLA BLA BLA BLA BLA BLA BLA BLA BLA BLA BLA BLA BLA BLA 
BLA BLA BLA BLA BLA BLA BLA BLA BLA BLA BLA BLA BLA BLA BLA BLA BLA BLA BLA BLA 
BLA BLA BLA BLA BLA BLA BLA BLA BLA BLA BLA BLA BLA BLA BLA BLA BLA BLA BLA BLA 
BLA BLA BLA BLA BLA BLA BLA BLA BLA BLA BLA BLA BLA BLA BLA BLA BLA BLA BLA BLA 
BLA BLA BLA BLA BLA BLA BLA BLA BLA BLA BLA BLA BLA BLA BLA BLA BLA BLA BLA BLA 
BLA BLA BLA BLA BLA BLA BLA BLA BLA BLA BLA BLA BLA BLA BLA BLA BLA BLA BLA BLA 
BLA BLA BLA BLA BLA BLA BLA BLA BLA BLA BLA BLA BLA BLA BLA BLA BLA BLA BLA BLA 
BLA BLA BLA BLA BLA BLA BLA BLA BLA BLA BLA BLA BLA BLA BLA BLA BLA BLA BLA BLA 
BLA BLA BLA BLA BLA BLA BLA BLA BLA BLA BLA BLA BLA BLA BLA BLA BLA BLA BLA BLA 
BLA BLA BLA BLA BLA BLA BLA BLA BLA BLA BLA BLA BLA BLA BLA BLA BLA BLA BLA BLA 
BLA BLA BLA BLA BLA BLA BLA BLA BLA BLA BLA BLA BLA BLA BLA BLA BLA BLA BLA BLA 
BLA BLA BLA BLA BLA BLA BLA BLA BLA BLA BLA BLA BLA BLA BLA BLA BLA BLA BLA BLA 
BLA BLA BLA BLA BLA BLA BLA BLA BLA BLA BLA BLA BLA BLA BLA BLA BLA BLA BLA BLA 
BLA BLA BLA BLA BLA BLA BLA BLA BLA BLA BLA BLA BLA BLA BLA BLA BLA BLA BLA BLA 
BLA BLA BLA BLA BLA BLA BLA BLA BLA BLA BLA BLA BLA BLA BLA BLA BLA BLA BLA BLA 
BLA BLA BLA BLA BLA BLA BLA BLA BLA BLA BLA BLA BLA BLA BLA BLA BLA BLA BLA BLA 
BLA BLA BLA BLA BLA BLA BLA BLA BLA BLA BLA BLA BLA BLA BLA BLA BLA BLA BLA BLA 
BLA BLA BLA BLA BLA BLA BLA BLA BLA BLA BLA BLA BLA BLA BLA BLA BLA BLA BLA BLA 
BLA BLA BLA BLA BLA BLA BLA BLA BLA BLA BLA BLA BLA BLA BLA BLA BLA BLA BLA BLA 
BLA BLA BLA BLA BLA BLA BLA BLA BLA BLA BLA BLA BLA BLA BLA BLA BLA BLA BLA BLA 
BLA BLA BLA BLA BLA BLA BLA BLA BLA BLA BLA BLA BLA BLA BLA BLA BLA BLA BLA BLA 
BLA BLA BLA BLA BLA BLA BLA BLA BLA BLA BLA BLA BLA BLA BLA BLA BLA BLA BLA BLA 
BLA BLA BLA BLA BLA BLA BLA BLA BLA BLA BLA BLA BLA BLA BLA BLA BLA BLA BLA BLA 
BLA BLA BLA BLA BLA BLA BLA BLA BLA BLA BLA BLA BLA BLA BLA BLA BLA BLA BLA BLA 
BLA BLA BLA BLA BLA BLA BLA BLA BLA BLA BLA BLA BLA BLA BLA BLA BLA BLA BLA BLA 
BLA BLA BLA BLA BLA BLA BLA BLA BLA BLA BLA BLA BLA BLA BLA BLA BLA BLA BLA BLA 
BLA BLA BLA BLA BLA BLA BLA BLA BLA BLA BLA BLA BLA BLA BLA BLA BLA BLA BLA BLA 
BLA BLA BLA BLA BLA BLA BLA BLA BLA BLA BLA BLA BLA BLA BLA BLA BLA BLA BLA BLA 
BLA BLA BLA BLA BLA BLA BLA BLA BLA BLA BLA BLA BLA BLA BLA BLA BLA BLA BLA BLA 
BLA BLA BLA BLA BLA BLA BLA BLA BLA BLA BLA BLA BLA BLA BLA BLA BLA BLA BLA BLA 
BLA BLA BLA BLA BLA BLA BLA BLA BLA BLA BLA BLA BLA BLA BLA BLA BLA BLA BLA BLA 
BLA BLA BLA BLA BLA BLA BLA BLA BLA BLA BLA BLA BLA BLA BLA BLA BLA BLA BLA BLA 
BLA BLA BLA BLA BLA BLA BLA BLA BLA BLA BLA BLA BLA BLA BLA BLA BLA BLA BLA BLA 
BLA BLA BLA BLA BLA BLA BLA BLA BLA BLA BLA BLA BLA BLA BLA BLA BLA BLA BLA BLA 
BLA BLA BLA BLA BLA BLA BLA BLA BLA BLA BLA BLA BLA BLA BLA BLA BLA BLA BLA BLA 
BLA BLA BLA BLA BLA BLA BLA BLA BLA BLA BLA BLA BLA BLA BLA BLA BLA BLA BLA BLA 
BLA BLA BLA BLA BLA BLA BLA BLA BLA BLA BLA BLA BLA BLA BLA BLA BLA BLA BLA BLA 
BLA BLA BLA BLA BLA BLA BLA BLA BLA BLA BLA BLA BLA BLA BLA BLA BLA BLA BLA BLA 
BLA BLA BLA BLA BLA BLA BLA BLA BLA BLA BLA BLA BLA BLA BLA BLA BLA BLA BLA BLA 
BLA BLA BLA BLA BLA BLA BLA BLA BLA BLA BLA BLA BLA BLA BLA BLA BLA BLA BLA BLA 
BLA BLA BLA BLA BLA BLA BLA BLA BLA BLA BLA BLA BLA BLA BLA BLA BLA BLA BLA BLA 
BLA BLA BLA BLA BLA BLA BLA BLA BLA BLA BLA BLA BLA BLA BLA BLA BLA BLA BLA BLA 
BLA BLA BLA BLA BLA BLA BLA BLA BLA BLA BLA BLA BLA BLA BLA BLA BLA BLA BLA BLA 
BLA BLA BLA BLA BLA BLA BLA BLA BLA BLA BLA BLA BLA BLA BLA BLA BLA BLA BLA BLA 
BLA BLA BLA BLA BLA BLA BLA BLA BLA BLA BLA BLA BLA BLA BLA BLA BLA BLA BLA BLA 
BLA BLA BLA BLA BLA BLA BLA BLA BLA BLA BLA BLA BLA BLA BLA BLA BLA BLA BLA BLA 
BLA BLA BLA BLA BLA BLA BLA BLA BLA BLA BLA BLA BLA BLA BLA BLA BLA BLA BLA BLA 
BLA BLA BLA BLA BLA BLA BLA BLA BLA BLA BLA BLA BLA BLA BLA BLA BLA BLA BLA BLA 
BLA BLA BLA BLA BLA BLA BLA BLA BLA BLA BLA BLA BLA BLA BLA BLA BLA BLA BLA BLA 
BLA BLA BLA BLA BLA BLA BLA BLA BLA BLA BLA BLA BLA BLA BLA BLA BLA BLA BLA BLA 
BLA BLA BLA BLA BLA BLA BLA BLA BLA BLA BLA BLA BLA BLA BLA BLA BLA BLA BLA BLA 
BLA BLA BLA BLA BLA BLA BLA BLA BLA BLA BLA BLA BLA BLA BLA BLA BLA BLA BLA BLA 
BLA BLA BLA BLA BLA BLA BLA BLA BLA BLA BLA BLA BLA BLA BLA BLA BLA BLA BLA BLA 
BLA BLA BLA BLA BLA BLA BLA BLA BLA BLA BLA BLA BLA BLA BLA BLA BLA BLA BLA BLA 
BLA BLA BLA BLA BLA BLA BLA BLA BLA BLA BLA BLA BLA BLA BLA BLA BLA BLA BLA BLA 
BLA BLA BLA BLA BLA BLA BLA BLA BLA BLA BLA BLA BLA BLA BLA BLA BLA BLA BLA BLA 
BLA BLA BLA BLA BLA BLA BLA BLA BLA BLA BLA BLA BLA BLA BLA BLA BLA BLA BLA BLA 
BLA BLA BLA BLA BLA BLA BLA BLA BLA BLA BLA BLA BLA BLA BLA BLA BLA BLA BLA BLA 
BLA BLA BLA BLA BLA BLA BLA BLA BLA BLA BLA BLA BLA BLA BLA BLA BLA BLA BLA BLA 
BLA BLA BLA BLA BLA BLA BLA BLA BLA BLA BLA BLA BLA BLA BLA BLA BLA BLA BLA BLA 
BLA BLA BLA BLA BLA BLA BLA BLA BLA BLA BLA BLA BLA BLA BLA BLA BLA BLA BLA BLA 
BLA BLA BLA BLA BLA BLA BLA BLA BLA BLA BLA BLA BLA BLA BLA BLA BLA BLA BLA BLA 
BLA BLA BLA BLA BLA BLA BLA BLA BLA BLA BLA BLA BLA BLA BLA BLA BLA BLA BLA BLA 
BLA BLA BLA BLA BLA BLA BLA BLA BLA BLA BLA BLA BLA BLA BLA BLA BLA BLA BLA BLA 
BLA BLA BLA BLA BLA BLA BLA BLA BLA BLA BLA BLA BLA BLA BLA BLA BLA BLA BLA BLA 
BLA BLA BLA BLA BLA BLA BLA BLA BLA BLA BLA BLA BLA BLA BLA BLA BLA BLA BLA BLA 
BLA BLA BLA BLA BLA BLA BLA BLA BLA BLA BLA BLA BLA BLA BLA BLA BLA BLA BLA BLA 
BLA BLA BLA BLA BLA BLA BLA BLA BLA BLA BLA BLA BLA BLA BLA BLA BLA BLA BLA BLA 
BLA BLA BLA BLA BLA BLA BLA BLA BLA BLA BLA BLA BLA BLA BLA BLA BLA BLA BLA BLA 
BLA BLA BLA BLA BLA BLA BLA BLA BLA BLA BLA BLA BLA BLA BLA BLA BLA BLA BLA BLA 
BLA BLA BLA BLA BLA BLA BLA BLA BLA BLA BLA BLA BLA BLA BLA BLA BLA BLA BLA BLA 
BLA BLA BLA BLA BLA BLA BLA BLA BLA BLA BLA BLA BLA BLA BLA BLA BLA BLA BLA BLA 
BLA BLA BLA BLA BLA BLA BLA BLA BLA BLA BLA BLA BLA BLA BLA BLA BLA BLA BLA BLA 
BLA BLA BLA BLA BLA BLA BLA BLA BLA BLA BLA BLA BLA BLA BLA BLA BLA BLA BLA BLA 
BLA BLA BLA BLA BLA BLA BLA BLA BLA BLA BLA BLA BLA BLA BLA BLA BLA BLA BLA BLA 
BLA BLA BLA BLA BLA BLA BLA BLA BLA BLA BLA BLA BLA BLA BLA BLA BLA BLA BLA BLA 
BLA BLA BLA BLA BLA BLA BLA BLA BLA BLA BLA BLA BLA BLA BLA BLA BLA BLA BLA BLA 
BLA BLA BLA BLA BLA BLA BLA BLA BLA BLA BLA BLA BLA BLA BLA BLA BLA BLA BLA BLA 
BLA BLA BLA BLA BLA BLA BLA BLA BLA BLA BLA BLA BLA BLA BLA BLA BLA BLA BLA BLA 
BLA BLA BLA BLA BLA BLA BLA BLA BLA BLA BLA BLA BLA BLA BLA BLA BLA BLA BLA BLA 
BLA BLA BLA BLA BLA BLA BLA BLA BLA BLA BLA BLA BLA BLA BLA BLA BLA BLA BLA BLA 
BLA BLA BLA BLA BLA BLA BLA BLA BLA BLA BLA BLA BLA BLA BLA BLA BLA BLA BLA BLA 
BLA BLA BLA BLA BLA BLA BLA BLA BLA BLA BLA BLA BLA BLA BLA BLA BLA BLA BLA BLA 
BLA BLA BLA BLA BLA BLA BLA BLA BLA BLA BLA BLA BLA BLA BLA BLA BLA BLA BLA BLA 
BLA BLA BLA BLA BLA BLA BLA BLA BLA BLA BLA BLA BLA BLA BLA BLA BLA BLA BLA BLA 
BLA BLA BLA BLA BLA BLA BLA BLA BLA BLA BLA BLA BLA BLA BLA BLA BLA BLA BLA BLA 
BLA BLA BLA BLA BLA BLA BLA BLA BLA BLA BLA BLA BLA BLA BLA BLA BLA BLA BLA BLA 
BLA BLA BLA BLA BLA BLA BLA BLA BLA BLA BLA BLA BLA BLA BLA BLA BLA BLA BLA BLA 
BLA BLA BLA BLA BLA BLA BLA BLA BLA BLA BLA BLA BLA BLA BLA BLA BLA BLA BLA BLA 
BLA BLA BLA BLA BLA BLA BLA BLA BLA BLA BLA BLA BLA BLA BLA BLA BLA BLA BLA BLA 
BLA BLA BLA BLA BLA BLA BLA BLA BLA BLA BLA BLA BLA BLA BLA BLA BLA BLA BLA BLA 
BLA BLA BLA BLA BLA BLA BLA BLA BLA BLA BLA BLA BLA BLA BLA BLA BLA BLA BLA BLA 
BLA BLA BLA BLA BLA BLA BLA BLA BLA BLA BLA BLA BLA BLA BLA BLA BLA BLA BLA BLA 
BLA BLA BLA BLA BLA BLA BLA BLA BLA BLA BLA BLA BLA BLA BLA BLA BLA BLA BLA BLA 
BLA BLA BLA BLA BLA BLA BLA BLA BLA BLA BLA BLA BLA BLA BLA BLA BLA BLA BLA BLA 
BLA BLA BLA BLA BLA BLA BLA BLA BLA BLA BLA BLA BLA BLA BLA BLA BLA BLA BLA BLA 
BLA BLA BLA BLA BLA BLA BLA BLA BLA BLA BLA BLA BLA BLA BLA BLA BLA BLA BLA BLA 
BLA BLA BLA BLA BLA BLA BLA BLA BLA BLA BLA BLA BLA BLA BLA BLA BLA BLA BLA BLA 
BLA BLA BLA BLA BLA BLA BLA BLA BLA BLA BLA BLA BLA BLA BLA BLA BLA BLA BLA BLA 
BLA BLA BLA BLA BLA BLA BLA BLA BLA BLA BLA BLA BLA BLA BLA BLA BLA BLA BLA BLA 
BLA BLA BLA BLA BLA BLA BLA BLA BLA BLA BLA BLA BLA BLA BLA BLA BLA BLA BLA BLA 
BLA BLA BLA BLA BLA BLA BLA BLA BLA BLA BLA BLA BLA BLA BLA BLA BLA BLA BLA BLA 
BLA BLA BLA BLA BLA BLA BLA BLA BLA BLA BLA BLA BLA BLA BLA BLA BLA BLA BLA BLA 
BLA BLA BLA BLA BLA BLA BLA BLA BLA BLA BLA BLA BLA BLA BLA BLA BLA BLA BLA BLA 
BLA BLA BLA BLA BLA BLA BLA BLA BLA BLA BLA BLA BLA BLA BLA BLA BLA BLA BLA BLA 
BLA BLA BLA BLA BLA BLA BLA BLA BLA BLA BLA BLA BLA BLA BLA BLA BLA BLA BLA BLA 
BLA BLA BLA BLA BLA BLA BLA BLA BLA BLA BLA BLA BLA BLA BLA BLA BLA BLA BLA BLA 
BLA BLA BLA BLA BLA BLA BLA BLA BLA BLA BLA BLA BLA BLA BLA BLA BLA BLA BLA BLA 
BLA BLA BLA BLA BLA BLA BLA BLA BLA BLA BLA BLA BLA BLA BLA BLA BLA BLA BLA BLA 
BLA BLA BLA BLA BLA BLA BLA BLA BLA BLA BLA BLA BLA BLA BLA BLA BLA BLA BLA BLA 
BLA BLA BLA BLA BLA BLA BLA BLA BLA BLA BLA BLA BLA BLA BLA BLA BLA BLA BLA BLA 
BLA BLA BLA BLA BLA BLA BLA BLA BLA BLA BLA BLA BLA BLA BLA BLA BLA BLA BLA BLA 
BLA BLA BLA BLA BLA BLA BLA BLA BLA BLA BLA BLA BLA BLA BLA BLA BLA BLA BLA BLA 
BLA BLA BLA BLA BLA BLA BLA BLA BLA BLA BLA BLA BLA BLA BLA BLA BLA BLA BLA BLA 
BLA BLA BLA BLA BLA BLA BLA BLA BLA BLA BLA BLA BLA BLA BLA BLA BLA BLA BLA BLA 
BLA BLA BLA BLA BLA BLA BLA BLA BLA BLA BLA BLA BLA BLA BLA BLA BLA BLA BLA BLA 
BLA BLA BLA BLA BLA BLA BLA BLA BLA BLA BLA BLA BLA BLA BLA BLA BLA BLA BLA BLA 
BLA BLA BLA BLA BLA BLA BLA BLA BLA BLA BLA BLA BLA BLA BLA BLA BLA BLA BLA BLA 
BLA BLA BLA BLA BLA BLA BLA BLA BLA BLA BLA BLA BLA BLA BLA BLA BLA BLA BLA BLA 
BLA BLA BLA BLA BLA BLA BLA BLA BLA BLA BLA BLA BLA BLA BLA BLA BLA BLA BLA BLA 
BLA BLA BLA BLA BLA BLA BLA BLA BLA BLA BLA BLA BLA BLA BLA BLA BLA BLA BLA BLA 
BLA BLA BLA BLA BLA BLA BLA BLA BLA BLA BLA BLA BLA BLA BLA BLA BLA BLA BLA BLA 
BLA BLA BLA BLA BLA BLA BLA BLA BLA BLA BLA BLA BLA BLA BLA BLA BLA BLA BLA BLA 
BLA BLA BLA BLA BLA BLA BLA BLA BLA BLA BLA BLA BLA BLA BLA BLA BLA BLA BLA BLA 
BLA BLA BLA BLA BLA BLA BLA BLA BLA BLA BLA BLA BLA BLA BLA BLA BLA BLA BLA BLA 
BLA BLA BLA BLA BLA BLA BLA BLA BLA BLA BLA BLA BLA BLA BLA BLA BLA BLA BLA BLA 
BLA BLA BLA BLA BLA BLA BLA BLA BLA BLA BLA BLA BLA BLA BLA BLA BLA BLA BLA BLA 
BLA BLA BLA BLA BLA BLA BLA BLA BLA BLA BLA BLA BLA BLA BLA BLA BLA BLA BLA BLA 
BLA BLA BLA BLA BLA BLA BLA BLA BLA BLA BLA BLA BLA BLA BLA BLA BLA BLA BLA BLA 
BLA BLA BLA BLA BLA BLA BLA BLA BLA BLA BLA BLA BLA BLA BLA BLA BLA BLA BLA BLA 
BLA BLA BLA BLA BLA BLA BLA BLA BLA BLA BLA BLA BLA BLA BLA BLA BLA BLA BLA BLA 
BLA BLA BLA BLA BLA BLA BLA BLA BLA BLA BLA BLA BLA BLA BLA BLA BLA BLA BLA BLA 
BLA BLA BLA BLA BLA BLA BLA BLA BLA BLA BLA BLA BLA BLA BLA BLA BLA BLA BLA BLA 
BLA BLA BLA BLA BLA BLA BLA BLA BLA BLA BLA BLA BLA BLA BLA BLA BLA BLA BLA BLA 
BLA BLA BLA BLA BLA BLA BLA BLA BLA BLA BLA BLA BLA BLA BLA BLA BLA BLA BLA BLA 
BLA BLA BLA BLA BLA BLA BLA BLA BLA BLA BLA BLA BLA BLA BLA BLA BLA BLA BLA BLA 
BLA BLA BLA BLA BLA BLA BLA BLA BLA BLA BLA BLA BLA BLA BLA BLA BLA BLA BLA BLA 
BLA BLA BLA BLA BLA BLA BLA BLA BLA BLA BLA BLA BLA BLA BLA BLA BLA BLA BLA BLA 
BLA BLA BLA BLA BLA BLA BLA BLA BLA BLA BLA BLA BLA BLA BLA BLA BLA BLA BLA BLA 
BLA BLA BLA BLA BLA BLA BLA BLA BLA BLA BLA BLA BLA BLA BLA BLA BLA BLA BLA BLA 
BLA BLA BLA BLA BLA BLA BLA BLA BLA BLA BLA BLA BLA BLA BLA BLA BLA BLA BLA BLA 
BLA BLA BLA BLA BLA BLA BLA BLA BLA BLA BLA BLA BLA BLA BLA BLA BLA BLA BLA BLA 
BLA BLA BLA BLA BLA BLA BLA BLA BLA BLA BLA BLA BLA BLA BLA BLA BLA BLA BLA BLA 
BLA BLA BLA BLA BLA BLA BLA BLA BLA BLA BLA BLA BLA BLA BLA BLA BLA BLA BLA BLA 
BLA BLA BLA BLA BLA BLA BLA BLA BLA BLA BLA BLA BLA BLA BLA BLA BLA BLA BLA BLA 
BLA BLA BLA BLA BLA BLA BLA BLA BLA BLA BLA BLA BLA BLA BLA BLA BLA BLA BLA BLA 
BLA BLA BLA BLA BLA BLA BLA BLA BLA BLA BLA BLA BLA BLA BLA BLA BLA BLA BLA BLA 
BLA BLA BLA BLA BLA BLA BLA BLA BLA BLA BLA BLA BLA BLA BLA BLA BLA BLA BLA BLA 
BLA BLA BLA BLA BLA BLA BLA BLA BLA BLA BLA BLA BLA BLA BLA BLA BLA BLA BLA BLA 
BLA BLA BLA BLA BLA BLA BLA BLA BLA BLA BLA BLA BLA BLA BLA BLA BLA BLA BLA BLA 
BLA BLA BLA BLA BLA BLA BLA BLA BLA BLA BLA BLA BLA BLA BLA BLA BLA BLA BLA BLA 
BLA BLA BLA BLA BLA BLA BLA BLA BLA BLA BLA BLA BLA BLA BLA BLA BLA BLA BLA BLA 
BLA BLA BLA BLA BLA BLA BLA BLA BLA BLA BLA BLA BLA BLA BLA BLA BLA BLA BLA BLA 
BLA BLA BLA BLA BLA BLA BLA BLA BLA BLA BLA BLA BLA BLA BLA BLA BLA BLA BLA BLA 
BLA BLA BLA BLA BLA BLA BLA BLA BLA BLA BLA BLA BLA BLA BLA BLA BLA BLA BLA BLA 
BLA BLA BLA BLA BLA BLA BLA BLA BLA BLA BLA BLA BLA BLA BLA BLA BLA BLA BLA BLA 
BLA BLA BLA BLA BLA BLA BLA BLA BLA BLA BLA BLA BLA BLA BLA BLA BLA BLA BLA BLA 
BLA BLA BLA BLA BLA BLA BLA BLA BLA BLA BLA BLA BLA BLA BLA BLA BLA BLA BLA BLA 
BLA BLA BLA BLA BLA BLA BLA BLA BLA BLA BLA BLA BLA BLA BLA BLA BLA BLA BLA BLA 
BLA BLA BLA BLA BLA BLA BLA BLA BLA BLA BLA BLA BLA BLA BLA BLA BLA BLA BLA BLA 
BLA BLA BLA BLA BLA BLA BLA BLA BLA BLA BLA BLA BLA BLA BLA BLA BLA BLA BLA BLA 
BLA BLA BLA BLA BLA BLA BLA BLA BLA BLA BLA BLA BLA BLA BLA BLA BLA BLA BLA BLA 
BLA BLA BLA BLA BLA BLA BLA BLA BLA BLA BLA BLA BLA BLA BLA BLA BLA BLA BLA BLA 
BLA BLA BLA BLA BLA BLA BLA BLA BLA BLA BLA BLA BLA BLA BLA BLA BLA BLA BLA BLA 
BLA BLA BLA BLA BLA BLA BLA BLA BLA BLA BLA BLA BLA BLA BLA BLA BLA BLA BLA BLA 
BLA BLA BLA BLA BLA BLA BLA BLA BLA BLA BLA BLA BLA BLA BLA BLA BLA BLA BLA BLA 
BLA BLA BLA BLA BLA BLA BLA BLA BLA BLA BLA BLA BLA BLA BLA BLA BLA BLA BLA BLA 
BLA BLA BLA BLA BLA BLA BLA BLA BLA BLA BLA BLA BLA BLA BLA BLA BLA BLA BLA BLA 
BLA BLA BLA BLA BLA BLA BLA BLA BLA BLA BLA BLA BLA BLA BLA BLA BLA BLA BLA BLA 
BLA BLA BLA BLA BLA BLA BLA BLA BLA BLA BLA BLA BLA BLA BLA BLA BLA BLA BLA BLA 
BLA BLA BLA BLA BLA BLA BLA BLA BLA BLA BLA BLA BLA BLA BLA BLA BLA BLA BLA BLA 
BLA BLA BLA BLA BLA BLA BLA BLA BLA BLA BLA BLA BLA BLA BLA BLA BLA BLA BLA BLA 
BLA BLA BLA BLA BLA BLA BLA BLA BLA BLA BLA BLA BLA BLA BLA BLA BLA BLA BLA BLA 
BLA BLA BLA BLA BLA BLA BLA BLA BLA BLA BLA BLA BLA BLA BLA BLA BLA BLA BLA BLA 
BLA BLA BLA BLA BLA BLA BLA BLA BLA BLA BLA BLA BLA BLA BLA BLA BLA BLA BLA BLA 
BLA BLA BLA BLA BLA BLA BLA BLA BLA BLA BLA BLA BLA BLA BLA BLA BLA BLA BLA BLA 
BLA BLA BLA BLA BLA BLA BLA BLA BLA BLA BLA BLA BLA BLA BLA BLA BLA BLA BLA BLA 
BLA BLA BLA BLA BLA BLA BLA BLA BLA BLA BLA BLA BLA BLA BLA BLA BLA BLA BLA BLA 
BLA BLA BLA BLA BLA BLA BLA BLA BLA BLA BLA BLA BLA BLA BLA BLA BLA BLA BLA BLA 
BLA BLA BLA BLA BLA BLA BLA BLA BLA BLA BLA BLA BLA BLA BLA BLA BLA BLA BLA BLA 
BLA BLA BLA BLA BLA BLA BLA BLA BLA BLA BLA BLA BLA BLA BLA BLA BLA BLA BLA BLA 
BLA BLA BLA BLA BLA BLA BLA BLA BLA BLA BLA BLA BLA BLA BLA BLA BLA BLA BLA BLA 
BLA BLA BLA BLA BLA BLA BLA BLA BLA BLA BLA BLA BLA BLA BLA BLA BLA BLA BLA BLA 
BLA BLA BLA BLA BLA BLA BLA BLA BLA BLA BLA BLA BLA BLA BLA BLA BLA BLA BLA BLA 
BLA BLA BLA BLA BLA BLA BLA BLA BLA BLA BLA BLA BLA BLA BLA BLA BLA BLA BLA BLA 
BLA BLA BLA BLA BLA BLA BLA BLA BLA BLA BLA BLA BLA BLA BLA BLA BLA BLA BLA BLA 
BLA BLA BLA BLA BLA BLA BLA BLA BLA BLA BLA BLA BLA BLA BLA BLA BLA BLA BLA BLA 
BLA BLA BLA BLA BLA BLA BLA BLA BLA BLA BLA BLA BLA BLA BLA BLA BLA BLA BLA BLA 
BLA BLA BLA BLA BLA BLA BLA BLA BLA BLA BLA BLA BLA BLA BLA BLA BLA BLA BLA BLA 
BLA BLA BLA BLA BLA BLA BLA BLA BLA BLA BLA BLA BLA BLA BLA BLA BLA BLA BLA BLA 
BLA BLA BLA BLA BLA BLA BLA BLA BLA BLA BLA BLA BLA BLA BLA BLA BLA BLA BLA BLA 
BLA BLA BLA BLA BLA BLA BLA BLA BLA BLA BLA BLA BLA BLA BLA BLA BLA BLA BLA BLA 
BLA BLA BLA BLA BLA BLA BLA BLA BLA BLA BLA BLA BLA BLA BLA BLA BLA BLA BLA BLA 
BLA BLA BLA BLA BLA BLA BLA BLA BLA BLA BLA BLA BLA BLA BLA BLA BLA BLA BLA BLA 
BLA BLA BLA BLA BLA BLA BLA BLA BLA BLA BLA BLA BLA BLA BLA BLA BLA BLA BLA BLA 
BLA BLA BLA BLA BLA BLA BLA BLA BLA BLA BLA BLA BLA BLA BLA BLA BLA BLA BLA BLA 
BLA BLA BLA BLA BLA BLA BLA BLA BLA BLA BLA BLA BLA BLA BLA BLA BLA BLA BLA BLA 
BLA BLA BLA BLA BLA BLA BLA BLA BLA BLA BLA BLA BLA BLA BLA BLA BLA BLA BLA BLA 
BLA BLA BLA BLA BLA BLA BLA BLA BLA BLA BLA BLA BLA BLA BLA BLA BLA BLA BLA BLA 
BLA BLA BLA BLA BLA BLA BLA BLA BLA BLA BLA BLA BLA BLA BLA BLA BLA BLA BLA BLA 
BLA BLA BLA BLA BLA BLA BLA BLA BLA BLA BLA BLA BLA BLA BLA BLA BLA BLA BLA BLA 
BLA BLA BLA BLA BLA BLA BLA BLA BLA BLA BLA BLA BLA BLA BLA BLA BLA BLA BLA BLA 
BLA BLA BLA BLA BLA BLA BLA BLA BLA BLA BLA BLA BLA BLA BLA BLA BLA BLA BLA BLA 
BLA BLA BLA BLA BLA BLA BLA BLA BLA BLA BLA BLA BLA BLA BLA BLA BLA BLA BLA BLA 
BLA BLA BLA BLA BLA BLA BLA BLA BLA BLA BLA BLA BLA BLA BLA BLA BLA BLA BLA BLA 
BLA BLA BLA BLA BLA BLA BLA BLA BLA BLA BLA BLA BLA BLA BLA BLA BLA BLA BLA BLA 
BLA BLA BLA BLA BLA BLA BLA BLA BLA BLA BLA BLA BLA BLA BLA BLA BLA BLA BLA BLA 
BLA BLA BLA BLA BLA BLA BLA BLA BLA BLA BLA BLA BLA BLA BLA BLA BLA BLA BLA BLA 
BLA BLA BLA BLA BLA BLA BLA BLA BLA BLA BLA BLA BLA BLA BLA BLA BLA BLA BLA BLA 
BLA BLA BLA BLA BLA BLA BLA BLA BLA BLA BLA BLA BLA BLA BLA BLA BLA BLA BLA BLA 
BLA BLA BLA BLA BLA BLA BLA BLA BLA BLA BLA BLA BLA BLA BLA BLA BLA BLA BLA BLA 
BLA BLA BLA BLA BLA BLA BLA BLA BLA BLA BLA BLA BLA BLA BLA BLA BLA BLA BLA BLA 
BLA BLA BLA BLA BLA BLA BLA BLA BLA BLA BLA BLA BLA BLA BLA BLA BLA BLA BLA BLA 
BLA BLA BLA BLA BLA BLA BLA BLA BLA BLA BLA BLA BLA BLA BLA BLA BLA BLA BLA BLA 
BLA BLA BLA BLA BLA BLA BLA BLA BLA BLA BLA BLA BLA BLA BLA BLA BLA BLA BLA BLA 
BLA BLA BLA BLA BLA BLA BLA BLA BLA BLA BLA BLA BLA BLA BLA BLA BLA BLA BLA BLA 
BLA BLA BLA BLA BLA BLA BLA BLA BLA BLA BLA BLA BLA BLA BLA BLA BLA BLA BLA BLA 
BLA BLA BLA BLA BLA BLA BLA BLA BLA BLA BLA BLA BLA BLA BLA BLA BLA BLA BLA BLA 
BLA BLA BLA BLA BLA BLA BLA BLA BLA BLA BLA BLA BLA BLA BLA BLA BLA BLA BLA BLA 
BLA BLA BLA BLA BLA BLA BLA BLA BLA BLA BLA BLA BLA BLA BLA BLA BLA BLA BLA BLA 
BLA BLA BLA BLA BLA BLA BLA BLA BLA BLA BLA BLA BLA BLA BLA BLA BLA BLA BLA BLA 
BLA BLA BLA BLA BLA BLA BLA BLA BLA BLA BLA BLA BLA BLA BLA BLA BLA BLA BLA BLA 
BLA BLA BLA BLA BLA BLA BLA BLA BLA BLA BLA BLA BLA BLA BLA BLA BLA BLA BLA BLA 
BLA BLA BLA BLA BLA BLA BLA BLA BLA BLA BLA BLA BLA BLA BLA BLA BLA BLA BLA BLA 
BLA BLA BLA BLA BLA BLA BLA BLA BLA BLA BLA BLA BLA BLA BLA BLA BLA BLA BLA BLA 
BLA BLA BLA BLA BLA BLA BLA BLA BLA BLA BLA BLA BLA BLA BLA BLA BLA BLA BLA BLA 
BLA BLA BLA BLA BLA BLA BLA BLA BLA BLA BLA BLA BLA BLA BLA BLA BLA BLA BLA BLA 
BLA BLA BLA BLA BLA BLA BLA BLA BLA BLA BLA BLA BLA BLA BLA BLA BLA BLA BLA BLA 
BLA BLA BLA BLA BLA BLA BLA BLA BLA BLA BLA BLA BLA BLA BLA BLA BLA BLA BLA BLA 
BLA BLA BLA BLA BLA BLA BLA BLA BLA BLA BLA BLA BLA BLA BLA BLA BLA BLA BLA BLA 
BLA BLA BLA BLA BLA BLA BLA BLA BLA BLA BLA BLA BLA BLA BLA BLA BLA BLA BLA BLA 
BLA BLA BLA BLA BLA BLA BLA BLA BLA BLA BLA BLA BLA BLA BLA BLA BLA BLA BLA BLA 
BLA BLA BLA BLA BLA BLA BLA BLA BLA BLA BLA BLA BLA BLA BLA BLA BLA BLA BLA BLA 
BLA BLA BLA BLA BLA BLA BLA BLA BLA BLA BLA BLA BLA BLA BLA BLA BLA BLA BLA BLA 
BLA BLA BLA BLA BLA BLA BLA BLA BLA BLA BLA BLA BLA BLA BLA BLA BLA BLA BLA BLA 
BLA BLA BLA BLA BLA BLA BLA BLA BLA BLA BLA BLA BLA BLA BLA BLA BLA BLA BLA BLA 
BLA BLA BLA BLA BLA BLA BLA BLA BLA BLA BLA BLA BLA BLA BLA BLA BLA BLA BLA BLA 
BLA BLA BLA BLA BLA BLA BLA BLA BLA BLA BLA BLA BLA BLA BLA BLA BLA BLA BLA BLA 
BLA BLA BLA BLA BLA BLA BLA BLA BLA BLA BLA BLA BLA BLA BLA BLA BLA BLA BLA BLA 
BLA BLA BLA BLA BLA BLA BLA BLA BLA BLA BLA BLA BLA BLA BLA BLA BLA BLA BLA BLA 
BLA BLA BLA BLA BLA BLA BLA BLA BLA BLA BLA BLA BLA BLA BLA BLA BLA BLA BLA BLA 
BLA BLA BLA BLA BLA BLA BLA BLA BLA BLA BLA BLA BLA BLA BLA BLA BLA BLA BLA BLA 
BLA BLA BLA BLA BLA BLA BLA BLA BLA BLA BLA BLA BLA BLA BLA BLA BLA BLA BLA BLA 
BLA BLA BLA BLA BLA BLA BLA BLA BLA BLA BLA BLA BLA BLA BLA BLA BLA BLA BLA BLA 
BLA BLA BLA BLA BLA BLA BLA BLA BLA BLA BLA BLA BLA BLA BLA BLA BLA BLA BLA BLA 
BLA BLA BLA BLA BLA BLA BLA BLA BLA BLA BLA BLA BLA BLA BLA BLA BLA BLA BLA BLA 
BLA BLA BLA BLA BLA BLA BLA BLA BLA BLA BLA BLA BLA BLA BLA BLA BLA BLA BLA BLA 
BLA BLA BLA BLA BLA BLA BLA BLA BLA BLA BLA BLA BLA BLA BLA BLA BLA BLA BLA BLA 
BLA BLA BLA BLA BLA BLA BLA BLA BLA BLA BLA BLA BLA BLA BLA BLA BLA BLA BLA BLA 
BLA BLA BLA BLA BLA BLA BLA BLA BLA BLA BLA BLA BLA BLA BLA BLA BLA BLA BLA BLA 
BLA BLA BLA BLA BLA BLA BLA BLA BLA BLA BLA BLA BLA BLA BLA BLA BLA BLA BLA BLA 
BLA BLA BLA BLA BLA BLA BLA BLA BLA BLA BLA BLA BLA BLA BLA BLA BLA BLA BLA BLA 
BLA BLA BLA BLA BLA BLA BLA BLA BLA BLA BLA BLA BLA BLA BLA BLA BLA BLA BLA BLA 
BLA BLA BLA BLA BLA BLA BLA BLA BLA BLA BLA BLA BLA BLA BLA BLA BLA BLA BLA BLA 
BLA BLA BLA BLA BLA BLA BLA BLA BLA BLA BLA BLA BLA BLA BLA BLA BLA BLA BLA BLA 
BLA BLA BLA BLA BLA BLA BLA BLA BLA BLA BLA BLA BLA BLA BLA BLA BLA BLA BLA BLA 
BLA BLA BLA BLA BLA BLA BLA BLA BLA BLA BLA BLA BLA BLA BLA BLA BLA BLA BLA BLA 
BLA BLA BLA BLA BLA BLA BLA BLA BLA BLA BLA BLA BLA BLA BLA BLA BLA BLA BLA BLA 
BLA BLA BLA BLA BLA BLA BLA BLA BLA BLA BLA BLA BLA BLA BLA BLA BLA BLA BLA BLA 
BLA BLA BLA BLA BLA BLA BLA BLA BLA BLA BLA BLA BLA BLA BLA BLA BLA BLA BLA BLA 
BLA BLA BLA BLA BLA BLA BLA BLA BLA BLA BLA BLA BLA BLA BLA BLA BLA BLA BLA BLA 
BLA BLA BLA BLA BLA BLA BLA BLA BLA BLA BLA BLA BLA BLA BLA BLA BLA BLA BLA BLA 
BLA BLA BLA BLA BLA BLA BLA BLA BLA BLA BLA BLA BLA BLA BLA BLA BLA BLA BLA BLA 
BLA BLA BLA BLA BLA BLA BLA BLA BLA BLA BLA BLA BLA BLA BLA BLA BLA BLA BLA BLA 
BLA BLA BLA BLA BLA BLA BLA BLA BLA BLA BLA BLA BLA BLA BLA BLA BLA BLA BLA BLA 
BLA BLA BLA BLA BLA BLA BLA BLA BLA BLA BLA BLA BLA BLA BLA BLA BLA BLA BLA BLA 
BLA BLA BLA BLA BLA BLA BLA BLA BLA BLA BLA BLA BLA BLA BLA BLA BLA BLA BLA BLA 
BLA BLA BLA BLA BLA BLA BLA BLA BLA BLA BLA BLA BLA BLA BLA BLA BLA BLA BLA BLA 
BLA BLA BLA BLA BLA BLA BLA BLA BLA BLA BLA BLA BLA BLA BLA BLA BLA BLA BLA BLA 
BLA BLA BLA BLA BLA BLA BLA BLA BLA BLA BLA BLA BLA BLA BLA BLA BLA BLA BLA BLA 
BLA BLA BLA BLA BLA BLA BLA BLA BLA BLA BLA BLA BLA BLA BLA BLA BLA BLA BLA BLA 
BLA BLA BLA BLA BLA BLA BLA BLA BLA BLA BLA BLA BLA BLA BLA BLA BLA BLA BLA BLA 
BLA BLA BLA BLA BLA BLA BLA BLA BLA BLA BLA BLA BLA BLA BLA BLA BLA BLA BLA BLA 
BLA BLA BLA BLA BLA BLA BLA BLA BLA BLA BLA BLA BLA BLA BLA BLA BLA BLA BLA BLA 
BLA BLA BLA BLA BLA BLA BLA BLA BLA BLA BLA BLA BLA BLA BLA BLA BLA BLA BLA BLA 
BLA BLA BLA BLA BLA BLA BLA BLA BLA BLA BLA BLA BLA BLA BLA BLA BLA BLA BLA BLA 
BLA BLA BLA BLA BLA BLA BLA BLA BLA BLA BLA BLA BLA BLA BLA BLA BLA BLA BLA BLA 
BLA BLA BLA BLA BLA BLA BLA BLA BLA BLA BLA BLA BLA BLA BLA BLA BLA BLA BLA BLA 
BLA BLA BLA BLA BLA BLA BLA BLA BLA BLA BLA BLA BLA BLA BLA BLA BLA BLA BLA BLA 
BLA BLA BLA BLA BLA BLA BLA BLA BLA BLA BLA BLA BLA BLA BLA BLA BLA BLA BLA BLA 
BLA BLA BLA BLA BLA BLA BLA BLA BLA BLA BLA BLA BLA BLA BLA BLA BLA BLA BLA BLA 
BLA BLA BLA BLA BLA BLA BLA BLA BLA BLA BLA BLA BLA BLA BLA BLA BLA BLA BLA BLA 
BLA BLA BLA BLA BLA BLA BLA BLA BLA BLA BLA BLA BLA BLA BLA BLA BLA BLA BLA BLA 
BLA BLA BLA BLA BLA BLA BLA BLA BLA BLA BLA BLA BLA BLA BLA BLA BLA BLA BLA BLA 
BLA BLA BLA BLA BLA BLA BLA BLA BLA BLA BLA BLA BLA BLA BLA BLA BLA BLA BLA BLA 
BLA BLA BLA BLA BLA BLA BLA BLA BLA BLA BLA BLA BLA BLA BLA BLA BLA BLA BLA BLA 
BLA BLA BLA BLA BLA BLA BLA BLA BLA BLA BLA BLA BLA BLA BLA BLA BLA BLA BLA BLA 
BLA BLA BLA BLA BLA BLA BLA BLA BLA BLA BLA BLA BLA BLA BLA BLA BLA BLA BLA BLA 
BLA BLA BLA BLA BLA BLA BLA BLA BLA BLA BLA BLA BLA BLA BLA BLA BLA BLA BLA BLA 
BLA BLA BLA BLA BLA BLA BLA BLA BLA BLA BLA BLA BLA BLA BLA BLA BLA BLA BLA BLA 
BLA BLA BLA BLA BLA BLA BLA BLA BLA BLA BLA BLA BLA BLA BLA BLA BLA BLA BLA BLA 
BLA BLA BLA BLA BLA BLA BLA BLA BLA BLA BLA BLA BLA BLA BLA BLA BLA BLA BLA BLA 
BLA BLA BLA BLA BLA BLA BLA BLA BLA BLA BLA BLA BLA BLA BLA BLA BLA BLA BLA BLA 
BLA BLA BLA BLA BLA BLA BLA BLA BLA BLA BLA BLA BLA BLA BLA BLA BLA BLA BLA BLA 
BLA BLA BLA BLA BLA BLA BLA BLA BLA BLA BLA BLA BLA BLA BLA BLA BLA BLA BLA BLA 
BLA BLA BLA BLA BLA BLA BLA BLA BLA BLA BLA BLA BLA BLA BLA BLA BLA BLA BLA BLA 
BLA BLA BLA BLA BLA BLA BLA BLA BLA BLA BLA BLA BLA BLA BLA BLA BLA BLA BLA BLA 
BLA BLA BLA BLA BLA BLA BLA BLA BLA BLA BLA BLA BLA BLA BLA BLA BLA BLA BLA BLA 
BLA BLA BLA BLA BLA BLA BLA BLA BLA BLA BLA BLA BLA BLA BLA BLA BLA BLA BLA BLA 
BLA BLA BLA BLA BLA BLA BLA BLA BLA BLA BLA BLA BLA BLA BLA BLA BLA BLA BLA BLA 
BLA BLA BLA BLA BLA BLA BLA BLA BLA BLA BLA BLA BLA BLA BLA BLA BLA BLA BLA BLA 
BLA BLA BLA BLA BLA BLA BLA BLA BLA BLA BLA BLA BLA BLA BLA BLA BLA BLA BLA BLA 
BLA BLA BLA BLA BLA BLA BLA BLA BLA BLA BLA BLA BLA BLA BLA BLA BLA BLA BLA BLA 
BLA BLA BLA BLA BLA BLA BLA BLA BLA BLA BLA BLA BLA BLA BLA BLA BLA BLA BLA BLA 
BLA BLA BLA BLA BLA BLA BLA BLA BLA BLA BLA BLA BLA BLA BLA BLA BLA BLA BLA BLA 
BLA BLA BLA BLA BLA BLA BLA BLA BLA BLA BLA BLA BLA BLA BLA BLA BLA BLA BLA BLA 
BLA BLA BLA BLA BLA BLA BLA BLA BLA BLA BLA BLA BLA BLA BLA BLA BLA BLA BLA BLA 
BLA BLA BLA BLA BLA BLA BLA BLA BLA BLA BLA BLA BLA BLA BLA BLA BLA BLA BLA BLA 
BLA BLA BLA BLA BLA BLA BLA BLA BLA BLA BLA BLA BLA BLA BLA BLA BLA BLA BLA BLA 
BLA BLA BLA BLA BLA BLA BLA BLA BLA BLA BLA BLA BLA BLA BLA BLA BLA BLA BLA BLA 
BLA BLA BLA BLA BLA BLA BLA BLA BLA BLA BLA BLA BLA BLA BLA BLA BLA BLA BLA BLA 
BLA BLA BLA BLA BLA BLA BLA BLA BLA BLA BLA BLA BLA BLA BLA BLA BLA BLA BLA BLA 
BLA BLA BLA BLA BLA BLA BLA BLA BLA BLA BLA BLA BLA BLA BLA BLA BLA BLA BLA BLA 
BLA BLA BLA BLA BLA BLA BLA BLA BLA BLA BLA BLA BLA BLA BLA BLA BLA BLA BLA BLA 
BLA BLA BLA BLA BLA BLA BLA BLA BLA BLA BLA BLA BLA BLA BLA BLA BLA BLA BLA BLA 
BLA BLA BLA BLA BLA BLA BLA BLA BLA BLA BLA BLA BLA BLA BLA BLA BLA BLA BLA BLA 
BLA BLA BLA BLA BLA BLA BLA BLA BLA BLA BLA BLA BLA BLA BLA BLA BLA BLA BLA BLA 
BLA BLA BLA BLA BLA BLA BLA BLA BLA BLA BLA BLA BLA BLA BLA BLA BLA BLA BLA BLA 
BLA BLA BLA BLA BLA BLA BLA BLA BLA BLA BLA BLA BLA BLA BLA BLA BLA BLA BLA BLA 
BLA BLA BLA BLA BLA BLA BLA BLA BLA BLA BLA BLA BLA BLA BLA BLA BLA BLA BLA BLA 
BLA BLA BLA BLA BLA BLA BLA BLA BLA BLA BLA BLA BLA BLA BLA BLA BLA BLA BLA BLA 
BLA BLA BLA BLA BLA BLA BLA BLA BLA BLA BLA BLA BLA BLA BLA BLA BLA BLA BLA BLA 
BLA BLA BLA BLA BLA BLA BLA BLA BLA BLA BLA BLA BLA BLA BLA BLA BLA BLA BLA BLA 
BLA BLA BLA BLA BLA BLA BLA BLA BLA BLA BLA BLA BLA BLA BLA BLA BLA BLA BLA BLA 
BLA BLA BLA BLA BLA BLA BLA BLA BLA BLA BLA BLA BLA BLA BLA BLA BLA BLA BLA BLA 
BLA BLA BLA BLA BLA BLA BLA BLA BLA BLA BLA BLA BLA BLA BLA BLA BLA BLA BLA BLA 
BLA BLA BLA BLA BLA BLA BLA BLA BLA BLA BLA BLA BLA BLA BLA BLA BLA BLA BLA BLA 
BLA BLA BLA BLA BLA BLA BLA BLA BLA BLA BLA BLA BLA BLA BLA BLA BLA BLA BLA BLA 
BLA BLA BLA BLA BLA BLA BLA BLA BLA BLA BLA BLA BLA BLA BLA BLA BLA BLA BLA BLA 
BLA BLA BLA BLA BLA BLA BLA BLA BLA BLA BLA BLA BLA BLA BLA BLA BLA BLA BLA BLA 
BLA BLA BLA BLA BLA BLA BLA BLA BLA BLA BLA BLA BLA BLA BLA BLA BLA BLA BLA BLA 
BLA BLA BLA BLA BLA BLA BLA BLA BLA BLA BLA BLA BLA BLA BLA BLA BLA BLA BLA BLA 
BLA BLA BLA BLA BLA BLA BLA BLA BLA BLA BLA BLA BLA BLA BLA BLA BLA BLA BLA BLA 
BLA BLA BLA BLA BLA BLA BLA BLA BLA BLA BLA BLA BLA BLA BLA BLA BLA BLA BLA BLA 
BLA BLA BLA BLA BLA BLA BLA BLA BLA BLA BLA BLA BLA BLA BLA BLA BLA BLA BLA BLA 
BLA BLA BLA BLA BLA BLA BLA BLA BLA BLA BLA BLA BLA BLA BLA BLA BLA BLA BLA BLA 
BLA BLA BLA BLA BLA BLA BLA BLA BLA BLA BLA BLA BLA BLA BLA BLA BLA BLA BLA BLA 
BLA BLA BLA BLA BLA BLA BLA BLA BLA BLA BLA BLA BLA BLA BLA BLA BLA BLA BLA BLA 
BLA BLA BLA BLA BLA BLA BLA BLA BLA BLA BLA BLA BLA BLA BLA BLA BLA BLA BLA BLA 
BLA BLA BLA BLA BLA BLA BLA BLA BLA BLA BLA BLA BLA BLA BLA BLA BLA BLA BLA BLA 
BLA BLA BLA BLA BLA BLA BLA BLA BLA BLA BLA BLA BLA BLA BLA BLA BLA BLA BLA BLA 
BLA BLA BLA BLA BLA BLA BLA BLA BLA BLA BLA BLA BLA BLA BLA BLA BLA BLA BLA BLA 
BLA BLA BLA BLA BLA BLA BLA BLA BLA BLA BLA BLA BLA BLA BLA BLA BLA BLA BLA BLA 
BLA BLA BLA BLA BLA BLA BLA BLA BLA BLA BLA BLA BLA BLA BLA BLA BLA BLA BLA BLA 
BLA BLA BLA BLA BLA BLA BLA BLA BLA BLA BLA BLA BLA BLA BLA BLA BLA BLA BLA BLA 
BLA BLA BLA BLA BLA BLA BLA BLA BLA BLA BLA BLA BLA BLA BLA BLA BLA BLA BLA BLA 
BLA BLA BLA BLA BLA BLA BLA BLA BLA BLA BLA BLA BLA BLA BLA BLA BLA BLA BLA BLA 
BLA BLA BLA BLA BLA BLA BLA BLA BLA BLA BLA BLA BLA BLA BLA BLA BLA BLA BLA BLA 
BLA BLA BLA BLA BLA BLA BLA BLA BLA BLA BLA BLA BLA BLA BLA BLA BLA BLA BLA BLA 
BLA BLA BLA BLA BLA BLA BLA BLA BLA BLA BLA BLA BLA BLA BLA BLA BLA BLA BLA BLA 
BLA BLA BLA BLA BLA BLA BLA BLA BLA BLA BLA BLA BLA BLA BLA BLA BLA BLA BLA BLA 
BLA BLA BLA BLA BLA BLA BLA BLA BLA BLA BLA BLA BLA BLA BLA BLA BLA BLA BLA BLA 
BLA BLA BLA BLA BLA BLA BLA BLA BLA BLA BLA BLA BLA BLA BLA BLA BLA BLA BLA BLA 
BLA BLA BLA BLA BLA BLA BLA BLA BLA BLA BLA BLA BLA BLA BLA BLA BLA BLA BLA BLA 
BLA BLA BLA BLA BLA BLA BLA BLA BLA BLA BLA BLA BLA BLA BLA BLA BLA BLA BLA BLA 
BLA BLA BLA BLA BLA BLA BLA BLA BLA BLA BLA BLA BLA BLA BLA BLA BLA BLA BLA BLA 
BLA BLA BLA BLA BLA BLA BLA BLA BLA BLA BLA BLA BLA BLA BLA BLA BLA BLA BLA BLA 
BLA BLA BLA BLA BLA BLA BLA BLA BLA BLA BLA BLA BLA BLA BLA BLA BLA BLA BLA BLA 
BLA BLA BLA BLA BLA BLA BLA BLA BLA BLA BLA BLA BLA BLA BLA BLA BLA BLA BLA BLA 
BLA BLA BLA BLA BLA BLA BLA BLA BLA BLA BLA BLA BLA BLA BLA BLA BLA BLA BLA BLA 
BLA BLA BLA BLA BLA BLA BLA BLA BLA BLA BLA BLA BLA BLA BLA BLA BLA BLA BLA BLA 
BLA BLA BLA BLA BLA BLA BLA BLA BLA BLA BLA BLA BLA BLA BLA BLA BLA BLA BLA BLA 
BLA BLA BLA BLA BLA BLA BLA BLA BLA BLA BLA BLA BLA BLA BLA BLA BLA BLA BLA BLA 
BLA BLA BLA BLA BLA BLA BLA BLA BLA BLA BLA BLA BLA BLA BLA BLA BLA BLA BLA BLA 
BLA BLA BLA BLA BLA BLA BLA BLA BLA BLA BLA BLA BLA BLA BLA BLA BLA BLA BLA BLA 
BLA BLA BLA BLA BLA BLA BLA BLA BLA BLA BLA BLA BLA BLA BLA BLA BLA BLA BLA BLA 
BLA BLA BLA BLA BLA BLA BLA BLA BLA BLA BLA BLA BLA BLA BLA BLA BLA BLA BLA BLA 
BLA BLA BLA BLA BLA BLA BLA BLA BLA BLA BLA BLA BLA BLA BLA BLA BLA BLA BLA BLA 
BLA BLA BLA BLA BLA BLA BLA BLA BLA BLA BLA BLA BLA BLA BLA BLA BLA BLA BLA BLA 
BLA BLA BLA BLA BLA BLA BLA BLA BLA BLA BLA BLA BLA BLA BLA BLA BLA BLA BLA BLA 
BLA BLA BLA BLA BLA BLA BLA BLA BLA BLA BLA BLA BLA BLA BLA BLA BLA BLA BLA BLA 
BLA BLA BLA BLA BLA BLA BLA BLA BLA BLA BLA BLA BLA BLA BLA BLA BLA BLA BLA BLA 
BLA BLA BLA BLA BLA BLA BLA BLA BLA BLA BLA BLA BLA BLA BLA BLA BLA BLA BLA BLA 
BLA BLA BLA BLA BLA BLA BLA BLA BLA BLA BLA BLA BLA BLA BLA BLA BLA BLA BLA BLA 
BLA BLA BLA BLA BLA BLA BLA BLA BLA BLA BLA BLA BLA BLA BLA BLA BLA BLA BLA BLA 
BLA BLA BLA BLA BLA BLA BLA BLA BLA BLA BLA BLA BLA BLA BLA BLA BLA BLA BLA BLA 
BLA BLA BLA BLA BLA BLA BLA BLA BLA BLA BLA BLA BLA BLA BLA BLA BLA BLA BLA BLA 
BLA BLA BLA BLA BLA BLA BLA BLA BLA BLA BLA BLA BLA BLA BLA BLA BLA BLA BLA BLA 
BLA BLA BLA BLA BLA BLA BLA BLA BLA BLA BLA BLA BLA BLA BLA BLA BLA BLA BLA BLA 
BLA BLA BLA BLA BLA BLA BLA BLA BLA BLA BLA BLA BLA BLA BLA BLA BLA BLA BLA BLA 
BLA BLA BLA BLA BLA BLA BLA BLA BLA BLA BLA BLA BLA BLA BLA BLA BLA BLA BLA BLA 
BLA BLA BLA BLA BLA BLA BLA BLA BLA BLA BLA BLA BLA BLA BLA BLA BLA BLA BLA BLA 
BLA BLA BLA BLA BLA BLA BLA BLA BLA BLA BLA BLA BLA BLA BLA BLA BLA BLA BLA BLA 
BLA BLA BLA BLA BLA BLA BLA BLA BLA BLA BLA BLA BLA BLA BLA BLA BLA BLA BLA BLA 
BLA BLA BLA BLA BLA BLA BLA BLA BLA BLA BLA BLA BLA BLA BLA BLA BLA BLA BLA BLA 
BLA BLA BLA BLA BLA BLA BLA BLA BLA BLA BLA BLA BLA BLA BLA BLA BLA BLA BLA BLA 
BLA BLA BLA BLA BLA BLA BLA BLA BLA BLA BLA BLA BLA BLA BLA BLA BLA BLA BLA BLA 
BLA BLA BLA BLA BLA BLA BLA BLA BLA BLA BLA BLA BLA BLA BLA BLA BLA BLA BLA BLA 
BLA BLA BLA BLA BLA BLA BLA BLA BLA BLA BLA BLA BLA BLA BLA BLA BLA BLA BLA BLA 
BLA BLA BLA BLA BLA BLA BLA BLA BLA BLA BLA BLA BLA BLA BLA BLA BLA BLA BLA BLA 
BLA BLA BLA BLA BLA BLA BLA BLA BLA BLA BLA BLA BLA BLA BLA BLA BLA BLA BLA BLA 
BLA BLA BLA BLA BLA BLA BLA BLA BLA BLA BLA BLA BLA BLA BLA BLA BLA BLA BLA BLA 
BLA BLA BLA BLA BLA BLA BLA BLA BLA BLA BLA BLA BLA BLA BLA BLA BLA BLA BLA BLA 
BLA BLA BLA BLA BLA BLA BLA BLA BLA BLA BLA BLA BLA BLA BLA BLA BLA BLA BLA BLA 
BLA BLA BLA BLA BLA BLA BLA BLA BLA BLA BLA BLA BLA BLA BLA BLA BLA BLA BLA BLA 
BLA BLA BLA BLA BLA BLA BLA BLA BLA BLA BLA BLA BLA BLA BLA BLA BLA BLA BLA BLA 
BLA BLA BLA BLA BLA BLA BLA BLA BLA BLA BLA BLA BLA BLA BLA BLA BLA BLA BLA BLA 
BLA BLA BLA BLA BLA BLA BLA BLA BLA BLA BLA BLA BLA BLA BLA BLA BLA BLA BLA BLA 
BLA BLA BLA BLA BLA BLA BLA BLA BLA BLA BLA BLA BLA BLA BLA BLA BLA BLA BLA BLA 
BLA BLA BLA BLA BLA BLA BLA BLA BLA BLA BLA BLA BLA BLA BLA BLA BLA BLA BLA BLA 
BLA BLA BLA BLA BLA BLA BLA BLA BLA BLA BLA BLA BLA BLA BLA BLA BLA BLA BLA BLA 
BLA BLA BLA BLA BLA BLA BLA BLA BLA BLA BLA BLA BLA BLA BLA BLA BLA BLA BLA BLA 
BLA BLA BLA BLA BLA BLA BLA BLA BLA BLA BLA BLA BLA BLA BLA BLA BLA BLA BLA BLA 
BLA BLA BLA BLA BLA BLA BLA BLA BLA BLA BLA BLA BLA BLA BLA BLA BLA BLA BLA BLA 
BLA BLA BLA BLA BLA BLA BLA BLA BLA BLA BLA BLA BLA BLA BLA BLA BLA BLA BLA BLA 
BLA BLA BLA BLA BLA BLA BLA BLA BLA BLA BLA BLA BLA BLA BLA BLA BLA BLA BLA BLA 
BLA BLA BLA BLA BLA BLA BLA BLA BLA BLA BLA BLA BLA BLA BLA BLA BLA BLA BLA BLA 
BLA BLA BLA BLA BLA BLA BLA BLA BLA BLA BLA BLA BLA BLA BLA BLA BLA BLA BLA BLA 
BLA BLA BLA BLA BLA BLA BLA BLA BLA BLA BLA BLA BLA BLA BLA BLA BLA BLA BLA BLA 
BLA BLA BLA BLA BLA BLA BLA BLA BLA BLA BLA BLA BLA BLA BLA BLA BLA BLA BLA BLA 
BLA BLA BLA BLA BLA BLA BLA BLA BLA BLA BLA BLA BLA BLA BLA BLA BLA BLA BLA BLA 
BLA BLA BLA BLA BLA BLA BLA BLA BLA BLA BLA BLA BLA BLA BLA BLA BLA BLA BLA BLA 
BLA BLA BLA BLA BLA BLA BLA BLA BLA BLA BLA BLA BLA BLA BLA BLA BLA BLA BLA BLA 
BLA BLA BLA BLA BLA BLA BLA BLA BLA BLA BLA BLA BLA BLA BLA BLA BLA BLA BLA BLA 
BLA BLA BLA BLA BLA BLA BLA BLA BLA BLA BLA BLA 
%FLAG JOIN_ARRAY                                                                
%FORMAT(10I8)                                                                   
       0       0       0       0       0       0       0       0       0       0
       0       0       0       0       0       0       0       0       0       0
       0       0       0       0       0       0       0       0       0       0
       0       0       0       0       0       0       0       0       0       0
       0       0       0       0       0       0       0       0       0       0
       0       0       0       0       0       0       0       0       0       0
       0       0       0       0       0       0       0       0       0       0
       0       0       0       0       0       0       0       0       0       0
       0       0       0       0       0       0       0       0       0       0
       0       0       0       0       0       0       0       0       0       0
       0       0       0       0       0       0       0       0       0       0
       0       0       0       0       0       0       0       0       0       0
       0       0       0       0       0       0       0       0       0       0
       0       0       0       0       0       0       0       0       0       0
       0       0       0       0       0       0       0       0       0       0
       0       0       0       0       0       0       0       0       0       0
       0       0       0       0       0       0       0       0       0       0
       0       0       0       0       0       0       0       0       0       0
       0       0       0       0       0       0       0       0       0       0
       0       0       0       0       0       0       0       0       0       0
       0       0       0       0       0       0       0       0       0       0
       0       0       0       0       0       0       0       0       0       0
       0       0       0       0       0       0       0       0       0       0
       0       0       0       0       0       0       0       0       0       0
       0       0       0       0       0       0       0       0       0       0
       0       0       0       0       0       0       0       0       0       0
       0       0       0       0       0       0       0       0       0       0
       0       0       0       0       0       0       0       0       0       0
       0       0       0       0       0       0       0       0       0       0
       0       0       0       0       0       0       0       0       0       0
       0       0       0       0       0       0       0       0       0       0
       0       0       0       0       0       0       0       0       0       0
       0       0       0       0       0       0       0       0       0       0
       0       0       0       0       0       0       0       0       0       0
       0       0       0       0       0       0       0       0       0       0
       0       0       0       0       0       0       0       0       0       0
       0       0       0       0       0       0       0       0       0       0
       0       0       0       0       0       0       0       0       0       0
       0       0       0       0       0       0       0       0       0       0
       0       0       0       0       0       0       0       0       0       0
       0       0       0       0       0       0       0       0       0       0
       0       0       0       0       0       0       0       0       0       0
       0       0       0       0       0       0       0       0       0       0
       0       0       0       0       0       0       0       0       0       0
       0       0       0       0       0       0       0       0       0       0
       0       0       0       0       0       0       0       0       0       0
       0       0       0       0       0       0       0       0       0       0
       0       0       0       0       0       0       0       0       0       0
       0       0       0       0       0       0       0       0       0       0
       0       0       0       0       0       0       0       0       0       0
       0       0       0       0       0       0       0       0       0       0
       0       0       0       0       0       0       0       0       0       0
       0       0       0       0       0       0       0       0       0       0
       0       0       0       0       0       0       0       0       0       0
       0       0       0       0       0       0       0       0       0       0
       0       0       0       0       0       0       0       0       0       0
       0       0       0       0       0       0       0       0       0       0
       0       0       0       0       0       0       0       0       0       0
       0       0       0       0       0       0       0       0       0       0
       0       0       0       0       0       0       0       0       0       0
       0       0       0       0       0       0       0       0       0       0
       0       0       0       0       0       0       0       0       0       0
       0       0       0       0       0       0       0       0       0       0
       0       0       0       0       0       0       0       0       0       0
       0       0       0       0       0       0       0       0       0       0
       0       0       0       0       0       0       0       0       0       0
       0       0       0       0       0       0       0       0       0       0
       0       0       0       0       0       0       0       0       0       0
       0       0       0       0       0       0       0       0       0       0
       0       0       0       0       0       0       0       0       0       0
       0       0       0       0       0       0       0       0       0       0
       0       0       0       0       0       0       0       0       0       0
       0       0       0       0       0       0       0       0       0       0
       0       0       0       0       0       0       0       0       0       0
       0       0       0       0       0       0       0       0       0       0
       0       0       0       0       0       0       0       0       0       0
       0       0       0       0       0       0       0       0       0       0
       0       0       0       0       0       0       0       0       0       0
       0       0       0       0       0       0       0       0       0       0
       0       0       0       0       0       0       0       0       0       0
       0       0       0       0       0       0       0       0       0       0
       0       0       0       0       0       0       0       0       0       0
       0       0       0       0       0       0       0       0       0       0
       0       0       0       0       0       0       0       0       0       0
       0       0       0       0       0       0       0       0       0       0
       0       0       0       0       0       0       0       0       0       0
       0       0       0       0       0       0       0       0       0       0
       0       0       0       0       0       0       0       0       0       0
       0       0       0       0       0       0       0       0       0       0
       0       0       0       0       0       0       0       0       0       0
       0       0       0       0       0       0       0       0       0       0
       0       0       0       0       0       0       0       0       0       0
       0       0       0       0       0       0       0       0       0       0
       0       0       0       0       0       0       0       0       0       0
       0       0       0       0       0       0       0       0       0       0
       0       0       0       0       0       0       0       0       0       0
       0       0       0       0       0       0       0       0       0       0
       0       0       0       0       0       0       0       0       0       0
       0       0       0       0       0       0       0       0       0       0
       0       0       0       0       0       0       0       0       0       0
       0       0       0       0       0       0       0       0       0       0
       0       0       0       0       0       0       0       0       0       0
       0       0       0       0       0       0       0       0       0       0
       0       0       0       0       0       0       0       0       0       0
       0       0       0       0       0       0       0       0       0       0
       0       0       0       0       0       0       0       0       0       0
       0       0       0       0       0       0       0       0       0       0
       0       0       0       0       0       0       0       0       0       0
       0       0       0       0       0       0       0       0       0       0
       0       0       0       0       0       0       0       0       0       0
       0       0       0       0       0       0       0       0       0       0
       0       0       0       0       0       0       0       0       0       0
       0       0       0       0       0       0       0       0       0       0
       0       0       0       0       0       0       0       0       0       0
       0       0       0       0       0       0       0       0       0       0
       0       0       0       0       0       0       0       0       0       0
       0       0       0       0       0       0       0       0       0       0
       0       0       0       0       0       0       0       0       0       0
       0       0       0       0       0       0       0       0       0       0
       0       0       0       0       0       0       0       0       0       0
       0       0       0       0       0       0       0       0       0       0
       0       0       0       0       0       0       0       0       0       0
       0       0       0       0       0       0       0       0       0       0
       0       0       0       0       0       0       0       0       0       0
       0       0       0       0       0       0       0       0       0       0
       0       0       0       0       0       0       0       0       0       0
       0       0       0       0       0       0       0       0       0       0
       0       0       0       0       0       0       0       0       0       0
       0       0       0       0       0       0       0       0       0       0
       0       0       0       0       0       0       0       0       0       0
       0       0       0       0       0       0       0       0       0       0
       0       0       0       0       0       0       0       0       0       0
       0       0       0       0       0       0       0       0       0       0
       0       0       0       0       0       0       0       0       0       0
       0       0       0       0       0       0       0       0       0       0
       0       0       0       0       0       0       0       0       0       0
       0       0       0       0       0       0       0       0       0       0
       0       0       0       0       0       0       0       0       0       0
       0       0       0       0       0       0       0       0       0       0
       0       0       0       0       0       0       0       0       0       0
       0       0       0       0       0       0       0       0       0       0
       0       0       0       0       0       0       0       0       0       0
       0       0       0       0       0       0       0       0       0       0
       0       0       0       0       0       0       0       0       0       0
       0       0       0       0       0       0       0       0       0       0
       0       0       0       0       0       0       0       0       0       0
       0       0       0       0       0       0       0       0       0       0
       0       0       0       0       0       0       0       0       0       0
       0       0       0       0       0       0       0       0       0       0
       0       0       0       0       0       0       0       0       0       0
       0       0       0       0       0       0       0       0       0       0
       0       0       0       0       0       0       0       0       0       0
       0       0       0       0       0       0       0       0       0       0
       0       0       0       0       0       0       0       0       0       0
       0       0       0       0       0       0       0       0       0       0
       0       0       0       0       0       0       0       0       0       0
       0       0       0       0       0       0       0       0       0       0
       0       0       0       0       0       0       0       0       0       0
       0       0       0       0       0       0       0       0       0       0
       0       0       0       0       0       0       0       0       0       0
       0       0       0       0       0       0       0       0       0       0
       0       0       0       0       0       0       0       0       0       0
       0       0       0       0       0       0       0       0       0       0
       0       0       0       0       0       0       0       0       0       0
       0       0       0       0       0       0       0       0       0       0
       0       0       0       0       0       0       0       0       0       0
       0       0       0       0       0       0       0       0       0       0
       0       0       0       0       0       0       0       0       0       0
       0       0       0       0       0       0       0       0       0       0
       0       0       0       0       0       0       0       0       0       0
       0       0       0       0       0       0       0       0       0       0
       0       0       0       0       0       0       0       0       0       0
       0       0       0       0       0       0       0       0       0       0
       0       0       0       0       0       0       0       0       0       0
       0       0       0       0       0       0       0       0       0       0
       0       0       0       0       0       0       0       0       0       0
       0       0       0       0       0       0       0       0       0       0
       0       0       0       0       0       0       0       0       0       0
       0       0       0       0       0       0       0       0       0       0
       0       0       0       0       0       0       0       0       0       0
       0       0       0       0       0       0       0       0       0       0
       0       0       0       0       0       0       0       0       0       0
       0       0       0       0       0       0       0       0       0       0
       0       0       0       0       0       0       0       0       0       0
       0       0       0       0       0       0       0       0       0       0
       0       0       0       0       0       0       0       0       0       0
       0       0       0       0       0       0       0       0       0       0
       0       0       0       0       0       0       0       0       0       0
       0       0       0       0       0       0       0       0       0       0
       0       0       0       0       0       0       0       0       0       0
       0       0       0       0       0       0       0       0       0       0
       0       0       0       0       0       0       0       0       0       0
       0       0       0       0       0       0       0       0       0       0
       0       0       0       0       0       0       0       0       0       0
       0       0       0       0       0       0       0       0       0       0
       0       0       0       0       0       0       0       0       0       0
       0       0       0       0       0       0       0       0       0       0
       0       0       0       0       0       0       0       0       0       0
       0       0       0       0       0       0       0       0       0       0
       0       0       0       0       0       0       0       0       0       0
       0       0       0       0       0       0       0       0       0       0
       0       0       0       0       0       0       0       0       0       0
       0       0       0       0       0       0       0       0       0       0
       0       0       0       0       0       0       0       0       0       0
       0       0       0       0       0       0       0       0       0       0
       0       0       0       0       0       0       0       0       0       0
       0       0       0       0       0       0       0       0       0       0
       0       0       0       0       0       0       0       0       0       0
       0       0       0       0       0       0       0       0       0       0
       0       0       0       0       0       0       0       0       0       0
       0       0       0       0       0       0       0       0       0       0
       0       0       0       0       0       0       0       0       0       0
       0       0       0       0       0       0       0       0       0       0
       0       0       0       0       0       0       0       0       0       0
       0       0       0       0       0       0       0       0       0       0
       0       0       0       0       0       0       0       0       0       0
       0       0       0       0       0       0       0       0       0       0
       0       0       0       0       0       0       0       0       0       0
       0       0       0       0       0       0       0       0       0       0
       0       0       0       0       0       0       0       0       0       0
       0       0       0       0       0       0       0       0       0       0
       0       0       0       0       0       0       0       0       0       0
       0       0       0       0       0       0       0       0       0       0
       0       0       0       0       0       0       0       0       0       0
       0       0       0       0       0       0       0       0       0       0
       0       0       0       0       0       0       0       0       0       0
       0       0       0       0       0       0       0       0       0       0
       0       0       0       0       0       0       0       0       0       0
       0       0       0       0       0       0       0       0       0       0
       0       0       0       0       0       0       0       0       0       0
       0       0       0       0       0       0       0       0       0       0
       0       0       0       0       0       0       0       0       0       0
       0       0       0       0       0       0       0       0       0       0
       0       0       0       0       0       0       0       0       0       0
       0       0       0       0       0       0       0       0       0       0
       0       0       0       0       0       0       0       0       0       0
       0       0       0       0       0       0       0       0       0       0
       0       0       0       0       0       0       0       0       0       0
       0       0       0       0       0       0       0       0       0       0
       0       0       0       0       0       0       0       0       0       0
       0       0       0       0       0       0       0       0       0       0
       0       0       0       0       0       0       0       0       0       0
       0       0       0       0       0       0       0       0       0       0
       0       0       0       0       0       0       0       0       0       0
       0       0       0       0       0       0       0       0       0       0
       0       0       0       0       0       0       0       0       0       0
       0       0       0       0       0       0       0       0       0       0
       0       0       0       0       0       0       0       0       0       0
       0       0       0       0       0       0       0       0       0       0
       0       0       0       0       0       0       0       0       0       0
       0       0       0       0       0       0       0       0       0       0
       0       0       0       0       0       0       0       0       0       0
       0       0       0       0       0       0       0       0       0       0
       0       0       0       0       0       0       0       0       0       0
       0       0       0       0       0       0       0       0       0       0
       0       0       0       0       0       0       0       0       0       0
       0       0       0       0       0       0       0       0       0       0
       0       0       0       0       0       0       0       0       0       0
       0       0       0       0       0       0       0       0       0       0
       0       0       0       0       0       0       0       0       0       0
       0       0       0       0       0       0       0       0       0       0
       0       0       0       0       0       0       0       0       0       0
       0       0       0       0       0       0       0       0       0       0
       0       0       0       0       0       0       0       0       0       0
       0       0       0       0       0       0       0       0       0       0
       0       0       0       0       0       0       0       0       0       0
       0       0       0       0       0       0       0       0       0       0
       0       0       0       0       0       0       0       0       0       0
       0       0       0       0       0       0       0       0       0       0
       0       0       0       0       0       0       0       0       0       0
       0       0       0       0       0       0       0       0       0       0
       0       0       0       0       0       0       0       0       0       0
       0       0       0       0       0       0       0       0       0       0
       0       0       0       0       0       0       0       0       0       0
       0       0       0       0       0       0       0       0       0       0
       0       0       0       0       0       0       0       0       0       0
       0       0       0       0       0       0       0       0       0       0
       0       0       0       0       0       0       0       0       0       0
       0       0       0       0       0       0       0       0       0       0
       0       0       0       0       0       0       0       0       0       0
       0       0       0       0       0       0       0       0       0       0
       0       0       0       0       0       0       0       0       0       0
       0       0       0       0       0       0       0       0       0       0
       0       0       0       0       0       0       0       0       0       0
       0       0       0       0       0       0       0       0       0       0
       0       0       0       0       0       0       0       0       0       0
       0       0       0       0       0       0       0       0       0       0
       0       0       0       0       0       0       0       0       0       0
       0       0       0       0       0       0       0       0       0       0
       0       0       0       0       0       0       0       0       0       0
       0       0       0       0       0       0       0       0       0       0
       0       0       0       0       0       0       0       0       0       0
       0       0       0       0       0       0       0       0       0       0
       0       0       0       0       0       0       0       0       0       0
       0       0       0       0       0       0       0       0       0       0
       0       0       0       0       0       0       0       0       0       0
       0       0       0       0       0       0       0       0       0       0
       0       0       0       0       0       0       0       0       0       0
       0       0       0       0       0       0       0       0       0       0
       0       0       0       0       0       0       0       0       0       0
       0       0       0       0       0       0       0       0       0       0
       0       0       0       0       0       0       0       0       0       0
       0       0       0       0       0       0       0       0       0       0
       0       0       0       0       0       0       0       0       0       0
       0       0       0       0       0       0       0       0       0       0
       0       0       0       0       0       0       0       0       0       0
       0       0       0       0       0       0       0       0       0       0
       0       0       0       0       0       0       0       0       0       0
       0       0       0       0       0       0       0       0       0       0
       0       0       0       0       0       0       0       0       0       0
       0       0       0       0       0       0       0       0       0       0
       0       0       0       0       0       0       0       0       0       0
       0       0       0       0       0       0       0       0       0       0
       0       0       0       0       0       0       0       0       0       0
       0       0       0       0       0       0       0       0       0       0
       0       0       0       0       0       0       0       0       0       0
       0       0       0       0       0       0       0       0       0       0
       0       0       0       0       0       0       0       0       0       0
       0       0       0       0       0       0       0       0       0       0
       0       0       0       0       0       0       0       0       0       0
       0       0       0       0       0       0       0       0       0       0
       0       0       0       0       0       0       0       0       0       0
       0       0       0       0       0       0       0       0       0       0
       0       0       0       0       0       0       0       0       0       0
       0       0       0       0       0       0       0       0       0       0
       0       0       0       0       0       0       0       0       0       0
       0       0       0       0       0       0       0       0       0       0
       0       0       0       0       0       0       0       0       0       0
       0       0       0       0       0       0       0       0       0       0
       0       0       0       0       0       0       0       0       0       0
       0       0       0       0       0       0       0       0       0       0
       0       0       0       0       0       0       0       0       0       0
       0       0       0       0       0       0       0       0       0       0
       0       0       0       0       0       0       0       0       0       0
       0       0       0       0       0       0       0       0       0       0
       0       0       0       0       0       0       0       0       0       0
       0       0       0       0       0       0       0       0       0       0
       0       0       0       0       0       0       0       0       0       0
       0       0       0       0       0       0       0       0       0       0
       0       0       0       0       0       0       0       0       0       0
       0       0       0       0       0       0       0       0       0       0
       0       0       0       0       0       0       0       0       0       0
       0       0       0       0       0       0       0       0       0       0
       0       0       0       0       0       0       0       0       0       0
       0       0       0       0       0       0       0       0       0       0
       0       0       0       0       0       0       0       0       0       0
       0       0       0       0       0       0       0       0       0       0
       0       0       0       0       0       0       0       0       0       0
       0       0       0       0       0       0       0       0       0       0
       0       0       0       0       0       0       0       0       0       0
       0       0       0       0       0       0       0       0       0       0
       0       0       0       0       0       0       0       0       0       0
       0       0       0       0       0       0       0       0       0       0
       0       0       0       0       0       0       0       0       0       0
       0       0       0       0       0       0       0       0       0       0
       0       0       0       0       0       0       0       0       0       0
       0       0       0       0       0       0       0       0       0       0
       0       0       0       0       0       0       0       0       0       0
       0       0       0       0       0       0       0       0       0       0
       0       0       0       0       0       0       0       0       0       0
       0       0       0       0       0       0       0       0       0       0
       0       0       0       0       0       0       0       0       0       0
       0       0       0       0       0       0       0       0       0       0
       0       0       0       0       0       0       0       0       0       0
       0       0       0       0       0       0       0       0       0       0
       0       0       0       0       0       0       0       0       0       0
       0       0       0       0       0       0       0       0       0       0
       0       0       0       0       0       0       0       0       0       0
       0       0       0       0       0       0       0       0       0       0
       0       0       0       0       0       0       0       0       0       0
       0       0       0       0       0       0       0       0       0       0
       0       0       0       0       0       0       0       0       0       0
       0       0       0       0       0       0       0       0       0       0
       0       0       0       0       0       0       0       0       0       0
       0       0       0       0       0       0       0       0       0       0
       0       0       0       0       0       0       0       0       0       0
       0       0       0       0       0       0       0       0       0       0
       0       0       0       0       0       0       0       0       0       0
       0       0       0       0       0       0       0       0       0       0
       0       0       0       0       0       0       0       0       0       0
       0       0       0       0       0       0       0       0       0       0
       0       0       0       0       0       0       0       0       0       0
       0       0       0       0       0       0       0       0       0       0
       0       0       0       0       0       0       0       0       0       0
       0       0       0       0       0       0       0       0       0       0
       0       0       0       0       0       0       0       0       0       0
       0       0       0       0       0       0       0       0       0       0
       0       0       0       0       0       0       0       0       0       0
       0       0       0       0       0       0       0       0       0       0
       0       0       0       0       0       0       0       0       0       0
       0       0       0       0       0       0       0       0       0       0
       0       0       0       0       0       0       0       0       0       0
       0       0       0       0       0       0       0       0       0       0
       0       0       0       0       0       0       0       0       0       0
       0       0       0       0       0       0       0       0       0       0
       0       0       0       0       0       0       0       0       0       0
       0       0       0       0       0       0       0       0       0       0
       0       0       0       0       0       0       0       0       0       0
       0       0       0       0       0       0       0       0       0       0
       0       0       0       0       0       0       0       0       0       0
       0       0       0       0       0       0       0       0       0       0
       0       0       0       0       0       0       0       0       0       0
       0       0       0       0       0       0       0       0       0       0
       0       0       0       0       0       0       0       0       0       0
       0       0       0       0       0       0       0       0       0       0
       0       0       0       0       0       0       0       0       0       0
       0       0       0       0       0       0       0       0       0       0
       0       0       0       0       0       0       0       0       0       0
       0       0       0       0       0       0       0       0       0       0
       0       0       0       0       0       0       0       0       0       0
       0       0       0       0       0       0       0       0       0       0
       0       0       0       0       0       0       0       0       0       0
       0       0       0       0       0       0       0       0       0       0
       0       0       0       0       0       0       0       0       0       0
       0       0       0       0       0       0       0       0       0       0
       0       0       0       0       0       0       0       0       0       0
       0       0       0       0       0       0       0       0       0       0
       0       0       0       0       0       0       0       0       0       0
       0       0       0       0       0       0       0       0       0       0
       0       0       0       0       0       0       0       0       0       0
       0       0       0       0       0       0       0       0       0       0
       0       0       0       0       0       0       0       0       0       0
       0       0       0       0       0       0       0       0       0       0
       0       0       0       0       0       0       0       0       0       0
       0       0       0       0       0       0       0       0       0       0
       0       0       0       0       0       0       0       0       0       0
       0       0       0       0       0       0       0       0       0       0
       0       0       0       0       0       0       0       0       0       0
       0       0       0       0       0       0       0       0       0       0
       0       0       0       0       0       0       0       0       0       0
       0       0       0       0       0       0       0       0       0       0
       0       0       0       0       0       0       0       0       0       0
       0       0       0       0       0       0       0       0       0       0
       0       0       0       0       0       0       0       0       0       0
       0       0       0       0       0       0       0       0       0       0
       0       0       0       0       0       0       0       0       0       0
       0       0       0       0       0       0       0       0       0       0
       0       0       0       0       0       0       0       0       0       0
       0       0       0       0       0       0       0       0       0       0
       0       0       0       0       0       0       0       0       0       0
       0       0       0       0       0       0       0       0       0       0
       0       0       0       0       0       0       0       0       0       0
       0       0       0       0       0       0       0       0       0       0
       0       0       0       0       0       0       0       0       0       0
       0       0       0       0       0       0       0       0       0       0
       0       0       0       0       0       0       0       0       0       0
       0       0       0       0       0       0       0       0       0       0
       0       0       0       0       0       0       0       0       0       0
       0       0       0       0       0       0       0       0       0       0
       0       0       0       0       0       0       0       0       0       0
       0       0       0       0       0       0       0       0       0       0
       0       0       0       0       0       0       0       0       0       0
       0       0       0       0       0       0       0       0       0       0
       0       0       0       0       0       0       0       0       0       0
       0       0       0       0       0       0       0       0       0       0
       0       0       0       0       0       0       0       0       0       0
       0       0       0       0       0       0       0       0       0       0
       0       0       0       0       0       0       0       0       0       0
       0       0       0       0       0       0       0       0       0       0
       0       0       0       0       0       0       0       0       0       0
       0       0       0       0       0       0       0       0       0       0
       0       0       0       0       0       0       0       0       0       0
       0       0       0       0       0       0       0       0       0       0
       0       0       0       0       0       0       0       0       0       0
       0       0       0       0       0       0       0       0       0       0
       0       0       0       0       0       0       0       0       0       0
       0       0       0       0       0       0       0       0       0       0
       0       0       0       0       0       0       0       0       0       0
       0       0       0       0       0       0       0       0       0       0
       0       0       0       0       0       0       0       0       0       0
       0       0       0       0       0       0       0       0       0       0
       0       0       0       0       0       0       0       0       0       0
       0       0       0       0       0       0       0       0       0       0
       0       0       0       0       0       0       0       0       0       0
       0       0       0       0       0       0       0       0       0       0
       0       0       0       0       0       0       0       0       0       0
       0       0       0       0       0       0       0       0       0       0
       0       0       0       0       0       0       0       0       0       0
       0       0       0       0       0       0       0       0       0       0
       0       0       0       0       0       0       0       0       0       0
       0       0       0       0       0       0       0       0       0       0
       0       0       0       0       0       0       0       0       0       0
       0       0       0       0       0       0       0       0       0       0
       0       0       0       0       0       0       0       0       0       0
       0       0       0       0       0       0       0       0       0       0
       0       0       0       0       0       0       0       0       0       0
       0       0       0       0       0       0       0       0       0       0
       0       0       0       0       0       0       0       0       0       0
       0       0       0       0       0       0       0       0       0       0
       0       0       0       0       0       0       0       0       0       0
       0       0       0       0       0       0       0       0       0       0
       0       0       0       0       0       0       0       0       0       0
       0       0       0       0       0       0       0       0       0       0
       0       0       0       0       0       0       0       0       0       0
       0       0       0       0       0       0       0       0       0       0
       0       0       0       0       0       0       0       0       0       0
       0       0       0       0       0       0       0       0       0       0
       0       0       0       0       0       0       0       0       0       0
       0       0       0       0       0       0       0       0       0       0
       0       0       0       0       0       0       0       0       0       0
       0       0       0       0       0       0       0       0       0       0
       0       0       0       0       0       0       0       0       0       0
       0       0       0       0       0       0       0       0       0       0
       0       0       0       0       0       0       0       0       0       0
       0       0       0       0       0       0       0       0       0       0
       0       0       0       0       0       0       0       0       0       0
       0       0       0       0       0       0       0       0       0       0
       0       0       0       0       0       0       0       0       0       0
       0       0       0       0       0       0       0       0       0       0
       0       0       0       0       0       0       0       0       0       0
       0       0       0       0       0       0       0       0       0       0
       0       0       0       0       0       0       0       0       0       0
       0       0       0       0       0       0       0       0       0       0
       0       0       0       0       0       0       0       0       0       0
       0       0       0       0       0       0       0       0       0       0
       0       0       0       0       0       0       0       0       0       0
       0       0       0       0       0       0       0       0       0       0
       0       0       0       0       0       0       0       0       0       0
       0       0       0       0       0       0       0       0       0       0
       0       0       0       0       0       0       0       0       0       0
       0       0       0       0       0       0       0       0       0       0
       0       0       0       0       0       0       0       0       0       0
       0       0       0       0       0       0       0       0       0       0
       0       0       0       0       0       0       0       0       0       0
       0       0       0       0       0       0       0       0       0       0
       0       0       0       0       0       0       0       0       0       0
       0       0       0       0       0       0       0       0       0       0
       0       0       0       0       0       0       0       0       0       0
       0       0       0       0       0       0       0       0       0       0
       0       0       0       0       0       0       0       0       0       0
       0       0       0       0       0       0       0       0       0       0
       0       0       0       0       0       0       0       0       0       0
       0       0       0       0       0       0       0       0       0       0
       0       0       0       0       0       0       0       0       0       0
       0       0       0       0       0       0       0       0       0       0
       0       0       0       0       0       0       0       0       0       0
       0       0       0       0       0       0       0       0       0       0
       0       0       0       0       0       0       0       0       0       0
       0       0       0       0       0       0       0       0       0       0
       0       0       0       0       0       0       0       0       0       0
       0       0       0       0       0       0       0       0       0       0
       0       0       0       0       0       0       0       0       0       0
       0       0       0       0       0       0       0       0       0       0
       0       0       0       0       0       0       0       0       0       0
       0       0       0       0       0       0       0       0       0       0
       0       0       0       0       0       0       0       0       0       0
       0       0       0       0       0       0       0       0       0       0
       0       0       0       0       0       0       0       0       0       0
       0       0       0       0       0       0       0       0       0       0
       0       0       0       0       0       0       0       0       0       0
       0       0       0       0       0       0       0       0       0       0
       0       0       0       0       0       0       0       0       0       0
       0       0       0       0       0       0       0       0       0       0
       0       0       0       0       0       0       0       0       0       0
       0       0       0       0       0       0       0       0       0       0
       0       0       0       0       0       0       0       0       0       0
       0       0       0       0       0       0       0       0       0       0
       0       0       0       0       0       0       0       0       0       0
       0       0       0       0       0       0       0       0       0       0
       0       0       0       0       0       0       0       0       0       0
       0       0       0       0       0       0       0       0       0       0
       0       0       0       0       0       0       0       0       0       0
       0       0       0       0       0       0       0       0       0       0
       0       0       0       0       0       0       0       0       0       0
       0       0       0       0       0       0       0       0       0       0
       0       0       0       0       0       0       0       0       0       0
       0       0       0       0       0       0       0       0       0       0
       0       0       0       0       0       0       0       0       0       0
       0       0       0       0       0       0       0       0       0       0
       0       0       0       0       0       0       0       0       0       0
       0       0       0       0       0       0       0       0       0       0
       0       0       0       0       0       0       0       0       0       0
       0       0       0       0       0       0       0       0       0       0
       0       0       0       0       0       0       0       0       0       0
       0       0       0       0       0       0       0       0       0       0
       0       0       0       0       0       0       0       0       0       0
       0       0       0       0       0       0       0       0       0       0
       0       0       0       0       0       0       0       0       0       0
       0       0       0       0       0       0       0       0       0       0
       0       0       0       0       0       0       0       0       0       0
       0       0       0       0       0       0       0       0       0       0
       0       0       0       0       0       0       0       0       0       0
       0       0       0       0       0       0       0       0       0       0
       0       0       0       0       0       0       0       0       0       0
       0       0       0       0       0       0       0       0       0       0
       0       0       0       0       0       0       0       0       0       0
       0       0       0       0       0       0       0       0       0       0
       0       0       0       0       0       0       0       0       0       0
       0       0       0       0       0       0       0       0       0       0
       0       0       0       0       0       0       0       0       0       0
       0       0       0       0       0       0       0       0       0       0
       0       0       0       0       0       0       0       0       0       0
       0       0       0       0       0       0       0       0       0       0
       0       0       0       0       0       0       0       0       0       0
       0       0       0       0       0       0       0       0       0       0
       0       0       0       0       0       0       0       0       0       0
       0       0       0       0       0       0       0       0       0       0
       0       0       0       0       0       0       0       0       0       0
       0       0       0       0       0       0       0       0       0       0
       0       0       0       0       0       0       0       0       0       0
       0       0       0       0       0       0       0       0       0       0
       0       0       0       0       0       0       0       0       0       0
       0       0       0       0       0       0       0       0       0       0
       0       0       0       0       0       0       0       0       0       0
       0       0       0       0       0       0       0       0       0       0
       0       0       0       0       0       0       0       0       0       0
       0       0       0       0       0       0       0       0       0       0
       0       0       0       0       0       0       0       0       0       0
       0       0       0       0       0       0       0       0       0       0
       0       0       0       0       0       0       0       0       0       0
       0       0       0       0       0       0       0       0       0       0
       0       0       0       0       0       0       0       0       0       0
       0       0       0       0       0       0       0       0       0       0
       0       0       0       0       0       0       0       0       0       0
       0       0       0       0       0       0       0       0       0       0
       0       0       0       0       0       0       0       0       0       0
       0       0       0       0       0       0       0       0       0       0
       0       0       0       0       0       0       0       0       0       0
       0       0       0       0       0       0       0       0       0       0
       0       0       0       0       0       0       0       0       0       0
       0       0       0       0       0       0       0       0       0       0
       0       0       0       0       0       0       0       0       0       0
       0       0       0       0       0       0       0       0       0       0
       0       0       0       0       0       0       0       0       0       0
       0       0       0       0       0       0       0       0       0       0
       0       0       0       0       0       0       0       0       0       0
       0       0       0       0       0       0       0       0       0       0
       0       0       0       0       0       0       0       0       0       0
       0       0       0       0       0       0       0       0       0       0
       0       0       0       0       0       0       0       0       0       0
       0       0       0       0       0       0       0       0       0       0
       0       0       0       0       0       0       0       0       0       0
       0       0       0       0       0       0       0       0       0       0
       0       0       0       0       0       0       0       0       0       0
       0       0       0       0       0       0       0       0       0       0
       0       0       0       0       0       0       0       0       0       0
       0       0       0       0       0       0       0       0       0       0
       0       0       0       0       0       0       0       0       0       0
       0       0       0       0       0       0       0       0       0       0
       0       0       0       0       0       0       0       0       0       0
       0       0       0       0       0       0       0       0       0       0
       0       0       0       0       0       0       0       0       0       0
       0       0       0       0       0       0       0       0       0       0
       0       0       0       0       0       0       0       0       0       0
       0       0       0       0       0       0       0       0       0       0
       0       0       0       0       0       0       0       0       0       0
       0       0       0       0       0       0       0       0       0       0
       0       0       0       0       0       0       0       0       0       0
       0       0       0       0       0       0       0       0       0       0
       0       0       0       0       0       0       0       0       0       0
       0       0       0       0       0       0       0       0       0       0
       0       0       0       0       0       0       0       0       0       0
       0       0       0       0       0       0       0       0       0       0
       0       0       0       0       0       0       0       0       0       0
       0       0       0       0       0       0       0       0       0       0
       0       0       0       0       0       0       0       0       0       0
       0       0       0       0       0       0       0       0       0       0
       0       0       0       0       0       0       0       0       0       0
       0       0       0       0       0       0       0       0       0       0
       0       0       0       0       0       0       0       0       0       0
       0       0       0       0       0       0       0       0       0       0
       0       0       0       0       0       0       0       0       0       0
       0       0       0       0       0       0       0       0       0       0
       0       0       0       0       0       0       0       0       0       0
       0       0       0       0       0       0       0       0       0       0
       0       0       0       0       0       0       0       0       0       0
       0       0       0       0       0       0       0       0       0       0
       0       0       0       0       0       0       0       0       0       0
       0       0       0       0       0       0       0       0       0       0
       0       0       0       0       0       0       0       0       0       0
       0       0       0       0       0       0       0       0       0       0
       0       0       0       0       0       0       0       0       0       0
       0       0       0       0       0       0       0       0       0       0
       0       0       0       0       0       0       0       0       0       0
       0       0       0       0       0       0       0       0       0       0
       0       0       0       0       0       0       0       0       0       0
       0       0       0       0       0       0       0       0       0       0
       0       0       0       0       0       0       0       0       0       0
       0       0       0       0       0       0       0       0       0       0
       0       0       0       0       0       0       0       0       0       0
       0       0       0       0       0       0       0       0       0       0
       0       0       0       0       0       0       0       0       0       0
       0       0       0       0       0       0       0       0       0       0
       0       0       0       0       0       0       0       0       0       0
       0       0       0       0       0       0       0       0       0       0
       0       0       0       0       0       0       0       0       0       0
       0       0       0       0       0       0       0       0       0       0
       0       0       0       0       0       0       0       0       0       0
       0       0       0       0       0       0       0       0       0       0
       0       0       0       0       0       0       0       0       0       0
       0       0       0       0       0       0       0       0       0       0
       0       0       0       0       0       0       0       0       0       0
       0       0       0       0       0       0       0       0       0       0
       0       0       0       0       0       0       0       0       0       0
       0       0       0       0       0       0       0       0       0       0
       0       0       0       0       0       0       0       0       0       0
       0       0       0       0       0       0       0       0       0       0
       0       0       0       0       0       0       0       0       0       0
       0       0       0       0       0       0       0       0       0       0
       0       0       0       0       0       0       0       0       0       0
       0       0       0       0       0       0       0       0       0       0
       0       0       0       0       0       0       0       0       0       0
       0       0       0       0       0       0       0       0       0       0
       0       0       0       0       0       0       0       0       0       0
       0       0       0       0       0       0       0       0       0       0
       0       0       0       0       0       0       0       0       0       0
       0       0       0       0       0       0       0       0       0       0
       0       0       0       0       0       0       0       0       0       0
       0       0       0       0       0       0       0       0       0       0
       0       0       0       0       0       0       0       0       0       0
       0       0       0       0       0       0       0       0       0       0
       0       0       0       0       0       0       0       0       0       0
       0       0       0       0       0       0       0       0       0       0
       0       0       0       0       0       0       0       0       0       0
       0       0       0       0       0       0       0       0       0       0
       0       0       0       0       0       0       0       0       0       0
       0       0       0       0       0       0       0       0       0       0
       0       0       0       0       0       0       0       0       0       0
       0       0       0       0       0       0       0       0       0       0
       0       0       0       0       0       0       0       0       0       0
       0       0       0       0       0       0       0       0       0       0
       0       0       0       0       0       0       0       0       0       0
       0       0       0       0       0       0       0       0       0       0
       0       0       0       0       0       0       0       0       0       0
       0       0       0       0       0       0       0       0       0       0
       0       0       0       0       0       0       0       0       0       0
       0       0       0       0       0       0       0       0       0       0
       0       0       0       0       0       0       0       0       0       0
       0       0       0       0       0       0       0       0       0       0
       0       0       0       0       0       0       0       0       0       0
       0       0       0       0       0       0       0       0       0       0
       0       0       0       0       0       0       0       0       0       0
       0       0       0       0       0       0       0       0       0       0
       0       0       0       0       0       0       0       0       0       0
       0       0       0       0       0       0       0       0       0       0
       0       0       0       0       0       0       0       0       0       0
       0       0       0       0       0       0       0       0       0       0
       0       0       0       0       0       0       0       0       0       0
       0       0       0       0       0       0       0       0       0       0
       0       0       0       0       0       0       0       0       0       0
       0       0       0       0       0       0       0       0       0       0
       0       0       0       0       0       0       0       0       0       0
       0       0       0       0       0       0       0       0       0       0
       0       0       0       0       0       0       0       0       0       0
       0       0       0       0       0       0       0       0       0       0
       0       0       0       0       0       0       0       0       0       0
       0       0       0       0       0       0       0       0       0       0
       0       0       0       0       0       0       0       0       0       0
       0       0       0       0       0       0       0       0       0       0
       0       0       0       0       0       0       0       0       0       0
       0       0       0       0       0       0       0       0       0       0
       0       0       0       0       0       0       0       0       0       0
       0       0       0       0       0       0       0       0       0       0
       0       0       0       0       0       0       0       0       0       0
       0       0       0       0       0       0       0       0       0       0
       0       0       0       0       0       0       0       0       0       0
       0       0       0       0       0       0       0       0       0       0
       0       0       0       0       0       0       0       0       0       0
       0       0       0       0       0       0       0       0       0       0
       0       0       0       0       0       0       0       0       0       0
       0       0       0       0       0       0       0       0       0       0
       0       0       0       0       0       0       0       0       0       0
       0       0       0       0       0       0       0       0       0       0
       0       0       0       0       0       0       0       0       0       0
       0       0       0       0       0       0       0       0       0       0
       0       0       0       0       0       0       0       0       0       0
       0       0       0       0       0       0       0       0       0       0
       0       0       0       0       0       0       0       0       0       0
       0       0       0       0       0       0       0       0       0       0
       0       0       0       0       0       0       0       0       0       0
       0       0       0       0       0       0       0       0       0       0
       0       0       0       0       0       0       0       0       0       0
       0       0       0       0       0       0       0       0       0       0
       0       0       0       0       0       0       0       0       0       0
       0       0       0       0       0       0       0       0       0       0
       0       0       0       0       0       0       0       0       0       0
       0       0       0       0       0       0       0       0       0       0
       0       0       0       0       0       0       0       0       0       0
       0       0       0       0       0       0       0       0       0       0
       0       0       0       0       0       0       0       0       0       0
       0       0       0       0       0       0       0       0       0       0
       0       0       0       0       0       0       0       0       0       0
       0       0       0       0       0       0       0       0       0       0
       0       0       0       0       0       0       0       0       0       0
       0       0       0       0       0       0       0       0       0       0
       0       0       0       0       0       0       0       0       0       0
       0       0       0       0       0       0       0       0       0       0
       0       0       0       0       0       0       0       0       0       0
       0       0       0       0       0       0       0       0       0       0
       0       0       0       0       0       0       0       0       0       0
       0       0       0       0       0       0       0       0       0       0
       0       0       0       0       0       0       0       0       0       0
       0       0       0       0       0       0       0       0       0       0
       0       0       0       0       0       0       0       0       0       0
       0       0       0       0       0       0       0       0       0       0
       0       0       0       0       0       0       0       0       0       0
       0       0       0       0       0       0       0       0       0       0
       0       0       0       0       0       0       0       0       0       0
       0       0       0       0       0       0       0       0       0       0
       0       0       0       0       0       0       0       0       0       0
       0       0       0       0       0       0       0       0       0       0
       0       0       0       0       0       0       0       0       0       0
       0       0       0       0       0       0       0       0       0       0
       0       0       0       0       0       0       0       0       0       0
       0       0       0       0       0       0       0       0       0       0
       0       0       0       0       0       0       0       0       0       0
       0       0       0       0       0       0       0       0       0       0
       0       0       0       0       0       0       0       0       0       0
       0       0       0       0       0       0       0       0       0       0
       0       0       0       0       0       0       0       0       0       0
       0       0       0       0       0       0       0       0       0       0
       0       0       0       0       0       0       0       0       0       0
       0       0       0       0       0       0       0       0       0       0
       0       0       0       0       0       0       0       0       0       0
       0       0       0       0       0       0       0       0       0       0
       0       0       0       0       0       0       0       0       0       0
       0       0       0       0       0       0       0       0       0       0
       0       0       0       0       0       0       0       0       0       0
       0       0       0       0       0       0       0       0       0       0
       0       0       0       0       0       0       0       0       0       0
       0       0       0       0       0       0       0       0       0       0
       0       0       0       0       0       0       0       0       0       0
       0       0       0       0       0       0       0       0       0       0
       0       0       0       0       0       0       0       0       0       0
       0       0       0       0       0       0       0       0       0       0
       0       0       0       0       0       0       0       0       0       0
       0       0       0       0       0       0       0       0       0       0
       0       0       0       0       0       0       0       0       0       0
       0       0       0       0       0       0       0       0       0       0
       0       0       0       0       0       0       0       0       0       0
       0       0       0       0       0       0       0       0       0       0
       0       0       0       0       0       0       0       0       0       0
       0       0       0       0       0       0       0       0       0       0
       0       0       0       0       0       0       0       0       0       0
       0       0       0       0       0       0       0       0       0       0
       0       0       0       0       0       0       0       0       0       0
       0       0       0       0       0       0       0       0       0       0
       0       0       0       0       0       0       0       0       0       0
       0       0       0       0       0       0       0       0       0       0
       0       0       0       0       0       0       0       0       0       0
       0       0       0       0       0       0       0       0       0       0
       0       0       0       0       0       0       0       0       0       0
       0       0       0       0       0       0       0       0       0       0
       0       0       0       0       0       0       0       0       0       0
       0       0       0       0       0       0       0       0       0       0
       0       0       0       0       0       0       0       0       0       0
       0       0       0       0       0       0       0       0       0       0
       0       0       0       0       0       0       0       0       0       0
       0       0       0       0       0       0       0       0       0       0
       0       0       0       0       0       0       0       0       0       0
       0       0       0       0       0       0       0       0       0       0
       0       0       0       0       0       0       0       0       0       0
       0       0       0       0       0       0       0       0       0       0
       0       0       0       0       0       0       0       0       0       0
       0       0       0       0       0       0       0       0       0       0
       0       0       0       0       0       0       0       0       0       0
       0       0       0       0       0       0       0       0       0       0
       0       0       0       0       0       0       0       0       0       0
       0       0       0       0       0       0       0       0       0       0
       0       0       0       0       0       0       0       0       0       0
       0       0       0       0       0       0       0       0       0       0
       0       0       0       0       0       0       0       0       0       0
       0       0       0       0       0       0       0       0       0       0
       0       0       0       0       0       0       0       0       0       0
       0       0       0       0       0       0       0       0       0       0
       0       0       0       0       0       0       0       0       0       0
       0       0       0       0       0       0       0       0       0       0
       0       0       0       0       0       0       0       0       0       0
       0       0       0       0       0       0       0       0       0       0
       0       0       0       0       0       0       0       0       0       0
       0       0       0       0       0       0       0       0       0       0
       0       0       0       0       0       0       0       0       0       0
       0       0       0       0       0       0       0       0       0       0
       0       0       0       0       0       0       0       0       0       0
       0       0       0       0       0       0       0       0       0       0
       0       0       0       0       0       0       0       0       0       0
       0       0       0       0       0       0       0       0       0       0
       0       0       0       0       0       0       0       0       0       0
       0       0       0       0       0       0       0       0       0       0
       0       0       0       0       0       0       0       0       0       0
       0       0       0       0       0       0       0       0       0       0
       0       0       0       0       0       0       0       0       0       0
       0       0       0       0       0       0       0       0       0       0
       0       0       0       0       0       0       0       0       0       0
       0       0       0       0       0       0       0       0       0       0
       0       0       0       0       0       0       0       0       0       0
       0       0       0       0       0       0       0       0       0       0
       0       0       0       0       0       0       0       0       0       0
       0       0       0       0       0       0       0       0       0       0
       0       0       0       0       0       0       0       0       0       0
       0       0       0       0       0       0       0       0       0       0
       0       0       0       0       0       0       0       0       0       0
       0       0       0       0       0       0       0       0       0       0
       0       0       0       0       0       0       0       0       0       0
       0       0       0       0       0       0       0       0       0       0
       0       0       0       0       0       0       0       0       0       0
       0       0       0       0       0       0       0       0       0       0
       0       0       0       0       0       0       0       0       0       0
       0       0       0       0       0       0       0       0       0       0
       0       0       0       0       0       0       0       0       0       0
       0       0       0       0       0       0       0       0       0       0
       0       0       0       0       0       0       0       0       0       0
       0       0       0       0       0       0       0       0       0       0
       0       0       0       0       0       0       0       0       0       0
       0       0       0       0       0       0       0       0       0       0
       0       0       0       0       0       0       0       0       0       0
       0       0       0       0       0       0       0       0       0       0
       0       0       0       0       0       0       0       0       0       0
       0       0       0       0       0       0       0       0       0       0
       0       0       0       0       0       0       0       0       0       0
       0       0       0       0       0       0       0       0       0       0
       0       0       0       0       0       0       0       0       0       0
       0       0       0       0       0       0       0       0       0       0
       0       0       0       0       0       0       0       0       0       0
       0       0       0       0       0       0       0       0       0       0
       0       0       0       0       0       0       0       0       0       0
       0       0       0       0       0       0       0       0       0       0
       0       0       0       0       0       0       0       0       0       0
       0       0       0       0       0       0       0       0       0       0
       0       0       0       0       0       0       0       0       0       0
       0       0       0       0       0       0       0       0       0       0
       0       0       0       0       0       0       0       0       0       0
       0       0       0       0       0       0       0       0       0       0
       0       0       0       0       0       0       0       0       0       0
       0       0       0       0       0       0       0       0       0       0
       0       0       0       0       0       0       0       0       0       0
       0       0       0       0       0       0       0       0       0       0
       0       0       0       0       0       0       0       0       0       0
       0       0       0       0       0       0       0       0       0       0
       0       0       0       0       0       0       0       0       0       0
       0       0       0       0       0       0       0       0       0       0
       0       0       0       0       0       0       0       0       0       0
       0       0       0       0       0       0       0       0       0       0
       0       0       0       0       0       0       0       0       0       0
       0       0       0       0       0       0       0       0       0       0
       0       0       0       0       0       0       0       0       0       0
       0       0       0       0       0       0       0       0       0       0
       0       0       0       0       0       0       0       0       0       0
       0       0       0       0       0       0       0       0       0       0
       0       0       0       0       0       0       0       0       0       0
       0       0       0       0       0       0       0       0       0       0
       0       0       0       0       0       0       0       0       0       0
       0       0       0       0       0       0       0       0       0       0
       0       0       0       0       0       0       0       0       0       0
       0       0       0       0       0       0       0       0       0       0
       0       0       0       0       0       0       0       0       0       0
       0       0       0       0       0       0       0       0       0       0
       0       0       0       0       0       0       0       0       0       0
       0       0       0       0       0       0       0       0       0       0
       0       0       0       0       0       0       0       0       0       0
       0       0       0       0       0       0       0       0       0       0
       0       0       0       0       0       0       0       0       0       0
       0       0       0       0       0       0       0       0       0       0
       0       0       0       0       0       0       0       0       0       0
       0       0       0       0       0       0       0       0       0       0
       0       0       0       0       0       0       0       0       0       0
       0       0       0       0       0       0       0       0       0       0
       0       0       0       0       0       0       0       0       0       0
       0       0       0       0       0       0       0       0       0       0
       0       0       0       0       0       0       0       0       0       0
       0       0       0       0       0       0       0       0       0       0
       0       0       0       0       0       0       0       0       0       0
       0       0       0       0       0       0       0       0       0       0
       0       0       0       0       0       0       0       0       0       0
       0       0       0       0       0       0       0       0       0       0
       0       0       0       0       0       0       0       0       0       0
       0       0       0       0       0       0       0       0       0       0
       0       0       0       0       0       0       0       0       0       0
       0       0       0       0       0       0       0       0       0       0
       0       0       0       0       0       0       0       0       0       0
       0       0       0       0       0       0       0       0       0       0
       0       0       0       0       0       0       0       0       0       0
       0       0       0       0       0       0       0       0       0       0
       0       0       0       0       0       0       0       0       0       0
       0       0       0       0       0       0       0       0       0       0
       0       0       0       0       0       0       0       0       0       0
       0       0       0       0       0       0       0       0       0       0
       0       0       0       0       0       0       0       0       0       0
       0       0       0       0       0       0       0       0       0       0
       0       0       0       0       0       0       0       0       0       0
       0       0       0       0       0       0       0       0       0       0
       0       0       0       0       0       0       0       0       0       0
       0       0       0       0       0       0       0       0       0       0
       0       0       0       0       0       0       0       0       0       0
       0       0       0       0       0       0       0       0       0       0
       0       0       0       0       0       0       0       0       0       0
       0       0       0       0       0       0       0       0       0       0
       0       0       0       0       0       0       0       0       0       0
       0       0       0       0       0       0       0       0       0       0
       0       0       0       0       0       0       0       0       0       0
       0       0       0       0       0       0       0       0       0       0
       0       0       0       0       0       0       0       0       0       0
       0       0       0       0       0       0       0       0       0       0
       0       0       0       0       0       0       0       0       0       0
       0       0       0       0       0       0       0       0       0       0
       0       0       0       0       0       0       0       0       0       0
       0       0       0       0       0       0       0       0       0       0
       0       0       0       0       0       0       0       0       0       0
       0       0       0       0       0       0       0       0       0       0
       0       0       0       0       0       0       0       0       0       0
       0       0       0       0       0       0       0       0       0       0
       0       0       0       0       0       0       0       0       0       0
       0       0       0       0       0       0       0       0       0       0
       0       0       0       0       0       0       0       0       0       0
       0       0       0       0       0       0       0       0       0       0
       0       0       0       0       0       0       0       0       0       0
       0       0       0       0       0       0       0       0       0       0
       0       0       0       0       0       0       0       0       0       0
       0       0       0       0       0       0       0       0       0       0
       0       0       0       0       0       0       0       0       0       0
       0       0       0       0       0       0       0       0       0       0
       0       0       0       0       0       0       0       0       0       0
       0       0       0       0       0       0       0       0       0       0
       0       0       0       0       0       0       0       0       0       0
       0       0       0       0       0       0       0       0       0       0
       0       0       0       0       0       0       0       0       0       0
       0       0       0       0       0       0       0       0       0       0
       0       0       0       0       0       0       0       0       0       0
       0       0       0       0       0       0       0       0       0       0
       0       0       0       0       0       0       0       0       0       0
       0       0       0       0       0       0       0       0       0       0
       0       0       0       0       0       0       0       0       0       0
       0       0       0       0       0       0       0       0       0       0
       0       0       0       0       0       0       0       0       0       0
       0       0       0       0       0       0       0       0       0       0
       0       0       0       0       0       0       0       0       0       0
       0       0       0       0       0       0       0       0       0       0
       0       0       0       0       0       0       0       0       0       0
       0       0       0       0       0       0       0       0       0       0
       0       0       0       0       0       0       0       0       0       0
       0       0       0       0       0       0       0       0       0       0
       0       0       0       0       0       0       0       0       0       0
       0       0       0       0       0       0       0       0       0       0
       0       0       0       0       0       0       0       0       0       0
       0       0       0       0       0       0       0       0       0       0
       0       0       0       0       0       0       0       0       0       0
       0       0       0       0       0       0       0       0       0       0
       0       0       0       0       0       0       0       0       0       0
       0       0       0       0       0       0       0       0       0       0
       0       0       0       0       0       0       0       0       0       0
       0       0       0       0       0       0       0       0       0       0
       0       0       0       0       0       0       0       0       0       0
       0       0       0       0       0       0       0       0       0       0
       0       0       0       0       0       0       0       0       0       0
       0       0       0       0       0       0       0       0       0       0
       0       0       0       0       0       0       0       0       0       0
       0       0       0       0       0       0       0       0       0       0
       0       0       0       0       0       0       0       0       0       0
       0       0       0       0       0       0       0       0       0       0
       0       0       0       0       0       0       0       0       0       0
       0       0       0       0       0       0       0       0       0       0
       0       0       0       0       0       0       0       0       0       0
       0       0       0       0       0       0       0       0       0       0
       0       0       0       0       0       0       0       0       0       0
       0       0       0       0       0       0       0       0       0       0
       0       0       0       0       0       0       0       0       0       0
       0       0       0       0       0       0       0       0       0       0
       0       0       0       0       0       0       0       0       0       0
       0       0       0       0       0       0       0       0       0       0
       0       0       0       0       0       0       0       0       0       0
       0       0       0       0       0       0       0       0       0       0
       0       0       0       0       0       0       0       0       0       0
       0       0       0       0       0       0       0       0       0       0
       0       0       0       0       0       0       0       0       0       0
       0       0       0       0       0       0       0       0       0       0
       0       0       0       0       0       0       0       0       0       0
       0       0       0       0       0       0       0       0       0       0
       0       0       0       0       0       0       0       0       0       0
       0       0       0       0       0       0       0       0       0       0
       0       0       0       0       0       0       0       0       0       0
       0       0       0       0       0       0       0       0       0       0
       0       0       0       0       0       0       0       0       0       0
       0       0       0       0       0       0       0       0       0       0
       0       0       0       0       0       0       0       0       0       0
       0       0       0       0       0       0       0       0       0       0
       0       0       0       0       0       0       0       0       0       0
       0       0       0       0       0       0       0       0       0       0
       0       0       0       0       0       0       0       0       0       0
       0       0       0       0       0       0       0       0       0       0
       0       0       0       0       0       0       0       0       0       0
       0       0       0       0       0       0       0       0       0       0
       0       0       0       0       0       0       0       0       0       0
       0       0       0       0       0       0       0       0       0       0
       0       0       0       0       0       0       0       0       0       0
       0       0       0       0       0       0       0       0       0       0
       0       0       0       0       0       0       0       0       0       0
       0       0       0       0       0       0       0       0       0       0
       0       0       0       0       0       0       0       0       0       0
       0       0       0       0       0       0       0       0       0       0
       0       0       0       0       0       0       0       0       0       0
       0       0       0       0       0       0       0       0       0       0
       0       0       0       0       0       0       0       0       0       0
       0       0       0       0       0       0       0       0       0       0
       0       0       0       0       0       0       0       0       0       0
       0       0       0       0       0       0       0       0       0       0
       0       0       0       0       0       0       0       0       0       0
       0       0       0       0       0       0       0       0       0       0
       0       0       0       0       0       0       0       0       0       0
       0       0       0       0       0       0       0       0       0       0
       0       0       0       0       0       0       0       0       0       0
       0       0       0       0       0       0       0       0       0       0
       0       0       0       0       0       0       0       0       0       0
       0       0       0       0       0       0       0       0       0       0
       0       0       0       0       0       0       0       0       0       0
       0       0       0       0       0       0       0       0       0       0
       0       0       0       0       0       0       0       0       0       0
       0       0       0       0       0       0       0       0       0       0
       0       0       0       0       0       0       0       0       0       0
       0       0       0       0       0       0       0       0       0       0
       0       0       0       0       0       0       0       0       0       0
       0       0       0       0       0       0       0       0       0       0
       0       0       0       0       0       0       0       0       0       0
       0       0       0       0       0       0       0       0       0       0
       0       0       0       0       0       0       0       0       0       0
       0       0       0       0       0       0       0       0       0       0
       0       0       0       0       0       0       0       0       0       0
       0       0       0       0       0       0       0       0       0       0
       0       0       0       0       0       0       0       0       0       0
       0       0       0       0       0       0       0       0       0       0
       0       0       0       0       0       0       0       0       0       0
       0       0       0       0       0       0       0       0       0       0
       0       0       0       0       0       0       0       0       0       0
       0       0       0       0       0       0       0       0       0       0
       0       0       0       0       0       0       0       0       0       0
       0       0       0       0       0       0       0       0       0       0
       0       0       0       0       0       0       0       0       0       0
       0       0       0       0       0       0       0       0       0       0
       0       0       0       0       0       0       0       0       0       0
       0       0       0       0       0       0       0       0       0       0
       0       0       0       0       0       0       0       0       0       0
       0       0       0       0       0       0       0       0       0       0
       0       0       0       0       0       0       0       0       0       0
       0       0       0       0       0       0       0       0       0       0
       0       0       0       0       0       0       0       0       0       0
       0       0       0       0       0       0       0       0       0       0
       0       0       0       0       0       0       0       0       0       0
       0       0       0       0       0       0       0       0       0       0
       0       0       0       0       0       0       0       0       0       0
       0       0       0       0       0       0       0       0       0       0
       0       0       0       0       0       0       0       0       0       0
       0       0       0       0       0       0       0       0       0       0
       0       0       0       0       0       0       0       0       0       0
       0       0       0       0       0       0       0       0       0       0
       0       0       0       0       0       0       0       0       0       0
       0       0       0       0       0       0       0       0       0       0
       0       0       0       0       0       0       0       0       0       0
       0       0       0       0       0       0       0       0       0       0
       0       0       0       0       0       0       0       0       0       0
       0       0       0       0       0       0       0       0       0       0
       0       0       0       0       0       0       0       0       0       0
       0       0       0       0       0       0       0       0       0       0
       0       0       0       0       0       0       0       0       0       0
       0       0       0       0       0       0       0       0       0       0
       0       0       0       0       0       0       0       0       0       0
       0       0       0       0       0       0       0       0       0       0
       0       0       0       0       0       0       0       0       0       0
       0       0       0       0       0       0       0       0       0       0
       0       0       0       0       0       0       0       0       0       0
       0       0       0       0       0       0       0       0       0       0
       0       0       0       0       0       0       0       0       0       0
       0       0       0       0       0       0       0       0       0       0
       0       0       0       0       0       0       0       0       0       0
       0       0       0       0       0       0       0       0       0       0
       0       0       0       0       0       0       0       0       0       0
       0       0       0       0       0       0       0       0       0       0
       0       0       0       0       0       0       0       0       0       0
       0       0       0       0       0       0       0       0       0       0
       0       0       0       0       0       0       0       0       0       0
       0       0       0       0       0       0       0       0       0       0
       0       0       0       0       0       0       0       0       0       0
       0       0       0       0       0       0       0       0       0       0
       0       0       0       0       0       0       0       0       0       0
       0       0       0       0       0       0       0       0       0       0
       0       0       0       0       0       0       0       0       0       0
       0       0       0       0       0       0       0       0       0       0
       0       0       0       0       0       0       0       0       0       0
       0       0       0       0       0       0       0       0       0       0
       0       0       0       0       0       0       0       0       0       0
       0       0       0       0       0       0       0       0       0       0
       0       0       0       0       0       0       0       0       0       0
       0       0       0       0       0       0       0       0       0       0
       0       0       0       0       0       0       0       0       0       0
       0       0       0       0       0       0       0       0       0       0
       0       0       0       0       0       0       0       0       0       0
       0       0       0       0       0       0       0       0       0       0
       0       0       0       0       0       0       0       0       0       0
       0       0       0       0       0       0       0       0       0       0
       0       0       0       0       0       0       0       0       0       0
       0       0       0       0       0       0       0       0       0       0
       0       0       0       0       0       0       0       0       0       0
       0       0       0       0       0       0       0       0       0       0
       0       0       0       0       0       0       0       0       0       0
       0       0       0       0       0       0       0       0       0       0
       0       0       0       0       0       0       0       0       0       0
       0       0       0       0       0       0       0       0       0       0
       0       0       0       0       0       0       0       0       0       0
       0       0       0       0       0       0       0       0       0       0
       0       0       0       0       0       0       0       0       0       0
       0       0       0       0       0       0       0       0       0       0
       0       0       0       0       0       0       0       0       0       0
       0       0       0       0       0       0       0       0       0       0
       0       0       0       0       0       0       0       0       0       0
       0       0       0       0       0       0       0       0       0       0
       0       0       0       0       0       0       0       0       0       0
       0       0       0       0       0       0       0       0       0       0
       0       0       0       0       0       0       0       0       0       0
       0       0       0       0       0       0       0       0       0       0
       0       0       0       0       0       0       0       0       0       0
       0       0       0       0       0       0       0       0       0       0
       0       0       0       0       0       0       0       0       0       0
       0       0       0       0       0       0       0       0       0       0
       0       0       0       0       0       0       0       0       0       0
       0       0       0       0       0       0       0       0       0       0
       0       0       0       0       0       0       0       0       0       0
       0       0       0       0       0       0       0       0       0       0
       0       0       0       0       0       0       0       0       0       0
       0       0       0       0       0       0       0       0       0       0
       0       0       0       0       0       0       0       0       0       0
       0       0       0       0       0       0       0       0       0       0
       0       0       0       0       0       0       0       0       0       0
       0       0       0       0       0       0       0       0       0       0
       0       0       0       0       0       0       0       0       0       0
       0       0       0       0       0       0       0       0       0       0
       0       0       0       0       0       0       0       0       0       0
       0       0       0       0       0       0       0       0       0       0
       0       0       0       0       0       0       0       0       0       0
       0       0       0       0       0       0       0       0       0       0
       0       0       0       0       0       0       0       0       0       0
       0       0       0       0       0       0       0       0       0       0
       0       0       0       0       0       0       0       0       0       0
       0       0       0       0       0       0       0       0       0       0
       0       0       0       0       0       0       0       0       0       0
       0       0       0       0       0       0       0       0       0       0
       0       0       0       0       0       0       0       0       0       0
       0       0       0       0       0       0       0       0       0       0
       0       0       0       0       0       0       0       0       0       0
       0       0       0       0       0       0       0       0       0       0
       0       0       0       0       0       0       0       0       0       0
       0       0       0       0       0       0       0       0       0       0
       0       0       0       0       0       0       0       0       0       0
       0       0       0       0       0       0       0       0       0       0
       0       0       0       0       0       0       0       0       0       0
       0       0       0       0       0       0       0       0       0       0
       0       0       0       0       0       0       0       0       0       0
       0       0       0       0       0       0       0       0       0       0
       0       0       0       0       0       0       0       0       0       0
       0       0       0       0       0       0       0       0       0       0
       0       0       0       0       0       0       0       0       0       0
       0       0       0       0       0       0       0       0       0       0
       0       0       0       0       0       0       0       0       0       0
       0       0       0       0       0       0       0       0       0       0
       0       0       0       0       0       0       0       0       0       0
       0       0       0       0       0       0       0       0       0       0
       0       0       0       0       0       0       0       0       0       0
       0       0       0       0       0       0       0       0       0       0
       0       0       0       0       0       0       0       0       0       0
       0       0       0       0       0       0       0       0       0       0
       0       0       0       0       0       0       0       0       0       0
       0       0       0       0       0       0       0       0       0       0
       0       0       0       0       0       0       0       0       0       0
       0       0       0       0       0       0       0       0       0       0
       0       0       0       0       0       0       0       0       0       0
       0       0       0       0       0       0       0       0       0       0
       0       0       0       0       0       0       0       0       0       0
       0       0       0       0       0       0       0       0       0       0
       0       0       0       0       0       0       0       0       0       0
       0       0       0       0       0       0       0       0       0       0
       0       0       0       0       0       0       0       0       0       0
       0       0       0       0       0       0       0       0       0       0
       0       0       0       0       0       0       0       0       0       0
       0       0       0       0       0       0       0       0       0       0
       0       0       0       0       0       0       0       0       0       0
       0       0       0       0       0       0       0       0       0       0
       0       0       0       0       0       0       0       0       0       0
       0       0       0       0       0       0       0       0       0       0
       0       0       0       0       0       0       0       0       0       0
       0       0       0       0       0       0       0       0       0       0
       0       0       0       0       0       0       0       0       0       0
       0       0       0       0       0       0       0       0       0       0
       0       0       0       0       0       0       0       0       0       0
       0       0       0       0       0       0       0       0       0       0
       0       0       0       0       0       0       0       0       0       0
       0       0       0       0       0       0       0       0       0       0
       0       0       0       0       0       0       0       0       0       0
       0       0       0       0       0       0       0       0       0       0
       0       0       0       0       0       0       0       0       0       0
       0       0       0       0       0       0       0       0       0       0
       0       0       0       0       0       0       0       0       0       0
       0       0       0       0       0       0       0       0       0       0
       0       0       0       0       0       0       0       0       0       0
       0       0       0       0       0       0       0       0       0       0
       0       0       0       0       0       0       0       0       0       0
       0       0       0       0       0       0       0       0       0       0
       0       0       0       0       0       0       0       0       0       0
       0       0       0       0       0       0       0       0       0       0
       0       0       0       0       0       0       0       0       0       0
       0       0       0       0       0       0       0       0       0       0
       0       0       0       0       0       0       0       0       0       0
       0       0       0       0       0       0       0       0       0       0
       0       0       0       0       0       0       0       0       0       0
       0       0       0       0       0       0       0       0       0       0
       0       0       0       0       0       0       0       0       0       0
       0       0       0       0       0       0       0       0       0       0
       0       0       0       0       0       0       0       0       0       0
       0       0       0       0       0       0       0       0       0       0
       0       0       0       0       0       0       0       0       0       0
       0       0       0       0       0       0       0       0       0       0
       0       0       0       0       0       0       0       0       0       0
       0       0       0       0       0       0       0       0       0       0
       0       0       0       0       0       0       0       0       0       0
       0       0       0       0       0       0       0       0       0       0
       0       0       0       0       0       0       0       0       0       0
       0       0       0       0       0       0       0       0       0       0
       0       0       0       0       0       0       0       0       0       0
       0       0       0       0       0       0       0       0       0       0
       0       0       0       0       0       0       0       0       0       0
       0       0       0       0       0       0       0       0       0       0
       0       0       0       0       0       0       0       0       0       0
       0       0       0       0       0       0       0       0       0       0
       0       0       0       0       0       0       0       0       0       0
       0       0       0       0       0       0       0       0       0       0
       0       0       0       0       0       0       0       0       0       0
       0       0       0       0       0       0       0       0       0       0
       0       0       0       0       0       0       0       0       0       0
       0       0       0       0       0       0       0       0       0       0
       0       0       0       0       0       0       0       0       0       0
       0       0       0       0       0       0       0       0       0       0
       0       0       0       0       0       0       0       0       0       0
       0       0       0       0       0       0       0       0       0       0
       0       0       0       0       0       0       0       0       0       0
       0       0       0       0       0       0       0       0       0       0
       0       0       0       0       0       0       0       0       0       0
       0       0       0       0       0       0       0       0       0       0
       0       0       0       0       0       0       0       0       0       0
       0       0       0       0       0       0       0       0       0       0
       0       0       0       0       0       0       0       0       0       0
       0       0       0       0       0       0       0       0       0       0
       0       0       0       0       0       0       0       0       0       0
       0       0       0       0       0       0       0       0       0       0
       0       0       0       0       0       0       0       0       0       0
       0       0       0       0       0       0       0       0       0       0
       0       0       0       0       0       0       0       0       0       0
       0       0       0       0       0       0       0       0       0       0
       0       0       0       0       0       0       0       0       0       0
       0       0       0       0       0       0       0       0       0       0
       0       0       0       0       0       0       0       0       0       0
       0       0       0       0       0       0       0       0       0       0
       0       0       0       0       0       0       0       0       0       0
       0       0       0       0       0       0       0       0       0       0
       0       0       0       0       0       0       0       0       0       0
       0       0       0       0       0       0       0       0       0       0
       0       0       0       0       0       0       0       0       0       0
       0       0       0       0       0       0       0       0       0       0
       0       0       0       0       0       0       0       0       0       0
       0       0       0       0       0       0       0       0       0       0
       0       0       0       0       0       0       0       0       0       0
       0       0       0       0       0       0       0       0       0       0
       0       0       0       0       0       0       0       0       0       0
       0       0       0       0       0       0       0       0       0       0
       0       0       0       0       0       0       0       0       0       0
       0       0       0       0       0       0       0       0       0       0
       0       0       0       0       0       0       0       0       0       0
       0       0       0       0       0       0       0       0       0       0
       0       0       0       0       0       0       0       0       0       0
       0       0       0       0       0       0       0       0       0       0
       0       0       0       0       0       0       0       0       0       0
       0       0       0       0       0       0       0       0       0       0
       0       0       0       0       0       0       0       0       0       0
       0       0       0       0       0       0       0       0       0       0
       0       0       0       0       0       0       0       0       0       0
       0       0       0       0       0       0       0       0       0       0
       0       0       0       0       0       0       0       0       0       0
       0       0       0       0       0       0       0       0       0       0
       0       0       0       0       0       0       0       0       0       0
       0       0       0       0       0       0       0       0       0       0
       0       0       0       0       0       0       0       0       0       0
       0       0       0       0       0       0       0       0       0       0
       0       0       0       0       0       0       0       0       0       0
       0       0       0       0       0       0       0       0       0       0
       0       0       0       0       0       0       0       0       0       0
       0       0       0       0       0       0       0       0       0       0
       0       0       0       0       0       0       0       0       0       0
       0       0       0       0       0       0       0       0       0       0
       0       0       0       0       0       0       0       0       0       0
       0       0       0       0       0       0       0       0       0       0
       0       0       0       0       0       0       0       0       0       0
       0       0       0       0       0       0       0       0       0       0
       0       0       0       0       0       0       0       0       0       0
       0       0       0       0       0       0       0       0       0       0
       0       0       0       0       0       0       0       0       0       0
       0       0       0       0       0       0       0       0       0       0
       0       0       0       0       0       0       0       0       0       0
       0       0       0       0       0       0       0       0       0       0
       0       0       0       0       0       0       0       0       0       0
       0       0       0       0       0       0       0       0       0       0
       0       0       0       0       0       0       0       0       0       0
       0       0       0       0       0       0       0       0       0       0
       0       0       0       0       0       0       0       0       0       0
       0       0       0       0       0       0       0       0       0       0
       0       0       0       0       0       0       0       0       0       0
       0       0       0       0       0       0       0       0       0       0
       0       0       0       0       0       0       0       0       0       0
       0       0       0       0       0       0       0       0       0       0
       0       0       0       0       0       0       0       0       0       0
       0       0       0       0       0       0       0       0       0       0
       0       0       0       0       0       0       0       0       0       0
       0       0       0       0       0       0       0       0       0       0
       0       0       0       0       0       0       0       0       0       0
       0       0       0       0       0       0       0       0       0       0
       0       0       0       0       0       0       0       0       0       0
       0       0       0       0       0       0       0       0       0       0
       0       0       0       0       0       0       0       0       0       0
       0       0       0       0       0       0       0       0       0       0
       0       0       0       0       0       0       0       0       0       0
       0       0       0       0       0       0       0       0       0       0
       0       0       0       0       0       0       0       0       0       0
       0       0       0       0       0       0       0       0       0       0
       0       0       0       0       0       0       0       0       0       0
       0       0       0       0       0       0       0       0       0       0
       0       0       0       0       0       0       0       0       0       0
       0       0       0       0       0       0       0       0       0       0
       0       0       0       0       0       0       0       0       0       0
       0       0       0       0       0       0       0       0       0       0
       0       0       0       0       0       0       0       0       0       0
       0       0       0       0       0       0       0       0       0       0
       0       0       0       0       0       0       0       0       0       0
       0       0       0       0       0       0       0       0       0       0
       0       0       0       0       0       0       0       0       0       0
       0       0       0       0       0       0       0       0       0       0
       0       0       0       0       0       0       0       0       0       0
       0       0       0       0       0       0       0       0       0       0
       0       0       0       0       0       0       0       0       0       0
       0       0       0       0       0       0       0       0       0       0
       0       0       0       0       0       0       0       0       0       0
       0       0       0       0       0       0       0       0       0       0
       0       0       0       0       0       0       0       0       0       0
       0       0       0       0       0       0       0       0       0       0
       0       0       0       0       0       0       0       0       0       0
       0       0       0       0       0       0       0       0       0       0
       0       0       0       0       0       0       0       0       0       0
       0       0       0       0       0       0       0       0       0       0
       0       0       0       0       0       0       0       0       0       0
       0       0       0       0       0       0       0       0       0       0
       0       0       0       0       0       0       0       0       0       0
       0       0       0       0       0       0       0       0       0       0
       0       0       0       0       0       0       0       0       0       0
       0       0       0       0       0       0       0       0       0       0
       0       0       0       0       0       0       0       0       0       0
       0       0       0       0       0       0       0       0       0       0
       0       0       0       0       0       0       0       0       0       0
       0       0       0       0       0       0       0       0       0       0
       0       0       0       0       0       0       0       0       0       0
       0       0       0       0       0       0       0       0       0       0
       0       0       0       0       0       0       0       0       0       0
       0       0       0       0       0       0       0       0       0       0
       0       0       0       0       0       0       0       0       0       0
       0       0       0       0       0       0       0       0       0       0
       0       0       0       0       0       0       0       0       0       0
       0       0       0       0       0       0       0       0       0       0
       0       0       0       0       0       0       0       0       0       0
       0       0       0       0       0       0       0       0       0       0
       0       0       0       0       0       0       0       0       0       0
       0       0       0       0       0       0       0       0       0       0
       0       0       0       0       0       0       0       0       0       0
       0       0       0       0       0       0       0       0       0       0
       0       0       0       0       0       0       0       0       0       0
       0       0       0       0       0       0       0       0       0       0
       0       0       0       0       0       0       0       0       0       0
       0       0       0       0       0       0       0       0       0       0
       0       0       0       0       0       0       0       0       0       0
       0       0       0       0       0       0       0       0       0       0
       0       0       0       0       0       0       0       0       0       0
       0       0       0       0       0       0       0       0       0       0
       0       0       0       0       0       0       0       0       0       0
       0       0       0       0       0       0       0       0       0       0
       0       0       0       0       0       0       0       0       0       0
       0       0       0       0       0       0       0       0       0       0
       0       0       0       0       0       0       0       0       0       0
       0       0       0       0       0       0       0       0       0       0
       0       0       0       0       0       0       0       0       0       0
       0       0       0       0       0       0       0       0       0       0
       0       0       0       0       0       0       0       0       0       0
       0       0       0       0       0       0       0       0       0       0
       0       0       0       0       0       0       0       0       0       0
       0       0       0       0       0       0       0       0       0       0
       0       0       0       0       0       0       0       0       0       0
       0       0       0       0       0       0       0       0       0       0
       0       0       0       0       0       0       0       0       0       0
       0       0       0       0       0       0       0       0       0       0
       0       0       0       0       0       0       0       0       0       0
       0       0       0       0       0       0       0       0       0       0
       0       0       0       0       0       0       0       0       0       0
       0       0       0       0       0       0       0       0       0       0
       0       0       0       0       0       0       0       0       0       0
       0       0       0       0       0       0       0       0       0       0
       0       0       0       0       0       0       0       0       0       0
       0       0       0       0       0       0       0       0       0       0
       0       0       0       0       0       0       0       0       0       0
       0       0       0       0       0       0       0       0       0       0
       0       0       0       0       0       0       0       0       0       0
       0       0       0       0       0       0       0       0       0       0
       0       0       0       0       0       0       0       0       0       0
       0       0       0       0       0       0       0       0       0       0
       0       0       0       0       0       0       0       0       0       0
       0       0       0       0       0       0       0       0       0       0
       0       0       0       0       0       0       0       0       0       0
       0       0       0       0       0       0       0       0       0       0
       0       0       0       0       0       0       0       0       0       0
       0       0       0       0       0       0       0       0       0       0
       0       0       0       0       0       0       0       0       0       0
       0       0       0       0       0       0       0       0       0       0
       0       0       0       0       0       0       0       0       0       0
       0       0       0       0       0       0       0       0       0       0
       0       0       0       0       0       0       0       0       0       0
       0       0       0       0       0       0       0       0       0       0
       0       0       0       0       0       0       0       0       0       0
       0       0       0       0       0       0       0       0       0       0
       0       0       0       0       0       0       0       0       0       0
       0       0       0       0       0       0       0       0       0       0
       0       0       0       0       0       0       0       0       0       0
       0       0       0       0       0       0       0       0       0       0
       0       0       0       0       0       0       0       0       0       0
       0       0       0       0       0       0       0       0       0       0
       0       0       0       0       0       0       0       0       0       0
       0       0       0       0       0       0       0       0       0       0
       0       0       0       0       0       0       0       0       0       0
       0       0       0       0       0       0       0       0       0       0
       0       0       0       0       0       0       0       0       0       0
       0       0       0       0       0       0       0       0       0       0
       0       0       0       0       0       0       0       0       0       0
       0       0       0       0       0       0       0       0       0       0
       0       0       0       0       0       0       0       0       0       0
       0       0       0       0       0       0       0       0       0       0
       0       0       0       0       0       0       0       0       0       0
       0       0       0       0       0       0       0       0       0       0
       0       0       0       0       0       0       0       0       0       0
       0       0       0       0       0       0       0       0       0       0
       0       0       0       0       0       0       0       0       0       0
       0       0       0       0       0       0       0       0       0       0
       0       0       0       0       0       0       0       0       0       0
       0       0       0       0       0       0       0       0       0       0
       0       0       0       0       0       0       0       0       0       0
       0       0       0       0       0       0       0       0       0       0
       0       0       0       0       0       0       0       0       0       0
       0       0       0       0       0       0       0       0       0       0
       0       0       0       0       0       0       0       0       0       0
       0       0       0       0       0       0       0       0       0       0
       0       0       0       0       0       0       0       0       0       0
       0       0       0       0       0       0       0       0       0       0
       0       0       0       0       0       0       0       0       0       0
       0       0       0       0       0       0       0       0       0       0
       0       0       0       0       0       0       0       0       0       0
       0       0       0       0       0       0       0       0       0       0
       0       0       0       0       0       0       0       0       0       0
       0       0       0       0       0       0       0       0       0       0
       0       0       0       0       0       0       0       0       0       0
       0       0       0       0       0       0       0       0       0       0
       0       0       0       0       0       0       0       0       0       0
       0       0       0       0       0       0       0       0       0       0
       0       0       0       0       0       0       0       0       0       0
       0       0       0       0       0       0       0       0       0       0
       0       0       0       0       0       0       0       0       0       0
       0       0       0       0       0       0       0       0       0       0
       0       0       0       0       0       0       0       0       0       0
       0       0       0       0       0       0       0       0       0       0
       0       0       0       0       0       0       0       0       0       0
       0       0       0       0       0       0       0       0       0       0
       0       0       0       0       0       0       0       0       0       0
       0       0       0       0       0       0       0       0       0       0
       0       0       0       0       0       0       0       0       0       0
       0       0       0       0       0       0       0       0       0       0
       0       0       0       0       0       0       0       0       0       0
       0       0       0       0       0       0       0       0       0       0
       0       0       0       0       0       0       0       0       0       0
       0       0       0       0       0       0       0       0       0       0
       0       0       0       0       0       0       0       0       0       0
       0       0       0       0       0       0       0       0       0       0
       0       0       0       0       0       0       0       0       0       0
       0       0       0       0       0       0       0       0       0       0
       0       0       0       0       0       0       0       0       0       0
       0       0       0       0       0       0       0       0       0       0
       0       0       0       0       0       0       0       0       0       0
       0       0       0       0       0       0       0       0       0       0
       0       0       0       0       0       0       0       0       0       0
       0       0       0       0       0       0       0       0       0       0
       0       0       0       0       0       0       0       0       0       0
       0       0       0       0       0       0       0       0       0       0
       0       0       0       0       0       0       0       0       0       0
       0       0       0       0       0       0       0       0       0       0
       0       0       0       0       0       0       0       0       0       0
       0       0       0       0       0       0       0       0       0       0
       0       0       0       0       0       0       0       0       0       0
       0       0       0       0       0       0       0       0       0       0
       0       0       0       0       0       0       0       0       0       0
       0       0       0       0       0       0       0       0       0       0
       0       0       0       0       0       0       0       0       0       0
       0       0       0       0       0       0       0       0       0       0
       0       0       0       0       0       0       0       0       0       0
       0       0       0       0       0       0       0       0       0       0
       0       0       0       0       0       0       0       0       0       0
       0       0       0       0       0       0       0       0       0       0
       0       0       0       0       0       0       0       0       0       0
       0       0       0       0       0       0       0       0       0       0
       0       0       0       0       0       0       0       0       0       0
       0       0       0       0       0       0       0       0       0       0
       0       0       0       0       0       0       0       0       0       0
       0       0       0       0       0       0       0       0       0       0
       0       0       0       0       0       0       0       0       0       0
       0       0       0       0       0       0       0       0       0       0
       0       0       0       0       0       0       0       0       0       0
       0       0       0       0       0       0       0       0       0       0
       0       0       0       0       0       0       0       0       0       0
       0       0       0       0       0       0       0       0       0       0
       0       0       0       0       0       0       0       0       0       0
       0       0       0       0       0       0       0       0       0       0
       0       0       0       0       0       0       0       0       0       0
       0       0       0       0       0       0       0       0       0       0
       0       0       0       0       0       0       0       0       0       0
       0       0       0       0       0       0       0       0       0       0
       0       0       0       0       0       0       0       0       0       0
       0       0       0       0       0       0       0       0       0       0
       0       0       0       0       0       0       0       0       0       0
       0       0       0       0       0       0       0       0       0       0
       0       0       0       0       0       0       0       0       0       0
       0       0       0       0       0       0       0       0       0       0
       0       0       0       0       0       0       0       0       0       0
       0       0       0       0       0       0       0       0       0       0
       0       0       0       0       0       0       0       0       0       0
       0       0       0       0       0       0       0       0       0       0
       0       0       0       0       0       0       0       0       0       0
       0       0       0       0       0       0       0       0       0       0
       0       0       0       0       0       0       0       0       0       0
       0       0       0       0       0       0       0       0       0       0
       0       0       0       0       0       0       0       0       0       0
       0       0       0       0       0       0       0       0       0       0
       0       0       0       0       0       0       0       0       0       0
       0       0       0       0       0       0       0       0       0       0
       0       0       0       0       0       0       0       0       0       0
       0       0       0       0       0       0       0       0       0       0
       0       0       0       0       0       0       0       0       0       0
       0       0       0       0       0       0       0       0       0       0
       0       0       0       0       0       0       0       0       0       0
       0       0       0       0       0       0       0       0       0       0
       0       0       0       0       0       0       0       0       0       0
       0       0       0       0       0       0       0       0       0       0
       0       0       0       0       0       0       0       0       0       0
       0       0       0       0       0       0       0       0       0       0
       0       0       0       0       0       0       0       0       0       0
       0       0       0       0       0       0       0       0       0       0
       0       0       0       0       0       0       0       0       0       0
       0       0       0       0       0       0       0       0       0       0
       0       0       0       0       0       0       0       0       0       0
       0       0       0       0       0       0       0       0       0       0
       0       0       0       0       0       0       0       0       0       0
       0       0       0       0       0       0       0       0       0       0
       0       0       0       0       0       0       0       0       0       0
       0       0       0       0       0       0       0       0       0       0
       0       0       0       0       0       0       0       0       0       0
       0       0       0       0       0       0       0       0       0       0
       0       0       0       0       0       0       0       0       0       0
       0       0       0       0       0       0       0       0       0       0
       0       0       0       0       0       0       0       0       0       0
       0       0       0       0       0       0       0       0       0       0
       0       0       0       0       0       0       0       0       0       0
       0       0       0       0       0       0       0       0       0       0
       0       0       0       0       0       0       0       0       0       0
       0       0       0       0       0       0       0       0       0       0
       0       0       0       0       0       0       0       0       0       0
       0       0       0       0       0       0       0       0       0       0
       0       0       0       0       0       0       0       0       0       0
       0       0       0       0       0       0       0       0       0       0
       0       0       0       0       0       0       0       0       0       0
       0       0       0       0       0       0       0       0       0       0
       0       0       0       0       0       0       0       0       0       0
       0       0       0       0       0       0       0       0       0       0
       0       0       0       0       0       0       0       0       0       0
       0       0       0       0       0       0       0       0       0       0
       0       0       0       0       0       0       0       0       0       0
       0       0       0       0       0       0       0       0       0       0
       0       0       0       0       0       0       0       0       0       0
       0       0       0       0       0       0       0       0       0       0
       0       0       0       0       0       0       0       0       0       0
       0       0       0       0       0       0       0       0       0       0
       0       0       0       0       0       0       0       0       0       0
       0       0       0       0       0       0       0       0       0       0
       0       0       0       0       0       0       0       0       0       0
       0       0       0       0       0       0       0       0       0       0
       0       0       0       0       0       0       0       0       0       0
       0       0       0       0       0       0       0       0       0       0
       0       0       0       0       0       0       0       0       0       0
       0       0       0       0       0       0       0       0       0       0
       0       0       0       0       0       0       0       0       0       0
       0       0       0       0       0       0       0       0       0       0
       0       0       0       0       0       0       0       0       0       0
       0       0       0       0       0       0       0       0       0       0
       0       0       0       0       0       0       0       0       0       0
       0       0       0       0       0       0       0       0       0       0
       0       0       0       0       0       0       0       0       0       0
       0       0       0       0       0       0       0       0       0       0
       0       0       0       0       0       0       0       0       0       0
       0       0       0       0       0       0       0       0       0       0
       0       0       0       0       0       0       0       0       0       0
       0       0       0       0       0       0       0       0       0       0
       0       0       0       0       0       0       0       0       0       0
       0       0       0       0       0       0       0       0       0       0
       0       0       0       0       0       0       0       0       0       0
       0       0       0       0       0       0       0       0       0       0
       0       0       0       0       0       0       0       0       0       0
       0       0       0       0       0       0       0       0       0       0
       0       0       0       0       0       0       0       0       0       0
       0       0       0       0       0       0       0       0       0       0
       0       0       0       0       0       0       0       0       0       0
       0       0       0       0       0       0       0       0       0       0
       0       0       0       0       0       0       0       0       0       0
       0       0       0       0       0       0       0       0       0       0
       0       0       0       0       0       0       0       0       0       0
       0       0       0       0       0       0       0       0       0       0
       0       0       0       0       0       0       0       0       0       0
       0       0       0       0       0       0       0       0       0       0
       0       0       0       0       0       0       0       0       0       0
       0       0       0       0       0       0       0       0       0       0
       0       0       0       0       0       0       0       0       0       0
       0       0       0       0       0       0       0       0       0       0
       0       0       0       0       0       0       0       0       0       0
       0       0       0       0       0       0       0       0       0       0
       0       0       0       0       0       0       0       0       0       0
       0       0       0       0       0       0       0       0       0       0
       0       0       0       0       0       0       0       0       0       0
       0       0       0       0       0       0       0       0       0       0
       0       0       0       0       0       0       0       0       0       0
       0       0       0       0       0       0       0       0       0       0
       0       0       0       0       0       0       0       0       0       0
       0       0       0       0       0       0       0       0       0       0
       0       0       0       0       0       0       0       0       0       0
       0       0       0       0       0       0       0       0       0       0
       0       0       0       0       0       0       0       0       0       0
       0       0       0       0       0       0       0       0       0       0
       0       0       0       0       0       0       0       0       0       0
       0       0       0       0       0       0       0       0       0       0
       0       0       0       0       0       0       0       0       0       0
       0       0       0       0       0       0       0       0       0       0
       0       0       0       0       0       0       0       0       0       0
       0       0       0       0       0       0       0       0       0       0
       0       0       0       0       0       0       0       0       0       0
       0       0       0       0       0       0       0       0       0       0
       0       0       0       0       0       0       0       0       0       0
       0       0       0       0       0       0       0       0       0       0
       0       0       0       0       0       0       0       0       0       0
       0       0       0       0       0       0       0       0       0       0
       0       0       0       0       0       0       0       0       0       0
       0       0       0       0       0       0       0       0       0       0
       0       0       0       0       0       0       0       0       0       0
       0       0       0       0       0       0       0       0       0       0
       0       0       0       0       0       0       0       0       0       0
       0       0       0       0       0       0       0       0       0       0
       0       0       0       0       0       0       0       0       0       0
       0       0       0       0       0       0       0       0       0       0
       0       0       0       0       0       0       0       0       0       0
       0       0       0       0       0       0       0       0       0       0
       0       0       0       0       0       0       0       0       0       0
       0       0       0       0       0       0       0       0       0       0
       0       0       0       0       0       0       0       0       0       0
       0       0       0       0       0       0       0       0       0       0
       0       0       0       0       0       0       0       0       0       0
       0       0       0       0       0       0       0       0       0       0
       0       0       0       0       0       0       0       0       0       0
       0       0       0       0       0       0       0       0       0       0
       0       0       0       0       0       0       0       0       0       0
       0       0       0       0       0       0       0       0       0       0
       0       0       0       0       0       0       0       0       0       0
       0       0       0       0       0       0       0       0       0       0
       0       0       0       0       0       0       0       0       0       0
       0       0       0       0       0       0       0       0       0       0
       0       0       0       0       0       0       0       0       0       0
       0       0       0       0       0       0       0       0       0       0
       0       0       0       0       0       0       0       0       0       0
       0       0       0       0       0       0       0       0       0       0
       0       0       0       0       0       0       0       0       0       0
       0       0       0       0       0       0       0       0       0       0
       0       0       0       0       0       0       0       0       0       0
       0       0       0       0       0       0       0       0       0       0
       0       0       0       0       0       0       0       0       0       0
       0       0       0       0       0       0       0       0       0       0
       0       0       0       0       0       0       0       0       0       0
       0       0       0       0       0       0       0       0       0       0
       0       0       0       0       0       0       0       0       0       0
       0       0       0       0       0       0       0       0       0       0
       0       0       0       0       0       0       0       0       0       0
       0       0       0       0       0       0       0       0       0       0
       0       0       0       0       0       0       0       0       0       0
       0       0       0       0       0       0       0       0       0       0
       0       0       0       0       0       0       0       0       0       0
       0       0       0       0       0       0       0       0       0       0
       0       0       0       0       0       0       0       0       0       0
       0       0       0       0       0       0       0       0       0       0
       0       0       0       0       0       0       0       0       0       0
       0       0       0       0       0       0       0       0       0       0
       0       0       0       0       0       0       0       0       0       0
       0       0       0       0       0       0       0       0       0       0
       0       0       0       0       0       0       0       0       0       0
       0       0       0       0       0       0       0       0       0       0
       0       0       0       0       0       0       0       0       0       0
       0       0       0       0       0       0       0       0       0       0
       0       0       0       0       0       0       0       0       0       0
       0       0       0       0       0       0       0       0       0       0
       0       0       0       0       0       0       0       0       0       0
       0       0       0       0       0       0       0       0       0       0
       0       0       0       0       0       0       0       0       0       0
       0       0       0       0       0       0       0       0       0       0
       0       0       0       0       0       0       0       0       0       0
       0       0       0       0       0       0       0       0       0       0
       0       0       0       0       0       0       0       0       0       0
       0       0       0       0       0       0       0       0       0       0
       0       0       0       0       0       0       0       0       0       0
       0       0       0       0       0       0       0       0       0       0
       0       0       0       0       0       0       0       0       0       0
       0       0       0       0       0       0       0       0       0       0
       0       0       0       0       0       0       0       0       0       0
       0       0       0       0       0       0       0       0       0       0
       0       0       0       0       0       0       0       0       0       0
       0       0       0       0       0       0       0       0       0       0
       0       0       0       0       0       0       0       0       0       0
       0       0       0       0       0       0       0       0       0       0
       0       0       0       0       0       0       0       0       0       0
       0       0       0       0       0       0       0       0       0       0
       0       0       0       0       0       0       0       0       0       0
       0       0       0       0       0       0       0       0       0       0
       0       0       0       0       0       0       0       0       0       0
       0       0       0       0       0       0       0       0       0       0
       0       0       0       0       0       0       0       0       0       0
       0       0       0       0       0       0       0       0       0       0
       0       0       0       0       0       0       0       0       0       0
       0       0       0       0       0       0       0       0       0       0
       0       0       0       0       0       0       0       0       0       0
       0       0       0       0       0       0       0       0       0       0
       0       0       0       0       0       0       0       0       0       0
       0       0       0       0       0       0       0       0       0       0
       0       0       0       0       0       0       0       0       0       0
       0       0       0       0       0       0       0       0       0       0
       0       0       0       0       0       0       0       0       0       0
       0       0       0       0       0       0       0       0       0       0
       0       0       0       0       0       0       0       0       0       0
       0       0       0       0       0       0       0       0       0       0
       0       0
%FLAG IROTAT                                                                    
%FORMAT(10I8)                                                                   
       0       0       0       0       0       0       0       0       0       0
       0       0       0       0       0       0       0       0       0       0
       0       0       0       0       0       0       0       0       0       0
       0       0       0       0       0       0       0       0       0       0
       0       0       0       0       0       0       0       0       0       0
       0       0       0       0       0       0       0       0       0       0
       0       0       0       0       0       0       0       0       0       0
       0       0       0       0       0       0       0       0       0       0
       0       0       0       0       0       0       0       0       0       0
       0       0       0       0       0       0       0       0       0       0
       0       0       0       0       0       0       0       0       0       0
       0       0       0       0       0       0       0       0       0       0
       0       0       0       0       0       0       0       0       0       0
       0       0       0       0       0       0       0       0       0       0
       0       0       0       0       0       0       0       0       0       0
       0       0       0       0       0       0       0       0       0       0
       0       0       0       0       0       0       0       0       0       0
       0       0       0       0       0       0       0       0       0       0
       0       0       0       0       0       0       0       0       0       0
       0       0       0       0       0       0       0       0       0       0
       0       0       0       0       0       0       0       0       0       0
       0       0       0       0       0       0       0       0       0       0
       0       0       0       0       0       0       0       0       0       0
       0       0       0       0       0       0       0       0       0       0
       0       0       0       0       0       0       0       0       0       0
       0       0       0       0       0       0       0       0       0       0
       0       0       0       0       0       0       0       0       0       0
       0       0       0       0       0       0       0       0       0       0
       0       0       0       0       0       0       0       0       0       0
       0       0       0       0       0       0       0       0       0       0
       0       0       0       0       0       0       0       0       0       0
       0       0       0       0       0       0       0       0       0       0
       0       0       0       0       0       0       0       0       0       0
       0       0       0       0       0       0       0       0       0       0
       0       0       0       0       0       0       0       0       0       0
       0       0       0       0       0       0       0       0       0       0
       0       0       0       0       0       0       0       0       0       0
       0       0       0       0       0       0       0       0       0       0
       0       0       0       0       0       0       0       0       0       0
       0       0       0       0       0       0       0       0       0       0
       0       0       0       0       0       0       0       0       0       0
       0       0       0       0       0       0       0       0       0       0
       0       0       0       0       0       0       0       0       0       0
       0       0       0       0       0       0       0       0       0       0
       0       0       0       0       0       0       0       0       0       0
       0       0       0       0       0       0       0       0       0       0
       0       0       0       0       0       0       0       0       0       0
       0       0       0       0       0       0       0       0       0       0
       0       0       0       0       0       0       0       0       0       0
       0       0       0       0       0       0       0       0       0       0
       0       0       0       0       0       0       0       0       0       0
       0       0       0       0       0       0       0       0       0       0
       0       0       0       0       0       0       0       0       0       0
       0       0       0       0       0       0       0       0       0       0
       0       0       0       0       0       0       0       0       0       0
       0       0       0       0       0       0       0       0       0       0
       0       0       0       0       0       0       0       0       0       0
       0       0       0       0       0       0       0       0       0       0
       0       0       0       0       0       0       0       0       0       0
       0       0       0       0       0       0       0       0       0       0
       0       0       0       0       0       0       0       0       0       0
       0       0       0       0       0       0       0       0       0       0
       0       0       0       0       0       0       0       0       0       0
       0       0       0       0       0       0       0       0       0       0
       0       0       0       0       0       0       0       0       0       0
       0       0       0       0       0       0       0       0       0       0
       0       0       0       0       0       0       0       0       0       0
       0       0       0       0       0       0       0       0       0       0
       0       0       0       0       0       0       0       0       0       0
       0       0       0       0       0       0       0       0       0       0
       0       0       0       0       0       0       0       0       0       0
       0       0       0       0       0       0       0       0       0       0
       0       0       0       0       0       0       0       0       0       0
       0       0       0       0       0       0       0       0       0       0
       0       0       0       0       0       0       0       0       0       0
       0       0       0       0       0       0       0       0       0       0
       0       0       0       0       0       0       0       0       0       0
       0       0       0       0       0       0       0       0       0       0
       0       0       0       0       0       0       0       0       0       0
       0       0       0       0       0       0       0       0       0       0
       0       0       0       0       0       0       0       0       0       0
       0       0       0       0       0       0       0       0       0       0
       0       0       0       0       0       0       0       0       0       0
       0       0       0       0       0       0       0       0       0       0
       0       0       0       0       0       0       0       0       0       0
       0       0       0       0       0       0       0       0       0       0
       0       0       0       0       0       0       0       0       0       0
       0       0       0       0       0       0       0       0       0       0
       0       0       0       0       0       0       0       0       0       0
       0       0       0       0       0       0       0       0       0       0
       0       0       0       0       0       0       0       0       0       0
       0       0       0       0       0       0       0       0       0       0
       0       0       0       0       0       0       0       0       0       0
       0       0       0       0       0       0       0       0       0       0
       0       0       0       0       0       0       0       0       0       0
       0       0       0       0       0       0       0       0       0       0
       0       0       0       0       0       0       0       0       0       0
       0       0       0       0       0       0       0       0       0       0
       0       0       0       0       0       0       0       0       0       0
       0       0       0       0       0       0       0       0       0       0
       0       0       0       0       0       0       0       0       0       0
       0       0       0       0       0       0       0       0       0       0
       0       0       0       0       0       0       0       0       0       0
       0       0       0       0       0       0       0       0       0       0
       0       0       0       0       0       0       0       0       0       0
       0       0       0       0       0       0       0       0       0       0
       0       0       0       0       0       0       0       0       0       0
       0       0       0       0       0       0       0       0       0       0
       0       0       0       0       0       0       0       0       0       0
       0       0       0       0       0       0       0       0       0       0
       0       0       0       0       0       0       0       0       0       0
       0       0       0       0       0       0       0       0       0       0
       0       0       0       0       0       0       0       0       0       0
       0       0       0       0       0       0       0       0       0       0
       0       0       0       0       0       0       0       0       0       0
       0       0       0       0       0       0       0       0       0       0
       0       0       0       0       0       0       0       0       0       0
       0       0       0       0       0       0       0       0       0       0
       0       0       0       0       0       0       0       0       0       0
       0       0       0       0       0       0       0       0       0       0
       0       0       0       0       0       0       0       0       0       0
       0       0       0       0       0       0       0       0       0       0
       0       0       0       0       0       0       0       0       0       0
       0       0       0       0       0       0       0       0       0       0
       0       0       0       0       0       0       0       0       0       0
       0       0       0       0       0       0       0       0       0       0
       0       0       0       0       0       0       0       0       0       0
       0       0       0       0       0       0       0       0       0       0
       0       0       0       0       0       0       0       0       0       0
       0       0       0       0       0       0       0       0       0       0
       0       0       0       0       0       0       0       0       0       0
       0       0       0       0       0       0       0       0       0       0
       0       0       0       0       0       0       0       0       0       0
       0       0       0       0       0       0       0       0       0       0
       0       0       0       0       0       0       0       0       0       0
       0       0       0       0       0       0       0       0       0       0
       0       0       0       0       0       0       0       0       0       0
       0       0       0       0       0       0       0       0       0       0
       0       0       0       0       0       0       0       0       0       0
       0       0       0       0       0       0       0       0       0       0
       0       0       0       0       0       0       0       0       0       0
       0       0       0       0       0       0       0       0       0       0
       0       0       0       0       0       0       0       0       0       0
       0       0       0       0       0       0       0       0       0       0
       0       0       0       0       0       0       0       0       0       0
       0       0       0       0       0       0       0       0       0       0
       0       0       0       0       0       0       0       0       0       0
       0       0       0       0       0       0       0       0       0       0
       0       0       0       0       0       0       0       0       0       0
       0       0       0       0       0       0       0       0       0       0
       0       0       0       0       0       0       0       0       0       0
       0       0       0       0       0       0       0       0       0       0
       0       0       0       0       0       0       0       0       0       0
       0       0       0       0       0       0       0       0       0       0
       0       0       0       0       0       0       0       0       0       0
       0       0       0       0       0       0       0       0       0       0
       0       0       0       0       0       0       0       0       0       0
       0       0       0       0       0       0       0       0       0       0
       0       0       0       0       0       0       0       0       0       0
       0       0       0       0       0       0       0       0       0       0
       0       0       0       0       0       0       0       0       0       0
       0       0       0       0       0       0       0       0       0       0
       0       0       0       0       0       0       0       0       0       0
       0       0       0       0       0       0       0       0       0       0
       0       0       0       0       0       0       0       0       0       0
       0       0       0       0       0       0       0       0       0       0
       0       0       0       0       0       0       0       0       0       0
       0       0       0       0       0       0       0       0       0       0
       0       0       0       0       0       0       0       0       0       0
       0       0       0       0       0       0       0       0       0       0
       0       0       0       0       0       0       0       0       0       0
       0       0       0       0       0       0       0       0       0       0
       0       0       0       0       0       0       0       0       0       0
       0       0       0       0       0       0       0       0       0       0
       0       0       0       0       0       0       0       0       0       0
       0       0       0       0       0       0       0       0       0       0
       0       0       0       0       0       0       0       0       0       0
       0       0       0       0       0       0       0       0       0       0
       0       0       0       0       0       0       0       0       0       0
       0       0       0       0       0       0       0       0       0       0
       0       0       0       0       0       0       0       0       0       0
       0       0       0       0       0       0       0       0       0       0
       0       0       0       0       0       0       0       0       0       0
       0       0       0       0       0       0       0       0       0       0
       0       0       0       0       0       0       0       0       0       0
       0       0       0       0       0       0       0       0       0       0
       0       0       0       0       0       0       0       0       0       0
       0       0       0       0       0       0       0       0       0       0
       0       0       0       0       0       0       0       0       0       0
       0       0       0       0       0       0       0       0       0       0
       0       0       0       0       0       0       0       0       0       0
       0       0       0       0       0       0       0       0       0       0
       0       0       0       0       0       0       0       0       0       0
       0       0       0       0       0       0       0       0       0       0
       0       0       0       0       0       0       0       0       0       0
       0       0       0       0       0       0       0       0       0       0
       0       0       0       0       0       0       0       0       0       0
       0       0       0       0       0       0       0       0       0       0
       0       0       0       0       0       0       0       0       0       0
       0       0       0       0       0       0       0       0       0       0
       0       0       0       0       0       0       0       0       0       0
       0       0       0       0       0       0       0       0       0       0
       0       0       0       0       0       0       0       0       0       0
       0       0       0       0       0       0       0       0       0       0
       0       0       0       0       0       0       0       0       0       0
       0       0       0       0       0       0       0       0       0       0
       0       0       0       0       0       0       0       0       0       0
       0       0       0       0       0       0       0       0       0       0
       0       0       0       0       0       0       0       0       0       0
       0       0       0       0       0       0       0       0       0       0
       0       0       0       0       0       0       0       0       0       0
       0       0       0       0       0       0       0       0       0       0
       0       0       0       0       0       0       0       0       0       0
       0       0       0       0       0       0       0       0       0       0
       0       0       0       0       0       0       0       0       0       0
       0       0       0       0       0       0       0       0       0       0
       0       0       0       0       0       0       0       0       0       0
       0       0       0       0       0       0       0       0       0       0
       0       0       0       0       0       0       0       0       0       0
       0       0       0       0       0       0       0       0       0       0
       0       0       0       0       0       0       0       0       0       0
       0       0       0       0       0       0       0       0       0       0
       0       0       0       0       0       0       0       0       0       0
       0       0       0       0       0       0       0       0       0       0
       0       0       0       0       0       0       0       0       0       0
       0       0       0       0       0       0       0       0       0       0
       0       0       0       0       0       0       0       0       0       0
       0       0       0       0       0       0       0       0       0       0
       0       0       0       0       0       0       0       0       0       0
       0       0       0       0       0       0       0       0       0       0
       0       0       0       0       0       0       0       0       0       0
       0       0       0       0       0       0       0       0       0       0
       0       0       0       0       0       0       0       0       0       0
       0       0       0       0       0       0       0       0       0       0
       0       0       0       0       0       0       0       0       0       0
       0       0       0       0       0       0       0       0       0       0
       0       0       0       0       0       0       0       0       0       0
       0       0       0       0       0       0       0       0       0       0
       0       0       0       0       0       0       0       0       0       0
       0       0       0       0       0       0       0       0       0       0
       0       0       0       0       0       0       0       0       0       0
       0       0       0       0       0       0       0       0       0       0
       0       0       0       0       0       0       0       0       0       0
       0       0       0       0       0       0       0       0       0       0
       0       0       0       0       0       0       0       0       0       0
       0       0       0       0       0       0       0       0       0       0
       0       0       0       0       0       0       0       0       0       0
       0       0       0       0       0       0       0       0       0       0
       0       0       0       0       0       0       0       0       0       0
       0       0       0       0       0       0       0       0       0       0
       0       0       0       0       0       0       0       0       0       0
       0       0       0       0       0       0       0       0       0       0
       0       0       0       0       0       0       0       0       0       0
       0       0       0       0       0       0       0       0       0       0
       0       0       0       0       0       0       0       0       0       0
       0       0       0       0       0       0       0       0       0       0
       0       0       0       0       0       0       0       0       0       0
       0       0       0       0       0       0       0       0       0       0
       0       0       0       0       0       0       0       0       0       0
       0       0       0       0       0       0       0       0       0       0
       0       0       0       0       0       0       0       0       0       0
       0       0       0       0       0       0       0       0       0       0
       0       0       0       0       0       0       0       0       0       0
       0       0       0       0       0       0       0       0       0       0
       0       0       0       0       0       0       0       0       0       0
       0       0       0       0       0       0       0       0       0       0
       0       0       0       0       0       0       0       0       0       0
       0       0       0       0       0       0       0       0       0       0
       0       0       0       0       0       0       0       0       0       0
       0       0       0       0       0       0       0       0       0       0
       0       0       0       0       0       0       0       0       0       0
       0       0       0       0       0       0       0       0       0       0
       0       0       0       0       0       0       0       0       0       0
       0       0       0       0       0       0       0       0       0       0
       0       0       0       0       0       0       0       0       0       0
       0       0       0       0       0       0       0       0       0       0
       0       0       0       0       0       0       0       0       0       0
       0       0       0       0       0       0       0       0       0       0
       0       0       0       0       0       0       0       0       0       0
       0       0       0       0       0       0       0       0       0       0
       0       0       0       0       0       0       0       0       0       0
       0       0       0       0       0       0       0       0       0       0
       0       0       0       0       0       0       0       0       0       0
       0       0       0       0       0       0       0       0       0       0
       0       0       0       0       0       0       0       0       0       0
       0       0       0       0       0       0       0       0       0       0
       0       0       0       0       0       0       0       0       0       0
       0       0       0       0       0       0       0       0       0       0
       0       0       0       0       0       0       0       0       0       0
       0       0       0       0       0       0       0       0       0       0
       0       0       0       0       0       0       0       0       0       0
       0       0       0       0       0       0       0       0       0       0
       0       0       0       0       0       0       0       0       0       0
       0       0       0       0       0       0       0       0       0       0
       0       0       0       0       0       0       0       0       0       0
       0       0       0       0       0       0       0       0       0       0
       0       0       0       0       0       0       0       0       0       0
       0       0       0       0       0       0       0       0       0       0
       0       0       0       0       0       0       0       0       0       0
       0       0       0       0       0       0       0       0       0       0
       0       0       0       0       0       0       0       0       0       0
       0       0       0       0       0       0       0       0       0       0
       0       0       0       0       0       0       0       0       0       0
       0       0       0       0       0       0       0       0       0       0
       0       0       0       0       0       0       0       0       0       0
       0       0       0       0       0       0       0       0       0       0
       0       0       0       0       0       0       0       0       0       0
       0       0       0       0       0       0       0       0       0       0
       0       0       0       0       0       0       0       0       0       0
       0       0       0       0       0       0       0       0       0       0
       0       0       0       0       0       0       0       0       0       0
       0       0       0       0       0       0       0       0       0       0
       0       0       0       0       0       0       0       0       0       0
       0       0       0       0       0       0       0       0       0       0
       0       0       0       0       0       0       0       0       0       0
       0       0       0       0       0       0       0       0       0       0
       0       0       0       0       0       0       0       0       0       0
       0       0       0       0       0       0       0       0       0       0
       0       0       0       0       0       0       0       0       0       0
       0       0       0       0       0       0       0       0       0       0
       0       0       0       0       0       0       0       0       0       0
       0       0       0       0       0       0       0       0       0       0
       0       0       0       0       0       0       0       0       0       0
       0       0       0       0       0       0       0       0       0       0
       0       0       0       0       0       0       0       0       0       0
       0       0       0       0       0       0       0       0       0       0
       0       0       0       0       0       0       0       0       0       0
       0       0       0       0       0       0       0       0       0       0
       0       0       0       0       0       0       0       0       0       0
       0       0       0       0       0       0       0       0       0       0
       0       0       0       0       0       0       0       0       0       0
       0       0       0       0       0       0       0       0       0       0
       0       0       0       0       0       0       0       0       0       0
       0       0       0       0       0       0       0       0       0       0
       0       0       0       0       0       0       0       0       0       0
       0       0       0       0       0       0       0       0       0       0
       0       0       0       0       0       0       0       0       0       0
       0       0       0       0       0       0       0       0       0       0
       0       0       0       0       0       0       0       0       0       0
       0       0       0       0       0       0       0       0       0       0
       0       0       0       0       0       0       0       0       0       0
       0       0       0       0       0       0       0       0       0       0
       0       0       0       0       0       0       0       0       0       0
       0       0       0       0       0       0       0       0       0       0
       0       0       0       0       0       0       0       0       0       0
       0       0       0       0       0       0       0       0       0       0
       0       0       0       0       0       0       0       0       0       0
       0       0       0       0       0       0       0       0       0       0
       0       0       0       0       0       0       0       0       0       0
       0       0       0       0       0       0       0       0       0       0
       0       0       0       0       0       0       0       0       0       0
       0       0       0       0       0       0       0       0       0       0
       0       0       0       0       0       0       0       0       0       0
       0       0       0       0       0       0       0       0       0       0
       0       0       0       0       0       0       0       0       0       0
       0       0       0       0       0       0       0       0       0       0
       0       0       0       0       0       0       0       0       0       0
       0       0       0       0       0       0       0       0       0       0
       0       0       0       0       0       0       0       0       0       0
       0       0       0       0       0       0       0       0       0       0
       0       0       0       0       0       0       0       0       0       0
       0       0       0       0       0       0       0       0       0       0
       0       0       0       0       0       0       0       0       0       0
       0       0       0       0       0       0       0       0       0       0
       0       0       0       0       0       0       0       0       0       0
       0       0       0       0       0       0       0       0       0       0
       0       0       0       0       0       0       0       0       0       0
       0       0       0       0       0       0       0       0       0       0
       0       0       0       0       0       0       0       0       0       0
       0       0       0       0       0       0       0       0       0       0
       0       0       0       0       0       0       0       0       0       0
       0       0       0       0       0       0       0       0       0       0
       0       0       0       0       0       0       0       0       0       0
       0       0       0       0       0       0       0       0       0       0
       0       0       0       0       0       0       0       0       0       0
       0       0       0       0       0       0       0       0       0       0
       0       0       0       0       0       0       0       0       0       0
       0       0       0       0       0       0       0       0       0       0
       0       0       0       0       0       0       0       0       0       0
       0       0       0       0       0       0       0       0       0       0
       0       0       0       0       0       0       0       0       0       0
       0       0       0       0       0       0       0       0       0       0
       0       0       0       0       0       0       0       0       0       0
       0       0       0       0       0       0       0       0       0       0
       0       0       0       0       0       0       0       0       0       0
       0       0       0       0       0       0       0       0       0       0
       0       0       0       0       0       0       0       0       0       0
       0       0       0       0       0       0       0       0       0       0
       0       0       0       0       0       0       0       0       0       0
       0       0       0       0       0       0       0       0       0       0
       0       0       0       0       0       0       0       0       0       0
       0       0       0       0       0       0       0       0       0       0
       0       0       0       0       0       0       0       0       0       0
       0       0       0       0       0       0       0       0       0       0
       0       0       0       0       0       0       0       0       0       0
       0       0       0       0       0       0       0       0       0       0
       0       0       0       0       0       0       0       0       0       0
       0       0       0       0       0       0       0       0       0       0
       0       0       0       0       0       0       0       0       0       0
       0       0       0       0       0       0       0       0       0       0
       0       0       0       0       0       0       0       0       0       0
       0       0       0       0       0       0       0       0       0       0
       0       0       0       0       0       0       0       0       0       0
       0       0       0       0       0       0       0       0       0       0
       0       0       0       0       0       0       0       0       0       0
       0       0       0       0       0       0       0       0       0       0
       0       0       0       0       0       0       0       0       0       0
       0       0       0       0       0       0       0       0       0       0
       0       0       0       0       0       0       0       0       0       0
       0       0       0       0       0       0       0       0       0       0
       0       0       0       0       0       0       0       0       0       0
       0       0       0       0       0       0       0       0       0       0
       0       0       0       0       0       0       0       0       0       0
       0       0       0       0       0       0       0       0       0       0
       0       0       0       0       0       0       0       0       0       0
       0       0       0       0       0       0       0       0       0       0
       0       0       0       0       0       0       0       0       0       0
       0       0       0       0       0       0       0       0       0       0
       0       0       0       0       0       0       0       0       0       0
       0       0       0       0       0       0       0       0       0       0
       0       0       0       0       0       0       0       0       0       0
       0       0       0       0       0       0       0       0       0       0
       0       0       0       0       0       0       0       0       0       0
       0       0       0       0       0       0       0       0       0       0
       0       0       0       0       0       0       0       0       0       0
       0       0       0       0       0       0       0       0       0       0
       0       0       0       0       0       0       0       0       0       0
       0       0       0       0       0       0       0       0       0       0
       0       0       0       0       0       0       0       0       0       0
       0       0       0       0       0       0       0       0       0       0
       0       0       0       0       0       0       0       0       0       0
       0       0       0       0       0       0       0       0       0       0
       0       0       0       0       0       0       0       0       0       0
       0       0       0       0       0       0       0       0       0       0
       0       0       0       0       0       0       0       0       0       0
       0       0       0       0       0       0       0       0       0       0
       0       0       0       0       0       0       0       0       0       0
       0       0       0       0       0       0       0       0       0       0
       0       0       0       0       0       0       0       0       0       0
       0       0       0       0       0       0       0       0       0       0
       0       0       0       0       0       0       0       0       0       0
       0       0       0       0       0       0       0       0       0       0
       0       0       0       0       0       0       0       0       0       0
       0       0       0       0       0       0       0       0       0       0
       0       0       0       0       0       0       0       0       0       0
       0       0       0       0       0       0       0       0       0       0
       0       0       0       0       0       0       0       0       0       0
       0       0       0       0       0       0       0       0       0       0
       0       0       0       0       0       0       0       0       0       0
       0       0       0       0       0       0       0       0       0       0
       0       0       0       0       0       0       0       0       0       0
       0       0       0       0       0       0       0       0       0       0
       0       0       0       0       0       0       0       0       0       0
       0       0       0       0       0       0       0       0       0       0
       0       0       0       0       0       0       0       0       0       0
       0       0       0       0       0       0       0       0       0       0
       0       0       0       0       0       0       0       0       0       0
       0       0       0       0       0       0       0       0       0       0
       0       0       0       0       0       0       0       0       0       0
       0       0       0       0       0       0       0       0       0       0
       0       0       0       0       0       0       0       0       0       0
       0       0       0       0       0       0       0       0       0       0
       0       0       0       0       0       0       0       0       0       0
       0       0       0       0       0       0       0       0       0       0
       0       0       0       0       0       0       0       0       0       0
       0       0       0       0       0       0       0       0       0       0
       0       0       0       0       0       0       0       0       0       0
       0       0       0       0       0       0       0       0       0       0
       0       0       0       0       0       0       0       0       0       0
       0       0       0       0       0       0       0       0       0       0
       0       0       0       0       0       0       0       0       0       0
       0       0       0       0       0       0       0       0       0       0
       0       0       0       0       0       0       0       0       0       0
       0       0       0       0       0       0       0       0       0       0
       0       0       0       0       0       0       0       0       0       0
       0       0       0       0       0       0       0       0       0       0
       0       0       0       0       0       0       0       0       0       0
       0       0       0       0       0       0       0       0       0       0
       0       0       0       0       0       0       0       0       0       0
       0       0       0       0       0       0       0       0       0       0
       0       0       0       0       0       0       0       0       0       0
       0       0       0       0       0       0       0       0       0       0
       0       0       0       0       0       0       0       0       0       0
       0       0       0       0       0       0       0       0       0       0
       0       0       0       0       0       0       0       0       0       0
       0       0       0       0       0       0       0       0       0       0
       0       0       0       0       0       0       0       0       0       0
       0       0       0       0       0       0       0       0       0       0
       0       0       0       0       0       0       0       0       0       0
       0       0       0       0       0       0       0       0       0       0
       0       0       0       0       0       0       0       0       0       0
       0       0       0       0       0       0       0       0       0       0
       0       0       0       0       0       0       0       0       0       0
       0       0       0       0       0       0       0       0       0       0
       0       0       0       0       0       0       0       0       0       0
       0       0       0       0       0       0       0       0       0       0
       0       0       0       0       0       0       0       0       0       0
       0       0       0       0       0       0       0       0       0       0
       0       0       0       0       0       0       0       0       0       0
       0       0       0       0       0       0       0       0       0       0
       0       0       0       0       0       0       0       0       0       0
       0       0       0       0       0       0       0       0       0       0
       0       0       0       0       0       0       0       0       0       0
       0       0       0       0       0       0       0       0       0       0
       0       0       0       0       0       0       0       0       0       0
       0       0       0       0       0       0       0       0       0       0
       0       0       0       0       0       0       0       0       0       0
       0       0       0       0       0       0       0       0       0       0
       0       0       0       0       0       0       0       0       0       0
       0       0       0       0       0       0       0       0       0       0
       0       0       0       0       0       0       0       0       0       0
       0       0       0       0       0       0       0       0       0       0
       0       0       0       0       0       0       0       0       0       0
       0       0       0       0       0       0       0       0       0       0
       0       0       0       0       0       0       0       0       0       0
       0       0       0       0       0       0       0       0       0       0
       0       0       0       0       0       0       0       0       0       0
       0       0       0       0       0       0       0       0       0       0
       0       0       0       0       0       0       0       0       0       0
       0       0       0       0       0       0       0       0       0       0
       0       0       0       0       0       0       0       0       0       0
       0       0       0       0       0       0       0       0       0       0
       0       0       0       0       0       0       0       0       0       0
       0       0       0       0       0       0       0       0       0       0
       0       0       0       0       0       0       0       0       0       0
       0       0       0       0       0       0       0       0       0       0
       0       0       0       0       0       0       0       0       0       0
       0       0       0       0       0       0       0       0       0       0
       0       0       0       0       0       0       0       0       0       0
       0       0       0       0       0       0       0       0       0       0
       0       0       0       0       0       0       0       0       0       0
       0       0       0       0       0       0       0       0       0       0
       0       0       0       0       0       0       0       0       0       0
       0       0       0       0       0       0       0       0       0       0
       0       0       0       0       0       0       0       0       0       0
       0       0       0       0       0       0       0       0       0       0
       0       0       0       0       0       0       0       0       0       0
       0       0       0       0       0       0       0       0       0       0
       0       0       0       0       0       0       0       0       0       0
       0       0       0       0       0       0       0       0       0       0
       0       0       0       0       0       0       0       0       0       0
       0       0       0       0       0       0       0       0       0       0
       0       0       0       0       0       0       0       0       0       0
       0       0       0       0       0       0       0       0       0       0
       0       0       0       0       0       0       0       0       0       0
       0       0       0       0       0       0       0       0       0       0
       0       0       0       0       0       0       0       0       0       0
       0       0       0       0       0       0       0       0       0       0
       0       0       0       0       0       0       0       0       0       0
       0       0       0       0       0       0       0       0       0       0
       0       0       0       0       0       0       0       0       0       0
       0       0       0       0       0       0       0       0       0       0
       0       0       0       0       0       0       0       0       0       0
       0       0       0       0       0       0       0       0       0       0
       0       0       0       0       0       0       0       0       0       0
       0       0       0       0       0       0       0       0       0       0
       0       0       0       0       0       0       0       0       0       0
       0       0       0       0       0       0       0       0       0       0
       0       0       0       0       0       0       0       0       0       0
       0       0       0       0       0       0       0       0       0       0
       0       0       0       0       0       0       0       0       0       0
       0       0       0       0       0       0       0       0       0       0
       0       0       0       0       0       0       0       0       0       0
       0       0       0       0       0       0       0       0       0       0
       0       0       0       0       0       0       0       0       0       0
       0       0       0       0       0       0       0       0       0       0
       0       0       0       0       0       0       0       0       0       0
       0       0       0       0       0       0       0       0       0       0
       0       0       0       0       0       0       0       0       0       0
       0       0       0       0       0       0       0       0       0       0
       0       0       0       0       0       0       0       0       0       0
       0       0       0       0       0       0       0       0       0       0
       0       0       0       0       0       0       0       0       0       0
       0       0       0       0       0       0       0       0       0       0
       0       0       0       0       0       0       0       0       0       0
       0       0       0       0       0       0       0       0       0       0
       0       0       0       0       0       0       0       0       0       0
       0       0       0       0       0       0       0       0       0       0
       0       0       0       0       0       0       0       0       0       0
       0       0       0       0       0       0       0       0       0       0
       0       0       0       0       0       0       0       0       0       0
       0       0       0       0       0       0       0       0       0       0
       0       0       0       0       0       0       0       0       0       0
       0       0       0       0       0       0       0       0       0       0
       0       0       0       0       0       0       0       0       0       0
       0       0       0       0       0       0       0       0       0       0
       0       0       0       0       0       0       0       0       0       0
       0       0       0       0       0       0       0       0       0       0
       0       0       0       0       0       0       0       0       0       0
       0       0       0       0       0       0       0       0       0       0
       0       0       0       0       0       0       0       0       0       0
       0       0       0       0       0       0       0       0       0       0
       0       0       0       0       0       0       0       0       0       0
       0       0       0       0       0       0       0       0       0       0
       0       0       0       0       0       0       0       0       0       0
       0       0       0       0       0       0       0       0       0       0
       0       0       0       0       0       0       0       0       0       0
       0       0       0       0       0       0       0       0       0       0
       0       0       0       0       0       0       0       0       0       0
       0       0       0       0       0       0       0       0       0       0
       0       0       0       0       0       0       0       0       0       0
       0       0       0       0       0       0       0       0       0       0
       0       0       0       0       0       0       0       0       0       0
       0       0       0       0       0       0       0       0       0       0
       0       0       0       0       0       0       0       0       0       0
       0       0       0       0       0       0       0       0       0       0
       0       0       0       0       0       0       0       0       0       0
       0       0       0       0       0       0       0       0       0       0
       0       0       0       0       0       0       0       0       0       0
       0       0       0       0       0       0       0       0       0       0
       0       0       0       0       0       0       0       0       0       0
       0       0       0       0       0       0       0       0       0       0
       0       0       0       0       0       0       0       0       0       0
       0       0       0       0       0       0       0       0       0       0
       0       0       0       0       0       0       0       0       0       0
       0       0       0       0       0       0       0       0       0       0
       0       0       0       0       0       0       0       0       0       0
       0       0       0       0       0       0       0       0       0       0
       0       0       0       0       0       0       0       0       0       0
       0       0       0       0       0       0       0       0       0       0
       0       0       0       0       0       0       0       0       0       0
       0       0       0       0       0       0       0       0       0       0
       0       0       0       0       0       0       0       0       0       0
       0       0       0       0       0       0       0       0       0       0
       0       0       0       0       0       0       0       0       0       0
       0       0       0       0       0       0       0       0       0       0
       0       0       0       0       0       0       0       0       0       0
       0       0       0       0       0       0       0       0       0       0
       0       0       0       0       0       0       0       0       0       0
       0       0       0       0       0       0       0       0       0       0
       0       0       0       0       0       0       0       0       0       0
       0       0       0       0       0       0       0       0       0       0
       0       0       0       0       0       0       0       0       0       0
       0       0       0       0       0       0       0       0       0       0
       0       0       0       0       0       0       0       0       0       0
       0       0       0       0       0       0       0       0       0       0
       0       0       0       0       0       0       0       0       0       0
       0       0       0       0       0       0       0       0       0       0
       0       0       0       0       0       0       0       0       0       0
       0       0       0       0       0       0       0       0       0       0
       0       0       0       0       0       0       0       0       0       0
       0       0       0       0       0       0       0       0       0       0
       0       0       0       0       0       0       0       0       0       0
       0       0       0       0       0       0       0       0       0       0
       0       0       0       0       0       0       0       0       0       0
       0       0       0       0       0       0       0       0       0       0
       0       0       0       0       0       0       0       0       0       0
       0       0       0       0       0       0       0       0       0       0
       0       0       0       0       0       0       0       0       0       0
       0       0       0       0       0       0       0       0       0       0
       0       0       0       0       0       0       0       0       0       0
       0       0       0       0       0       0       0       0       0       0
       0       0       0       0       0       0       0       0       0       0
       0       0       0       0       0       0       0       0       0       0
       0       0       0       0       0       0       0       0       0       0
       0       0       0       0       0       0       0       0       0       0
       0       0       0       0       0       0       0       0       0       0
       0       0       0       0       0       0       0       0       0       0
       0       0       0       0       0       0       0       0       0       0
       0       0       0       0       0       0       0       0       0       0
       0       0       0       0       0       0       0       0       0       0
       0       0       0       0       0       0       0       0       0       0
       0       0       0       0       0       0       0       0       0       0
       0       0       0       0       0       0       0       0       0       0
       0       0       0       0       0       0       0       0       0       0
       0       0       0       0       0       0       0       0       0       0
       0       0       0       0       0       0       0       0       0       0
       0       0       0       0       0       0       0       0       0       0
       0       0       0       0       0       0       0       0       0       0
       0       0       0       0       0       0       0       0       0       0
       0       0       0       0       0       0       0       0       0       0
       0       0       0       0       0       0       0       0       0       0
       0       0       0       0       0       0       0       0       0       0
       0       0       0       0       0       0       0       0       0       0
       0       0       0       0       0       0       0       0       0       0
       0       0       0       0       0       0       0       0       0       0
       0       0       0       0       0       0       0       0       0       0
       0       0       0       0       0       0       0       0       0       0
       0       0       0       0       0       0       0       0       0       0
       0       0       0       0       0       0       0       0       0       0
       0       0       0       0       0       0       0       0       0       0
       0       0       0       0       0       0       0       0       0       0
       0       0       0       0       0       0       0       0       0       0
       0       0       0       0       0       0       0       0       0       0
       0       0       0       0       0       0       0       0       0       0
       0       0       0       0       0       0       0       0       0       0
       0       0       0       0       0       0       0       0       0       0
       0       0       0       0       0       0       0       0       0       0
       0       0       0       0       0       0       0       0       0       0
       0       0       0       0       0       0       0       0       0       0
       0       0       0       0       0       0       0       0       0       0
       0       0       0       0       0       0       0       0       0       0
       0       0       0       0       0       0       0       0       0       0
       0       0       0       0       0       0       0       0       0       0
       0       0       0       0       0       0       0       0       0       0
       0       0       0       0       0       0       0       0       0       0
       0       0       0       0       0       0       0       0       0       0
       0       0       0       0       0       0       0       0       0       0
       0       0       0       0       0       0       0       0       0       0
       0       0       0       0       0       0       0       0       0       0
       0       0       0       0       0       0       0       0       0       0
       0       0       0       0       0       0       0       0       0       0
       0       0       0       0       0       0       0       0       0       0
       0       0       0       0       0       0       0       0       0       0
       0       0       0       0       0       0       0       0       0       0
       0       0       0       0       0       0       0       0       0       0
       0       0       0       0       0       0       0       0       0       0
       0       0       0       0       0       0       0       0       0       0
       0       0       0       0       0       0       0       0       0       0
       0       0       0       0       0       0       0       0       0       0
       0       0       0       0       0       0       0       0       0       0
       0       0       0       0       0       0       0       0       0       0
       0       0       0       0       0       0       0       0       0       0
       0       0       0       0       0       0       0       0       0       0
       0       0       0       0       0       0       0       0       0       0
       0       0       0       0       0       0       0       0       0       0
       0       0       0       0       0       0       0       0       0       0
       0       0       0       0       0       0       0       0       0       0
       0       0       0       0       0       0       0       0       0       0
       0       0       0       0       0       0       0       0       0       0
       0       0       0       0       0       0       0       0       0       0
       0       0       0       0       0       0       0       0       0       0
       0       0       0       0       0       0       0       0       0       0
       0       0       0       0       0       0       0       0       0       0
       0       0       0       0       0       0       0       0       0       0
       0       0       0       0       0       0       0       0       0       0
       0       0       0       0       0       0       0       0       0       0
       0       0       0       0       0       0       0       0       0       0
       0       0       0       0       0       0       0       0       0       0
       0       0       0       0       0       0       0       0       0       0
       0       0       0       0       0       0       0       0       0       0
       0       0       0       0       0       0       0       0       0       0
       0       0       0       0       0       0       0       0       0       0
       0       0       0       0       0       0       0       0       0       0
       0       0       0       0       0       0       0       0       0       0
       0       0       0       0       0       0       0       0       0       0
       0       0       0       0       0       0       0       0       0       0
       0       0       0       0       0       0       0       0       0       0
       0       0       0       0       0       0       0       0       0       0
       0       0       0       0       0       0       0       0       0       0
       0       0       0       0       0       0       0       0       0       0
       0       0       0       0       0       0       0       0       0       0
       0       0       0       0       0       0       0       0       0       0
       0       0       0       0       0       0       0       0       0       0
       0       0       0       0       0       0       0       0       0       0
       0       0       0       0       0       0       0       0       0       0
       0       0       0       0       0       0       0       0       0       0
       0       0       0       0       0       0       0       0       0       0
       0       0       0       0       0       0       0       0       0       0
       0       0       0       0       0       0       0       0       0       0
       0       0       0       0       0       0       0       0       0       0
       0       0       0       0       0       0       0       0       0       0
       0       0       0       0       0       0       0       0       0       0
       0       0       0       0       0       0       0       0       0       0
       0       0       0       0       0       0       0       0       0       0
       0       0       0       0       0       0       0       0       0       0
       0       0       0       0       0       0       0       0       0       0
       0       0       0       0       0       0       0       0       0       0
       0       0       0       0       0       0       0       0       0       0
       0       0       0       0       0       0       0       0       0       0
       0       0       0       0       0       0       0       0       0       0
       0       0       0       0       0       0       0       0       0       0
       0       0       0       0       0       0       0       0       0       0
       0       0       0       0       0       0       0       0       0       0
       0       0       0       0       0       0       0       0       0       0
       0       0       0       0       0       0       0       0       0       0
       0       0       0       0       0       0       0       0       0       0
       0       0       0       0       0       0       0       0       0       0
       0       0       0       0       0       0       0       0       0       0
       0       0       0       0       0       0       0       0       0       0
       0       0       0       0       0       0       0       0       0       0
       0       0       0       0       0       0       0       0       0       0
       0       0       0       0       0       0       0       0       0       0
       0       0       0       0       0       0       0       0       0       0
       0       0       0       0       0       0       0       0       0       0
       0       0       0       0       0       0       0       0       0       0
       0       0       0       0       0       0       0       0       0       0
       0       0       0       0       0       0       0       0       0       0
       0       0       0       0       0       0       0       0       0       0
       0       0       0       0       0       0       0       0       0       0
       0       0       0       0       0       0       0       0       0       0
       0       0       0       0       0       0       0       0       0       0
       0       0       0       0       0       0       0       0       0       0
       0       0       0       0       0       0       0       0       0       0
       0       0       0       0       0       0       0       0       0       0
       0       0       0       0       0       0       0       0       0       0
       0       0       0       0       0       0       0       0       0       0
       0       0       0       0       0       0       0       0       0       0
       0       0       0       0       0       0       0       0       0       0
       0       0       0       0       0       0       0       0       0       0
       0       0       0       0       0       0       0       0       0       0
       0       0       0       0       0       0       0       0       0       0
       0       0       0       0       0       0       0       0       0       0
       0       0       0       0       0       0       0       0       0       0
       0       0       0       0       0       0       0       0       0       0
       0       0       0       0       0       0       0       0       0       0
       0       0       0       0       0       0       0       0       0       0
       0       0       0       0       0       0       0       0       0       0
       0       0       0       0       0       0       0       0       0       0
       0       0       0       0       0       0       0       0       0       0
       0       0       0       0       0       0       0       0       0       0
       0       0       0       0       0       0       0       0       0       0
       0       0       0       0       0       0       0       0       0       0
       0       0       0       0       0       0       0       0       0       0
       0       0       0       0       0       0       0       0       0       0
       0       0       0       0       0       0       0       0       0       0
       0       0       0       0       0       0       0       0       0       0
       0       0       0       0       0       0       0       0       0       0
       0       0       0       0       0       0       0       0       0       0
       0       0       0       0       0       0       0       0       0       0
       0       0       0       0       0       0       0       0       0       0
       0       0       0       0       0       0       0       0       0       0
       0       0       0       0       0       0       0       0       0       0
       0       0       0       0       0       0       0       0       0       0
       0       0       0       0       0       0       0       0       0       0
       0       0       0       0       0       0       0       0       0       0
       0       0       0       0       0       0       0       0       0       0
       0       0       0       0       0       0       0       0       0       0
       0       0       0       0       0       0       0       0       0       0
       0       0       0       0       0       0       0       0       0       0
       0       0       0       0       0       0       0       0       0       0
       0       0       0       0       0       0       0       0       0       0
       0       0       0       0       0       0       0       0       0       0
       0       0       0       0       0       0       0       0       0       0
       0       0       0       0       0       0       0       0       0       0
       0       0       0       0       0       0       0       0       0       0
       0       0       0       0       0       0       0       0       0       0
       0       0       0       0       0       0       0       0       0       0
       0       0       0       0       0       0       0       0       0       0
       0       0       0       0       0       0       0       0       0       0
       0       0       0       0       0       0       0       0       0       0
       0       0       0       0       0       0       0       0       0       0
       0       0       0       0       0       0       0       0       0       0
       0       0       0       0       0       0       0       0       0       0
       0       0       0       0       0       0       0       0       0       0
       0       0       0       0       0       0       0       0       0       0
       0       0       0       0       0       0       0       0       0       0
       0       0       0       0       0       0       0       0       0       0
       0       0       0       0       0       0       0       0       0       0
       0       0       0       0       0       0       0       0       0       0
       0       0       0       0       0       0       0       0       0       0
       0       0       0       0       0       0       0       0       0       0
       0       0       0       0       0       0       0       0       0       0
       0       0       0       0       0       0       0       0       0       0
       0       0       0       0       0       0       0       0       0       0
       0       0       0       0       0       0       0       0       0       0
       0       0       0       0       0       0       0       0       0       0
       0       0       0       0       0       0       0       0       0       0
       0       0       0       0       0       0       0       0       0       0
       0       0       0       0       0       0       0       0       0       0
       0       0       0       0       0       0       0       0       0       0
       0       0       0       0       0       0       0       0       0       0
       0       0       0       0       0       0       0       0       0       0
       0       0       0       0       0       0       0       0       0       0
       0       0       0       0       0       0       0       0       0       0
       0       0       0       0       0       0       0       0       0       0
       0       0       0       0       0       0       0       0       0       0
       0       0       0       0       0       0       0       0       0       0
       0       0       0       0       0       0       0       0       0       0
       0       0       0       0       0       0       0       0       0       0
       0       0       0       0       0       0       0       0       0       0
       0       0       0       0       0       0       0       0       0       0
       0       0       0       0       0       0       0       0       0       0
       0       0       0       0       0       0       0       0       0       0
       0       0       0       0       0       0       0       0       0       0
       0       0       0       0       0       0       0       0       0       0
       0       0       0       0       0       0       0       0       0       0
       0       0       0       0       0       0       0       0       0       0
       0       0       0       0       0       0       0       0       0       0
       0       0       0       0       0       0       0       0       0       0
       0       0       0       0       0       0       0       0       0       0
       0       0       0       0       0       0       0       0       0       0
       0       0       0       0       0       0       0       0       0       0
       0       0       0       0       0       0       0       0       0       0
       0       0       0       0       0       0       0       0       0       0
       0       0       0       0       0       0       0       0       0       0
       0       0       0       0       0       0       0       0       0       0
       0       0       0       0       0       0       0       0       0       0
       0       0       0       0       0       0       0       0       0       0
       0       0       0       0       0       0       0       0       0       0
       0       0       0       0       0       0       0       0       0       0
       0       0       0       0       0       0       0       0       0       0
       0       0       0       0       0       0       0       0       0       0
       0       0       0       0       0       0       0       0       0       0
       0       0       0       0       0       0       0       0       0       0
       0       0       0       0       0       0       0       0       0       0
       0       0       0       0       0       0       0       0       0       0
       0       0       0       0       0       0       0       0       0       0
       0       0       0       0       0       0       0       0       0       0
       0       0       0       0       0       0       0       0       0       0
       0       0       0       0       0       0       0       0       0       0
       0       0       0       0       0       0       0       0       0       0
       0       0       0       0       0       0       0       0       0       0
       0       0       0       0       0       0       0       0       0       0
       0       0       0       0       0       0       0       0       0       0
       0       0       0       0       0       0       0       0       0       0
       0       0       0       0       0       0       0       0       0       0
       0       0       0       0       0       0       0       0       0       0
       0       0       0       0       0       0       0       0       0       0
       0       0       0       0       0       0       0       0       0       0
       0       0       0       0       0       0       0       0       0       0
       0       0       0       0       0       0       0       0       0       0
       0       0       0       0       0       0       0       0       0       0
       0       0       0       0       0       0       0       0       0       0
       0       0       0       0       0       0       0       0       0       0
       0       0       0       0       0       0       0       0       0       0
       0       0       0       0       0       0       0       0       0       0
       0       0       0       0       0       0       0       0       0       0
       0       0       0       0       0       0       0       0       0       0
       0       0       0       0       0       0       0       0       0       0
       0       0       0       0       0       0       0       0       0       0
       0       0       0       0       0       0       0       0       0       0
       0       0       0       0       0       0       0       0       0       0
       0       0       0       0       0       0       0       0       0       0
       0       0       0       0       0       0       0       0       0       0
       0       0       0       0       0       0       0       0       0       0
       0       0       0       0       0       0       0       0       0       0
       0       0       0       0       0       0       0       0       0       0
       0       0       0       0       0       0       0       0       0       0
       0       0       0       0       0       0       0       0       0       0
       0       0       0       0       0       0       0       0       0       0
       0       0       0       0       0       0       0       0       0       0
       0       0       0       0       0       0       0       0       0       0
       0       0       0       0       0       0       0       0       0       0
       0       0       0       0       0       0       0       0       0       0
       0       0       0       0       0       0       0       0       0       0
       0       0       0       0       0       0       0       0       0       0
       0       0       0       0       0       0       0       0       0       0
       0       0       0       0       0       0       0       0       0       0
       0       0       0       0       0       0       0       0       0       0
       0       0       0       0       0       0       0       0       0       0
       0       0       0       0       0       0       0       0       0       0
       0       0       0       0       0       0       0       0       0       0
       0       0       0       0       0       0       0       0       0       0
       0       0       0       0       0       0       0       0       0       0
       0       0       0       0       0       0       0       0       0       0
       0       0       0       0       0       0       0       0       0       0
       0       0       0       0       0       0       0       0       0       0
       0       0       0       0       0       0       0       0       0       0
       0       0       0       0       0       0       0       0       0       0
       0       0       0       0       0       0       0       0       0       0
       0       0       0       0       0       0       0       0       0       0
       0       0       0       0       0       0       0       0       0       0
       0       0       0       0       0       0       0       0       0       0
       0       0       0       0       0       0       0       0       0       0
       0       0       0       0       0       0       0       0       0       0
       0       0       0       0       0       0       0       0       0       0
       0       0       0       0       0       0       0       0       0       0
       0       0       0       0       0       0       0       0       0       0
       0       0       0       0       0       0       0       0       0       0
       0       0       0       0       0       0       0       0       0       0
       0       0       0       0       0       0       0       0       0       0
       0       0       0       0       0       0       0       0       0       0
       0       0       0       0       0       0       0       0       0       0
       0       0       0       0       0       0       0       0       0       0
       0       0       0       0       0       0       0       0       0       0
       0       0       0       0       0       0       0       0       0       0
       0       0       0       0       0       0       0       0       0       0
       0       0       0       0       0       0       0       0       0       0
       0       0       0       0       0       0       0       0       0       0
       0       0       0       0       0       0       0       0       0       0
       0       0       0       0       0       0       0       0       0       0
       0       0       0       0       0       0       0       0       0       0
       0       0       0       0       0       0       0       0       0       0
       0       0       0       0       0       0       0       0       0       0
       0       0       0       0       0       0       0       0       0       0
       0       0       0       0       0       0       0       0       0       0
       0       0       0       0       0       0       0       0       0       0
       0       0       0       0       0       0       0       0       0       0
       0       0       0       0       0       0       0       0       0       0
       0       0       0       0       0       0       0       0       0       0
       0       0       0       0       0       0       0       0       0       0
       0       0       0       0       0       0       0       0       0       0
       0       0       0       0       0       0       0       0       0       0
       0       0       0       0       0       0       0       0       0       0
       0       0       0       0       0       0       0       0       0       0
       0       0       0       0       0       0       0       0       0       0
       0       0       0       0       0       0       0       0       0       0
       0       0       0       0       0       0       0       0       0       0
       0       0       0       0       0       0       0       0       0       0
       0       0       0       0       0       0       0       0       0       0
       0       0       0       0       0       0       0       0       0       0
       0       0       0       0       0       0       0       0       0       0
       0       0       0       0       0       0       0       0       0       0
       0       0       0       0       0       0       0       0       0       0
       0       0       0       0       0       0       0       0       0       0
       0       0       0       0       0       0       0       0       0       0
       0       0       0       0       0       0       0       0       0       0
       0       0       0       0       0       0       0       0       0       0
       0       0       0       0       0       0       0       0       0       0
       0       0       0       0       0       0       0       0       0       0
       0       0       0       0       0       0       0       0       0       0
       0       0       0       0       0       0       0       0       0       0
       0       0       0       0       0       0       0       0       0       0
       0       0       0       0       0       0       0       0       0       0
       0       0       0       0       0       0       0       0       0       0
       0       0       0       0       0       0       0       0       0       0
       0       0       0       0       0       0       0       0       0       0
       0       0       0       0       0       0       0       0       0       0
       0       0       0       0       0       0       0       0       0       0
       0       0       0       0       0       0       0       0       0       0
       0       0       0       0       0       0       0       0       0       0
       0       0       0       0       0       0       0       0       0       0
       0       0       0       0       0       0       0       0       0       0
       0       0       0       0       0       0       0       0       0       0
       0       0       0       0       0       0       0       0       0       0
       0       0       0       0       0       0       0       0       0       0
       0       0       0       0       0       0       0       0       0       0
       0       0       0       0       0       0       0       0       0       0
       0       0       0       0       0       0       0       0       0       0
       0       0       0       0       0       0       0       0       0       0
       0       0       0       0       0       0       0       0       0       0
       0       0       0       0       0       0       0       0       0       0
       0       0       0       0       0       0       0       0       0       0
       0       0       0       0       0       0       0       0       0       0
       0       0       0       0       0       0       0       0       0       0
       0       0       0       0       0       0       0       0       0       0
       0       0       0       0       0       0       0       0       0       0
       0       0       0       0       0       0       0       0       0       0
       0       0       0       0       0       0       0       0       0       0
       0       0       0       0       0       0       0       0       0       0
       0       0       0       0       0       0       0       0       0       0
       0       0       0       0       0       0       0       0       0       0
       0       0       0       0       0       0       0       0       0       0
       0       0       0       0       0       0       0       0       0       0
       0       0       0       0       0       0       0       0       0       0
       0       0       0       0       0       0       0       0       0       0
       0       0       0       0       0       0       0       0       0       0
       0       0       0       0       0       0       0       0       0       0
       0       0       0       0       0       0       0       0       0       0
       0       0       0       0       0       0       0       0       0       0
       0       0       0       0       0       0       0       0       0       0
       0       0       0       0       0       0       0       0       0       0
       0       0       0       0       0       0       0       0       0       0
       0       0       0       0       0       0       0       0       0       0
       0       0       0       0       0       0       0       0       0       0
       0       0       0       0       0       0       0       0       0       0
       0       0       0       0       0       0       0       0       0       0
       0       0       0       0       0       0       0       0       0       0
       0       0       0       0       0       0       0       0       0       0
       0       0       0       0       0       0       0       0       0       0
       0       0       0       0       0       0       0       0       0       0
       0       0       0       0       0       0       0       0       0       0
       0       0       0       0       0       0       0       0       0       0
       0       0       0       0       0       0       0       0       0       0
       0       0       0       0       0       0       0       0       0       0
       0       0       0       0       0       0       0       0       0       0
       0       0       0       0       0       0       0       0       0       0
       0       0       0       0       0       0       0       0       0       0
       0       0       0       0       0       0       0       0       0       0
       0       0       0       0       0       0       0       0       0       0
       0       0       0       0       0       0       0       0       0       0
       0       0       0       0       0       0       0       0       0       0
       0       0       0       0       0       0       0       0       0       0
       0       0       0       0       0       0       0       0       0       0
       0       0       0       0       0       0       0       0       0       0
       0       0       0       0       0       0       0       0       0       0
       0       0       0       0       0       0       0       0       0       0
       0       0       0       0       0       0       0       0       0       0
       0       0       0       0       0       0       0       0       0       0
       0       0       0       0       0       0       0       0       0       0
       0       0       0       0       0       0       0       0       0       0
       0       0       0       0       0       0       0       0       0       0
       0       0       0       0       0       0       0       0       0       0
       0       0       0       0       0       0       0       0       0       0
       0       0       0       0       0       0       0       0       0       0
       0       0       0       0       0       0       0       0       0       0
       0       0       0       0       0       0       0       0       0       0
       0       0       0       0       0       0       0       0       0       0
       0       0       0       0       0       0       0       0       0       0
       0       0       0       0       0       0       0       0       0       0
       0       0       0       0       0       0       0       0       0       0
       0       0       0       0       0       0       0       0       0       0
       0       0       0       0       0       0       0       0       0       0
       0       0       0       0       0       0       0       0       0       0
       0       0       0       0       0       0       0       0       0       0
       0       0       0       0       0       0       0       0       0       0
       0       0       0       0       0       0       0       0       0       0
       0       0       0       0       0       0       0       0       0       0
       0       0       0       0       0       0       0       0       0       0
       0       0       0       0       0       0       0       0       0       0
       0       0       0       0       0       0       0       0       0       0
       0       0       0       0       0       0       0       0       0       0
       0       0       0       0       0       0       0       0       0       0
       0       0       0       0       0       0       0       0       0       0
       0       0       0       0       0       0       0       0       0       0
       0       0       0       0       0       0       0       0       0       0
       0       0       0       0       0       0       0       0       0       0
       0       0       0       0       0       0       0       0       0       0
       0       0       0       0       0       0       0       0       0       0
       0       0       0       0       0       0       0       0       0       0
       0       0       0       0       0       0       0       0       0       0
       0       0       0       0       0       0       0       0       0       0
       0       0       0       0       0       0       0       0       0       0
       0       0       0       0       0       0       0       0       0       0
       0       0       0       0       0       0       0       0       0       0
       0       0       0       0       0       0       0       0       0       0
       0       0       0       0       0       0       0       0       0       0
       0       0       0       0       0       0       0       0       0       0
       0       0       0       0       0       0       0       0       0       0
       0       0       0       0       0       0       0       0       0       0
       0       0       0       0       0       0       0       0       0       0
       0       0       0       0       0       0       0       0       0       0
       0       0       0       0       0       0       0       0       0       0
       0       0       0       0       0       0       0       0       0       0
       0       0       0       0       0       0       0       0       0       0
       0       0       0       0       0       0       0       0       0       0
       0       0       0       0       0       0       0       0       0       0
       0       0       0       0       0       0       0       0       0       0
       0       0       0       0       0       0       0       0       0       0
       0       0       0       0       0       0       0       0       0       0
       0       0       0       0       0       0       0       0       0       0
       0       0       0       0       0       0       0       0       0       0
       0       0       0       0       0       0       0       0       0       0
       0       0       0       0       0       0       0       0       0       0
       0       0       0       0       0       0       0       0       0       0
       0       0       0       0       0       0       0       0       0       0
       0       0       0       0       0       0       0       0       0       0
       0       0       0       0       0       0       0       0       0       0
       0       0       0       0       0       0       0       0       0       0
       0       0       0       0       0       0       0       0       0       0
       0       0       0       0       0       0       0       0       0       0
       0       0       0       0       0       0       0       0       0       0
       0       0       0       0       0       0       0       0       0       0
       0       0       0       0       0       0       0       0       0       0
       0       0       0       0       0       0       0       0       0       0
       0       0       0       0       0       0       0       0       0       0
       0       0       0       0       0       0       0       0       0       0
       0       0       0       0       0       0       0       0       0       0
       0       0       0       0       0       0       0       0       0       0
       0       0       0       0       0       0       0       0       0       0
       0       0       0       0       0       0       0       0       0       0
       0       0       0       0       0       0       0       0       0       0
       0       0       0       0       0       0       0       0       0       0
       0       0       0       0       0       0       0       0       0       0
       0       0       0       0       0       0       0       0       0       0
       0       0       0       0       0       0       0       0       0       0
       0       0       0       0       0       0       0       0       0       0
       0       0       0       0       0       0       0       0       0       0
       0       0       0       0       0       0       0       0       0       0
       0       0       0       0       0       0       0       0       0       0
       0       0       0       0       0       0       0       0       0       0
       0       0       0       0       0       0       0       0       0       0
       0       0       0       0       0       0       0       0       0       0
       0       0       0       0       0       0       0       0       0       0
       0       0       0       0       0       0       0       0       0       0
       0       0       0       0       0       0       0       0       0       0
       0       0       0       0       0       0       0       0       0       0
       0       0       0       0       0       0       0       0       0       0
       0       0       0       0       0       0       0       0       0       0
       0       0       0       0       0       0       0       0       0       0
       0       0       0       0       0       0       0       0       0       0
       0       0       0       0       0       0       0       0       0       0
       0       0       0       0       0       0       0       0       0       0
       0       0       0       0       0       0       0       0       0       0
       0       0       0       0       0       0       0       0       0       0
       0       0       0       0       0       0       0       0       0       0
       0       0       0       0       0       0       0       0       0       0
       0       0       0       0       0       0       0       0       0       0
       0       0       0       0       0       0       0       0       0       0
       0       0       0       0       0       0       0       0       0       0
       0       0       0       0       0       0       0       0       0       0
       0       0       0       0       0       0       0       0       0       0
       0       0       0       0       0       0       0       0       0       0
       0       0       0       0       0       0       0       0       0       0
       0       0       0       0       0       0       0       0       0       0
       0       0       0       0       0       0       0       0       0       0
       0       0       0       0       0       0       0       0       0       0
       0       0       0       0       0       0       0       0       0       0
       0       0       0       0       0       0       0       0       0       0
       0       0       0       0       0       0       0       0       0       0
       0       0       0       0       0       0       0       0       0       0
       0       0       0       0       0       0       0       0       0       0
       0       0       0       0       0       0       0       0       0       0
       0       0       0       0       0       0       0       0       0       0
       0       0       0       0       0       0       0       0       0       0
       0       0       0       0       0       0       0       0       0       0
       0       0       0       0       0       0       0       0       0       0
       0       0       0       0       0       0       0       0       0       0
       0       0       0       0       0       0       0       0       0       0
       0       0       0       0       0       0       0       0       0       0
       0       0       0       0       0       0       0       0       0       0
       0       0       0       0       0       0       0       0       0       0
       0       0       0       0       0       0       0       0       0       0
       0       0       0       0       0       0       0       0       0       0
       0       0       0       0       0       0       0       0       0       0
       0       0       0       0       0       0       0       0       0       0
       0       0       0       0       0       0       0       0       0       0
       0       0       0       0       0       0       0       0       0       0
       0       0       0       0       0       0       0       0       0       0
       0       0       0       0       0       0       0       0       0       0
       0       0       0       0       0       0       0       0       0       0
       0       0       0       0       0       0       0       0       0       0
       0       0       0       0       0       0       0       0       0       0
       0       0       0       0       0       0       0       0       0       0
       0       0       0       0       0       0       0       0       0       0
       0       0       0       0       0       0       0       0       0       0
       0       0       0       0       0       0       0       0       0       0
       0       0       0       0       0       0       0       0       0       0
       0       0       0       0       0       0       0       0       0       0
       0       0       0       0       0       0       0       0       0       0
       0       0       0       0       0       0       0       0       0       0
       0       0       0       0       0       0       0       0       0       0
       0       0       0       0       0       0       0       0       0       0
       0       0       0       0       0       0       0       0       0       0
       0       0       0       0       0       0       0       0       0       0
       0       0       0       0       0       0       0       0       0       0
       0       0       0       0       0       0       0       0       0       0
       0       0       0       0       0       0       0       0       0       0
       0       0       0       0       0       0       0       0       0       0
       0       0       0       0       0       0       0       0       0       0
       0       0       0       0       0       0       0       0       0       0
       0       0       0       0       0       0       0       0       0       0
       0       0       0       0       0       0       0       0       0       0
       0       0       0       0       0       0       0       0       0       0
       0       0       0       0       0       0       0       0       0       0
       0       0       0       0       0       0       0       0       0       0
       0       0       0       0       0       0       0       0       0       0
       0       0       0       0       0       0       0       0       0       0
       0       0       0       0       0       0       0       0       0       0
       0       0       0       0       0       0       0       0       0       0
       0       0       0       0       0       0       0       0       0       0
       0       0       0       0       0       0       0       0       0       0
       0       0       0       0       0       0       0       0       0       0
       0       0       0       0       0       0       0       0       0       0
       0       0       0       0       0       0       0       0       0       0
       0       0       0       0       0       0       0       0       0       0
       0       0       0       0       0       0       0       0       0       0
       0       0       0       0       0       0       0       0       0       0
       0       0       0       0       0       0       0       0       0       0
       0       0       0       0       0       0       0       0       0       0
       0       0       0       0       0       0       0       0       0       0
       0       0       0       0       0       0       0       0       0       0
       0       0       0       0       0       0       0       0       0       0
       0       0       0       0       0       0       0       0       0       0
       0       0       0       0       0       0       0       0       0       0
       0       0       0       0       0       0       0       0       0       0
       0       0       0       0       0       0       0       0       0       0
       0       0       0       0       0       0       0       0       0       0
       0       0       0       0       0       0       0       0       0       0
       0       0       0       0       0       0       0       0       0       0
       0       0       0       0       0       0       0       0       0       0
       0       0       0       0       0       0       0       0       0       0
       0       0       0       0       0       0       0       0       0       0
       0       0       0       0       0       0       0       0       0       0
       0       0       0       0       0       0       0       0       0       0
       0       0       0       0       0       0       0       0       0       0
       0       0       0       0       0       0       0       0       0       0
       0       0       0       0       0       0       0       0       0       0
       0       0       0       0       0       0       0       0       0       0
       0       0       0       0       0       0       0       0       0       0
       0       0       0       0       0       0       0       0       0       0
       0       0       0       0       0       0       0       0       0       0
       0       0       0       0       0       0       0       0       0       0
       0       0       0       0       0       0       0       0       0       0
       0       0       0       0       0       0       0       0       0       0
       0       0       0       0       0       0       0       0       0       0
       0       0       0       0       0       0       0       0       0       0
       0       0       0       0       0       0       0       0       0       0
       0       0       0       0       0       0       0       0       0       0
       0       0       0       0       0       0       0       0       0       0
       0       0       0       0       0       0       0       0       0       0
       0       0       0       0       0       0       0       0       0       0
       0       0       0       0       0       0       0       0       0       0
       0       0       0       0       0       0       0       0       0       0
       0       0       0       0       0       0       0       0       0       0
       0       0       0       0       0       0       0       0       0       0
       0       0       0       0       0       0       0       0       0       0
       0       0       0       0       0       0       0       0       0       0
       0       0       0       0       0       0       0       0       0       0
       0       0       0       0       0       0       0       0       0       0
       0       0       0       0       0       0       0       0       0       0
       0       0       0       0       0       0       0       0       0       0
       0       0       0       0       0       0       0       0       0       0
       0       0       0       0       0       0       0       0       0       0
       0       0       0       0       0       0       0       0       0       0
       0       0       0       0       0       0       0       0       0       0
       0       0       0       0       0       0       0       0       0       0
       0       0       0       0       0       0       0       0       0       0
       0       0       0       0       0       0       0       0       0       0
       0       0       0       0       0       0       0       0       0       0
       0       0       0       0       0       0       0       0       0       0
       0       0       0       0       0       0       0       0       0       0
       0       0       0       0       0       0       0       0       0       0
       0       0       0       0       0       0       0       0       0       0
       0       0       0       0       0       0       0       0       0       0
       0       0       0       0       0       0       0       0       0       0
       0       0       0       0       0       0       0       0       0       0
       0       0       0       0       0       0       0       0       0       0
       0       0       0       0       0       0       0       0       0       0
       0       0       0       0       0       0       0       0       0       0
       0       0       0       0       0       0       0       0       0       0
       0       0       0       0       0       0       0       0       0       0
       0       0       0       0       0       0       0       0       0       0
       0       0       0       0       0       0       0       0       0       0
       0       0       0       0       0       0       0       0       0       0
       0       0       0       0       0       0       0       0       0       0
       0       0       0       0       0       0       0       0       0       0
       0       0       0       0       0       0       0       0       0       0
       0       0       0       0       0       0       0       0       0       0
       0       0       0       0       0       0       0       0       0       0
       0       0       0       0       0       0       0       0       0       0
       0       0       0       0       0       0       0       0       0       0
       0       0       0       0       0       0       0       0       0       0
       0       0       0       0       0       0       0       0       0       0
       0       0       0       0       0       0       0       0       0       0
       0       0       0       0       0       0       0       0       0       0
       0       0       0       0       0       0       0       0       0       0
       0       0       0       0       0       0       0       0       0       0
       0       0       0       0       0       0       0       0       0       0
       0       0       0       0       0       0       0       0       0       0
       0       0       0       0       0       0       0       0       0       0
       0       0       0       0       0       0       0       0       0       0
       0       0       0       0       0       0       0       0       0       0
       0       0       0       0       0       0       0       0       0       0
       0       0       0       0       0       0       0       0       0       0
       0       0       0       0       0       0       0       0       0       0
       0       0       0       0       0       0       0       0       0       0
       0       0       0       0       0       0       0       0       0       0
       0       0       0       0       0       0       0       0       0       0
       0       0       0       0       0       0       0       0       0       0
       0       0       0       0       0       0       0       0       0       0
       0       0       0       0       0       0       0       0       0       0
       0       0       0       0       0       0       0       0       0       0
       0       0       0       0       0       0       0       0       0       0
       0       0       0       0       0       0       0       0       0       0
       0       0       0       0       0       0       0       0       0       0
       0       0       0       0       0       0       0       0       0       0
       0       0       0       0       0       0       0       0       0       0
       0       0       0       0       0       0       0       0       0       0
       0       0       0       0       0       0       0       0       0       0
       0       0       0       0       0       0       0       0       0       0
       0       0       0       0       0       0       0       0       0       0
       0       0       0       0       0       0       0       0       0       0
       0       0       0       0       0       0       0       0       0       0
       0       0       0       0       0       0       0       0       0       0
       0       0       0       0       0       0       0       0       0       0
       0       0       0       0       0       0       0       0       0       0
       0       0       0       0       0       0       0       0       0       0
       0       0       0       0       0       0       0       0       0       0
       0       0       0       0       0       0       0       0       0       0
       0       0       0       0       0       0       0       0       0       0
       0       0       0       0       0       0       0       0       0       0
       0       0       0       0       0       0       0       0       0       0
       0       0       0       0       0       0       0       0       0       0
       0       0       0       0       0       0       0       0       0       0
       0       0       0       0       0       0       0       0       0       0
       0       0       0       0       0       0       0       0       0       0
       0       0       0       0       0       0       0       0       0       0
       0       0       0       0       0       0       0       0       0       0
       0       0       0       0       0       0       0       0       0       0
       0       0       0       0       0       0       0       0       0       0
       0       0       0       0       0       0       0       0       0       0
       0       0       0       0       0       0       0       0       0       0
       0       0       0       0       0       0       0       0       0       0
       0       0       0       0       0       0       0       0       0       0
       0       0       0       0       0       0       0       0       0       0
       0       0       0       0       0       0       0       0       0       0
       0       0       0       0       0       0       0       0       0       0
       0       0       0       0       0       0       0       0       0       0
       0       0       0       0       0       0       0       0       0       0
       0       0       0       0       0       0       0       0       0       0
       0       0       0       0       0       0       0       0       0       0
       0       0       0       0       0       0       0       0       0       0
       0       0       0       0       0       0       0       0       0       0
       0       0       0       0       0       0       0       0       0       0
       0       0       0       0       0       0       0       0       0       0
       0       0       0       0       0       0       0       0       0       0
       0       0       0       0       0       0       0       0       0       0
       0       0       0       0       0       0       0       0       0       0
       0       0       0       0       0       0       0       0       0       0
       0       0       0       0       0       0       0       0       0       0
       0       0       0       0       0       0       0       0       0       0
       0       0       0       0       0       0       0       0       0       0
       0       0       0       0       0       0       0       0       0       0
       0       0       0       0       0       0       0       0       0       0
       0       0       0       0       0       0       0       0       0       0
       0       0       0       0       0       0       0       0       0       0
       0       0       0       0       0       0       0       0       0       0
       0       0       0       0       0       0       0       0       0       0
       0       0       0       0       0       0       0       0       0       0
       0       0       0       0       0       0       0       0       0       0
       0       0       0       0       0       0       0       0       0       0
       0       0       0       0       0       0       0       0       0       0
       0       0       0       0       0       0       0       0       0       0
       0       0       0       0       0       0       0       0       0       0
       0       0       0       0       0       0       0       0       0       0
       0       0       0       0       0       0       0       0       0       0
       0       0       0       0       0       0       0       0       0       0
       0       0       0       0       0       0       0       0       0       0
       0       0       0       0       0       0       0       0       0       0
       0       0       0       0       0       0       0       0       0       0
       0       0       0       0       0       0       0       0       0       0
       0       0       0       0       0       0       0       0       0       0
       0       0       0       0       0       0       0       0       0       0
       0       0       0       0       0       0       0       0       0       0
       0       0       0       0       0       0       0       0       0       0
       0       0       0       0       0       0       0       0       0       0
       0       0       0       0       0       0       0       0       0       0
       0       0       0       0       0       0       0       0       0       0
       0       0       0       0       0       0       0       0       0       0
       0       0       0       0       0       0       0       0       0       0
       0       0       0       0       0       0       0       0       0       0
       0       0       0       0       0       0       0       0       0       0
       0       0       0       0       0       0       0       0       0       0
       0       0       0       0       0       0       0       0       0       0
       0       0       0       0       0       0       0       0       0       0
       0       0       0       0       0       0       0       0       0       0
       0       0       0       0       0       0       0       0       0       0
       0       0       0       0       0       0       0       0       0       0
       0       0       0       0       0       0       0       0       0       0
       0       0       0       0       0       0       0       0       0       0
       0       0       0       0       0       0       0       0       0       0
       0       0       0       0       0       0       0       0       0       0
       0       0       0       0       0       0       0       0       0       0
       0       0       0       0       0       0       0       0       0       0
       0       0       0       0       0       0       0       0       0       0
       0       0       0       0       0       0       0       0       0       0
       0       0       0       0       0       0       0       0       0       0
       0       0       0       0       0       0       0       0       0       0
       0       0       0       0       0       0       0       0       0       0
       0       0       0       0       0       0       0       0       0       0
       0       0       0       0       0       0       0       0       0       0
       0       0       0       0       0       0       0       0       0       0
       0       0       0       0       0       0       0       0       0       0
       0       0       0       0       0       0       0       0       0       0
       0       0       0       0       0       0       0       0       0       0
       0       0       0       0       0       0       0       0       0       0
       0       0       0       0       0       0       0       0       0       0
       0       0       0       0       0       0       0       0       0       0
       0       0       0       0       0       0       0       0       0       0
       0       0       0       0       0       0       0       0       0       0
       0       0       0       0       0       0       0       0       0       0
       0       0       0       0       0       0       0       0       0       0
       0       0       0       0       0       0       0       0       0       0
       0       0       0       0       0       0       0       0       0       0
       0       0       0       0       0       0       0       0       0       0
       0       0       0       0       0       0       0       0       0       0
       0       0       0       0       0       0       0       0       0       0
       0       0       0       0       0       0       0       0       0       0
       0       0       0       0       0       0       0       0       0       0
       0       0       0       0       0       0       0       0       0       0
       0       0       0       0       0       0       0       0       0       0
       0       0       0       0       0       0       0       0       0       0
       0       0       0       0       0       0       0       0       0       0
       0       0       0       0       0       0       0       0       0       0
       0       0       0       0       0       0       0       0       0       0
       0       0       0       0       0       0       0       0       0       0
       0       0       0       0       0       0       0       0       0       0
       0       0       0       0       0       0       0       0       0       0
       0       0       0       0       0       0       0       0       0       0
       0       0       0       0       0       0       0       0       0       0
       0       0       0       0       0       0       0       0       0       0
       0       0       0       0       0       0       0       0       0       0
       0       0       0       0       0       0       0       0       0       0
       0       0       0       0       0       0       0       0       0       0
       0       0       0       0       0       0       0       0       0       0
       0       0       0       0       0       0       0       0       0       0
       0       0       0       0       0       0       0       0       0       0
       0       0       0       0       0       0       0       0       0       0
       0       0       0       0       0       0       0       0       0       0
       0       0       0       0       0       0       0       0       0       0
       0       0       0       0       0       0       0       0       0       0
       0       0       0       0       0       0       0       0       0       0
       0       0       0       0       0       0       0       0       0       0
       0       0       0       0       0       0       0       0       0       0
       0       0       0       0       0       0       0       0       0       0
       0       0       0       0       0       0       0       0       0       0
       0       0       0       0       0       0       0       0       0       0
       0       0       0       0       0       0       0       0       0       0
       0       0       0       0       0       0       0       0       0       0
       0       0       0       0       0       0       0       0       0       0
       0       0       0       0       0       0       0       0       0       0
       0       0       0       0       0       0       0       0       0       0
       0       0       0       0       0       0       0       0       0       0
       0       0       0       0       0       0       0       0       0       0
       0       0       0       0       0       0       0       0       0       0
       0       0       0       0       0       0       0       0       0       0
       0       0       0       0       0       0       0       0       0       0
       0       0       0       0       0       0       0       0       0       0
       0       0       0       0       0       0       0       0       0       0
       0       0       0       0       0       0       0       0       0       0
       0       0       0       0       0       0       0       0       0       0
       0       0       0       0       0       0       0       0       0       0
       0       0       0       0       0       0       0       0       0       0
       0       0       0       0       0       0       0       0       0       0
       0       0       0       0       0       0       0       0       0       0
       0       0       0       0       0       0       0       0       0       0
       0       0       0       0       0       0       0       0       0       0
       0       0       0       0       0       0       0       0       0       0
       0       0       0       0       0       0       0       0       0       0
       0       0       0       0       0       0       0       0       0       0
       0       0       0       0       0       0       0       0       0       0
       0       0       0       0       0       0       0       0       0       0
       0       0       0       0       0       0       0       0       0       0
       0       0       0       0       0       0       0       0       0       0
       0       0       0       0       0       0       0       0       0       0
       0       0       0       0       0       0       0       0       0       0
       0       0       0       0       0       0       0       0       0       0
       0       0       0       0       0       0       0       0       0       0
       0       0       0       0       0       0       0       0       0       0
       0       0       0       0       0       0       0       0       0       0
       0       0       0       0       0       0       0       0       0       0
       0       0       0       0       0       0       0       0       0       0
       0       0       0       0       0       0       0       0       0       0
       0       0       0       0       0       0       0       0       0       0
       0       0       0       0       0       0       0       0       0       0
       0       0       0       0       0       0       0       0       0       0
       0       0       0       0       0       0       0       0       0       0
       0       0       0       0       0       0       0       0       0       0
       0       0       0       0       0       0       0       0       0       0
       0       0       0       0       0       0       0       0       0       0
       0       0       0       0       0       0       0       0       0       0
       0       0       0       0       0       0       0       0       0       0
       0       0       0       0       0       0       0       0       0       0
       0       0       0       0       0       0       0       0       0       0
       0       0       0       0       0       0       0       0       0       0
       0       0       0       0       0       0       0       0       0       0
       0       0       0       0       0       0       0       0       0       0
       0       0       0       0       0       0       0       0       0       0
       0       0       0       0       0       0       0       0       0       0
       0       0       0       0       0       0       0       0       0       0
       0       0       0       0       0       0       0       0       0       0
       0       0       0       0       0       0       0       0       0       0
       0       0       0       0       0       0       0       0       0       0
       0       0       0       0       0       0       0       0       0       0
       0       0       0       0       0       0       0       0       0       0
       0       0       0       0       0       0       0       0       0       0
       0       0       0       0       0       0       0       0       0       0
       0       0       0       0       0       0       0       0       0       0
       0       0       0       0       0       0       0       0       0       0
       0       0       0       0       0       0       0       0       0       0
       0       0       0       0       0       0       0       0       0       0
       0       0       0       0       0       0       0       0       0       0
       0       0       0       0       0       0       0       0       0       0
       0       0       0       0       0       0       0       0       0       0
       0       0       0       0       0       0       0       0       0       0
       0       0       0       0       0       0       0       0       0       0
       0       0       0       0       0       0       0       0       0       0
       0       0       0       0       0       0       0       0       0       0
       0       0       0       0       0       0       0       0       0       0
       0       0       0       0       0       0       0       0       0       0
       0       0       0       0       0       0       0       0       0       0
       0       0       0       0       0       0       0       0       0       0
       0       0       0       0       0       0       0       0       0       0
       0       0       0       0       0       0       0       0       0       0
       0       0       0       0       0       0       0       0       0       0
       0       0       0       0       0       0       0       0       0       0
       0       0       0       0       0       0       0       0       0       0
       0       0       0       0       0       0       0       0       0       0
       0       0       0       0       0       0       0       0       0       0
       0       0       0       0       0       0       0       0       0       0
       0       0       0       0       0       0       0       0       0       0
       0       0       0       0       0       0       0       0       0       0
       0       0       0       0       0       0       0       0       0       0
       0       0       0       0       0       0       0       0       0       0
       0       0       0       0       0       0       0       0       0       0
       0       0       0       0       0       0       0       0       0       0
       0       0       0       0       0       0       0       0       0       0
       0       0       0       0       0       0       0       0       0       0
       0       0       0       0       0       0       0       0       0       0
       0       0       0       0       0       0       0       0       0       0
       0       0       0       0       0       0       0       0       0       0
       0       0       0       0       0       0       0       0       0       0
       0       0       0       0       0       0       0       0       0       0
       0       0       0       0       0       0       0       0       0       0
       0       0       0       0       0       0       0       0       0       0
       0       0       0       0       0       0       0       0       0       0
       0       0       0       0       0       0       0       0       0       0
       0       0       0       0       0       0       0       0       0       0
       0       0       0       0       0       0       0       0       0       0
       0       0       0       0       0       0       0       0       0       0
       0       0       0       0       0       0       0       0       0       0
       0       0       0       0       0       0       0       0       0       0
       0       0       0       0       0       0       0       0       0       0
       0       0       0       0       0       0       0       0       0       0
       0       0       0       0       0       0       0       0       0       0
       0       0       0       0       0       0       0       0       0       0
       0       0       0       0       0       0       0       0       0       0
       0       0       0       0       0       0       0       0       0       0
       0       0       0       0       0       0       0       0       0       0
       0       0       0       0       0       0       0       0       0       0
       0       0       0       0       0       0       0       0       0       0
       0       0       0       0       0       0       0       0       0       0
       0       0       0       0       0       0       0       0       0       0
       0       0       0       0       0       0       0       0       0       0
       0       0       0       0       0       0       0       0       0       0
       0       0       0       0       0       0       0       0       0       0
       0       0       0       0       0       0       0       0       0       0
       0       0       0       0       0       0       0       0       0       0
       0       0       0       0       0       0       0       0       0       0
       0       0       0       0       0       0       0       0       0       0
       0       0       0       0       0       0       0       0       0       0
       0       0       0       0       0       0       0       0       0       0
       0       0       0       0       0       0       0       0       0       0
       0       0       0       0       0       0       0       0       0       0
       0       0       0       0       0       0       0       0       0       0
       0       0       0       0       0       0       0       0       0       0
       0       0       0       0       0       0       0       0       0       0
       0       0       0       0       0       0       0       0       0       0
       0       0       0       0       0       0       0       0       0       0
       0       0       0       0       0       0       0       0       0       0
       0       0       0       0       0       0       0       0       0       0
       0       0       0       0       0       0       0       0       0       0
       0       0       0       0       0       0       0       0       0       0
       0       0       0       0       0       0       0       0       0       0
       0       0       0       0       0       0       0       0       0       0
       0       0       0       0       0       0       0       0       0       0
       0       0       0       0       0       0       0       0       0       0
       0       0       0       0       0       0       0       0       0       0
       0       0       0       0       0       0       0       0       0       0
       0       0       0       0       0       0       0       0       0       0
       0       0       0       0       0       0       0       0       0       0
       0       0       0       0       0       0       0       0       0       0
       0       0       0       0       0       0       0       0       0       0
       0       0       0       0       0       0       0       0       0       0
       0       0       0       0       0       0       0       0       0       0
       0       0       0       0       0       0       0       0       0       0
       0       0       0       0       0       0       0       0       0       0
       0       0       0       0       0       0       0       0       0       0
       0       0       0       0       0       0       0       0       0       0
       0       0       0       0       0       0       0       0       0       0
       0       0       0       0       0       0       0       0       0       0
       0       0       0       0       0       0       0       0       0       0
       0       0       0       0       0       0       0       0       0       0
       0       0       0       0       0       0       0       0       0       0
       0       0       0       0       0       0       0       0       0       0
       0       0       0       0       0       0       0       0       0       0
       0       0       0       0       0       0       0       0       0       0
       0       0       0       0       0       0       0       0       0       0
       0       0       0       0       0       0       0       0       0       0
       0       0       0       0       0       0       0       0       0       0
       0       0       0       0       0       0       0       0       0       0
       0       0       0       0       0       0       0       0       0       0
       0       0       0       0       0       0       0       0       0       0
       0       0       0       0       0       0       0       0       0       0
       0       0       0       0       0       0       0       0       0       0
       0       0       0       0       0       0       0       0       0       0
       0       0       0       0       0       0       0       0       0       0
       0       0       0       0       0       0       0       0       0       0
       0       0       0       0       0       0       0       0       0       0
       0       0       0       0       0       0       0       0       0       0
       0       0       0       0       0       0       0       0       0       0
       0       0       0       0       0       0       0       0       0       0
       0       0       0       0       0       0       0       0       0       0
       0       0       0       0       0       0       0       0       0       0
       0       0       0       0       0       0       0       0       0       0
       0       0       0       0       0       0       0       0       0       0
       0       0       0       0       0       0       0       0       0       0
       0       0       0       0       0       0       0       0       0       0
       0       0       0       0       0       0       0       0       0       0
       0       0       0       0       0       0       0       0       0       0
       0       0       0       0       0       0       0       0       0       0
       0       0       0       0       0       0       0       0       0       0
       0       0       0       0       0       0       0       0       0       0
       0       0       0       0       0       0       0       0       0       0
       0       0       0       0       0       0       0       0       0       0
       0       0       0       0       0       0       0       0       0       0
       0       0       0       0       0       0       0       0       0       0
       0       0       0       0       0       0       0       0       0       0
       0       0       0       0       0       0       0       0       0       0
       0       0       0       0       0       0       0       0       0       0
       0       0       0       0       0       0       0       0       0       0
       0       0       0       0       0       0       0       0       0       0
       0       0       0       0       0       0       0       0       0       0
       0       0       0       0       0       0       0       0       0       0
       0       0       0       0       0       0       0       0       0       0
       0       0       0       0       0       0       0       0       0       0
       0       0       0       0       0       0       0       0       0       0
       0       0       0       0       0       0       0       0       0       0
       0       0       0       0       0       0       0       0       0       0
       0       0       0       0       0       0       0       0       0       0
       0       0       0       0       0       0       0       0       0       0
       0       0       0       0       0       0       0       0       0       0
       0       0       0       0       0       0       0       0       0       0
       0       0       0       0       0       0       0       0       0       0
       0       0       0       0       0       0       0       0       0       0
       0       0       0       0       0       0       0       0       0       0
       0       0       0       0       0       0       0       0       0       0
       0       0       0       0       0       0       0       0       0       0
       0       0       0       0       0       0       0       0       0       0
       0       0       0       0       0       0       0       0       0       0
       0       0       0       0       0       0       0       0       0       0
       0       0       0       0       0       0       0       0       0       0
       0       0       0       0       0       0       0       0       0       0
       0       0       0       0       0       0       0       0       0       0
       0       0       0       0       0       0       0       0       0       0
       0       0       0       0       0       0       0       0       0       0
       0       0       0       0       0       0       0       0       0       0
       0       0       0       0       0       0       0       0       0       0
       0       0       0       0       0       0       0       0       0       0
       0       0       0       0       0       0       0       0       0       0
       0       0       0       0       0       0       0       0       0       0
       0       0       0       0       0       0       0       0       0       0
       0       0       0       0       0       0       0       0       0       0
       0       0       0       0       0       0       0       0       0       0
       0       0       0       0       0       0       0       0       0       0
       0       0       0       0       0       0       0       0       0       0
       0       0       0       0       0       0       0       0       0       0
       0       0       0       0       0       0       0       0       0       0
       0       0       0       0       0       0       0       0       0       0
       0       0       0       0       0       0       0       0       0       0
       0       0       0       0       0       0       0       0       0       0
       0       0       0       0       0       0       0       0       0       0
       0       0       0       0       0       0       0       0       0       0
       0       0       0       0       0       0       0       0       0       0
       0       0       0       0       0       0       0       0       0       0
       0       0       0       0       0       0       0       0       0       0
       0       0       0       0       0       0       0       0       0       0
       0       0       0       0       0       0       0       0       0       0
       0       0       0       0       0       0       0       0       0       0
       0       0       0       0       0       0       0       0       0       0
       0       0       0       0       0       0       0       0       0       0
       0       0       0       0       0       0       0       0       0       0
       0       0       0       0       0       0       0       0       0       0
       0       0       0       0       0       0       0       0       0       0
       0       0       0       0       0       0       0       0       0       0
       0       0       0       0       0       0       0       0       0       0
       0       0       0       0       0       0       0       0       0       0
       0       0       0       0       0       0       0       0       0       0
       0       0       0       0       0       0       0       0       0       0
       0       0       0       0       0       0       0       0       0       0
       0       0       0       0       0       0       0       0       0       0
       0       0       0       0       0       0       0       0       0       0
       0       0       0       0       0       0       0       0       0       0
       0       0       0       0       0       0       0       0       0       0
       0       0       0       0       0       0       0       0       0       0
       0       0       0       0       0       0       0       0       0       0
       0       0       0       0       0       0       0       0       0       0
       0       0       0       0       0       0       0       0       0       0
       0       0       0       0       0       0       0       0       0       0
       0       0       0       0       0       0       0       0       0       0
       0       0       0       0       0       0       0       0       0       0
       0       0       0       0       0       0       0       0       0       0
       0       0       0       0       0       0       0       0       0       0
       0       0       0       0       0       0       0       0       0       0
       0       0       0       0       0       0       0       0       0       0
       0       0       0       0       0       0       0       0       0       0
       0       0       0       0       0       0       0       0       0       0
       0       0       0       0       0       0       0       0       0       0
       0       0       0       0       0       0       0       0       0       0
       0       0       0       0       0       0       0       0       0       0
       0       0       0       0       0       0       0       0       0       0
       0       0       0       0       0       0       0       0       0       0
       0       0       0       0       0       0       0       0       0       0
       0       0       0       0       0       0       0       0       0       0
       0       0       0       0       0       0       0       0       0       0
       0       0       0       0       0       0       0       0       0       0
       0       0       0       0       0       0       0       0       0       0
       0       0       0       0       0       0       0       0       0       0
       0       0       0       0       0       0       0       0       0       0
       0       0       0       0       0       0       0       0       0       0
       0       0       0       0       0       0       0       0       0       0
       0       0       0       0       0       0       0       0       0       0
       0       0       0       0       0       0       0       0       0       0
       0       0       0       0       0       0       0       0       0       0
       0       0       0       0       0       0       0       0       0       0
       0       0       0       0       0       0       0       0       0       0
       0       0       0       0       0       0       0       0       0       0
       0       0       0       0       0       0       0       0       0       0
       0       0       0       0       0       0       0       0       0       0
       0       0       0       0       0       0       0       0       0       0
       0       0       0       0       0       0       0       0       0       0
       0       0       0       0       0       0       0       0       0       0
       0       0       0       0       0       0       0       0       0       0
       0       0       0       0       0       0       0       0       0       0
       0       0       0       0       0       0       0       0       0       0
       0       0       0       0       0       0       0       0       0       0
       0       0       0       0       0       0       0       0       0       0
       0       0       0       0       0       0       0       0       0       0
       0       0       0       0       0       0       0       0       0       0
       0       0       0       0       0       0       0       0       0       0
       0       0       0       0       0       0       0       0       0       0
       0       0       0       0       0       0       0       0       0       0
       0       0       0       0       0       0       0       0       0       0
       0       0       0       0       0       0       0       0       0       0
       0       0       0       0       0       0       0       0       0       0
       0       0       0       0       0       0       0       0       0       0
       0       0       0       0       0       0       0       0       0       0
       0       0       0       0       0       0       0       0       0       0
       0       0       0       0       0       0       0       0       0       0
       0       0       0       0       0       0       0       0       0       0
       0       0       0       0       0       0       0       0       0       0
       0       0       0       0       0       0       0       0       0       0
       0       0       0       0       0       0       0       0       0       0
       0       0       0       0       0       0       0       0       0       0
       0       0       0       0       0       0       0       0       0       0
       0       0       0       0       0       0       0       0       0       0
       0       0       0       0       0       0       0       0       0       0
       0       0       0       0       0       0       0       0       0       0
       0       0       0       0       0       0       0       0       0       0
       0       0       0       0       0       0       0       0       0       0
       0       0       0       0       0       0       0       0       0       0
       0       0       0       0       0       0       0       0       0       0
       0       0       0       0       0       0       0       0       0       0
       0       0       0       0       0       0       0       0       0       0
       0       0       0       0       0       0       0       0       0       0
       0       0       0       0       0       0       0       0       0       0
       0       0       0       0       0       0       0       0       0       0
       0       0       0       0       0       0       0       0       0       0
       0       0       0       0       0       0       0       0       0       0
       0       0       0       0       0       0       0       0       0       0
       0       0       0       0       0       0       0       0       0       0
       0       0       0       0       0       0       0       0       0       0
       0       0       0       0       0       0       0       0       0       0
       0       0       0       0       0       0       0       0       0       0
       0       0       0       0       0       0       0       0       0       0
       0       0       0       0       0       0       0       0       0       0
       0       0       0       0       0       0       0       0       0       0
       0       0       0       0       0       0       0       0       0       0
       0       0       0       0       0       0       0       0       0       0
       0       0       0       0       0       0       0       0       0       0
       0       0       0       0       0       0       0       0       0       0
       0       0       0       0       0       0       0       0       0       0
       0       0       0       0       0       0       0       0       0       0
       0       0       0       0       0       0       0       0       0       0
       0       0       0       0       0       0       0       0       0       0
       0       0       0       0       0       0       0       0       0       0
       0       0       0       0       0       0       0       0       0       0
       0       0       0       0       0       0       0       0       0       0
       0       0       0       0       0       0       0       0       0       0
       0       0       0       0       0       0       0       0       0       0
       0       0       0       0       0       0       0       0       0       0
       0       0       0       0       0       0       0       0       0       0
       0       0       0       0       0       0       0       0       0       0
       0       0       0       0       0       0       0       0       0       0
       0       0       0       0       0       0       0       0       0       0
       0       0       0       0       0       0       0       0       0       0
       0       0       0       0       0       0       0       0       0       0
       0       0       0       0       0       0       0       0       0       0
       0       0       0       0       0       0       0       0       0       0
       0       0       0       0       0       0       0       0       0       0
       0       0       0       0       0       0       0       0       0       0
       0       0       0       0       0       0       0       0       0       0
       0       0       0       0       0       0       0       0       0       0
       0       0       0       0       0       0       0       0       0       0
       0       0       0       0       0       0       0       0       0       0
       0       0       0       0       0       0       0       0       0       0
       0       0       0       0       0       0       0       0       0       0
       0       0       0       0       0       0       0       0       0       0
       0       0       0       0       0       0       0       0       0       0
       0       0       0       0       0       0       0       0       0       0
       0       0       0       0       0       0       0       0       0       0
       0       0
%FLAG RADIUS_SET                                                                
%FORMAT(1a80)                                                                   
modified Bondi radii (mbondi)                                                   
%FLAG RADII                                                                     
%FORMAT(5E16.8)                                                                 
  1.80000000E+00  1.70000000E+00  1.70000000E+00  1.70000000E+00  1.70000000E+00
  1.70000000E+00  1.70000000E+00  1.70000000E+00  1.70000000E+00  1.80000000E+00
  1.70000000E+00  1.30000000E+00  1.70000000E+00  1.70000000E+00  1.30000000E+00
  1.70000000E+00  1.70000000E+00  1.70000000E+00  1.30000000E+00  1.70000000E+00
  1.30000000E+00  1.30000000E+00  1.30000000E+00  1.70000000E+00  1.70000000E+00
  1.70000000E+00  1.70000000E+00  1.30000000E+00  1.70000000E+00  1.30000000E+00
  1.70000000E+00  1.30000000E+00  1.30000000E+00  1.70000000E+00  1.30000000E+00
  1.30000000E+00  1.70000000E+00  1.30000000E+00  1.30000000E+00  1.30000000E+00
  1.70000000E+00  1.30000000E+00  1.30000000E+00  1.70000000E+00  1.30000000E+00
  1.30000000E+00  1.70000000E+00  1.30000000E+00  1.30000000E+00  1.70000000E+00
  1.30000000E+00  1.30000000E+00  1.30000000E+00  1.30000000E+00  1.70000000E+00
  1.70000000E+00  1.30000000E+00  1.30000000E+00  1.30000000E+00  1.70000000E+00
  1.30000000E+00  1.30000000E+00  1.30000000E+00  1.30000000E+00  1.80000000E+00
  1.70000000E+00  1.70000000E+00  1.70000000E+00  1.70000000E+00  1.70000000E+00
  1.70000000E+00  1.70000000E+00  1.70000000E+00  1.80000000E+00  1.70000000E+00
  1.30000000E+00  1.70000000E+00  1.70000000E+00  1.30000000E+00  1.70000000E+00
  1.70000000E+00  1.70000000E+00  1.30000000E+00  1.70000000E+00  1.30000000E+00
  1.30000000E+00  1.30000000E+00  1.70000000E+00  1.70000000E+00  1.70000000E+00
  1.70000000E+00  1.30000000E+00  1.70000000E+00  1.30000000E+00  1.70000000E+00
  1.30000000E+00  1.30000000E+00  1.70000000E+00  1.30000000E+00  1.30000000E+00
  1.70000000E+00  1.30000000E+00  1.30000000E+00  1.30000000E+00  1.70000000E+00
  1.30000000E+00  1.30000000E+00  1.70000000E+00  1.30000000E+00  1.30000000E+00
  1.70000000E+00  1.30000000E+00  1.30000000E+00  1.70000000E+00  1.30000000E+00
  1.30000000E+00  1.30000000E+00  1.30000000E+00  1.70000000E+00  1.70000000E+00
  1.30000000E+00  1.30000000E+00  1.30000000E+00  1.70000000E+00  1.30000000E+00
  1.30000000E+00  1.30000000E+00  1.30000000E+00  1.80000000E+00  1.70000000E+00
  1.70000000E+00  1.70000000E+00  1.70000000E+00  1.70000000E+00  1.70000000E+00
  1.70000000E+00  1.70000000E+00  1.80000000E+00  1.70000000E+00  1.30000000E+00
  1.70000000E+00  1.70000000E+00  1.30000000E+00  1.70000000E+00  1.70000000E+00
  1.70000000E+00  1.30000000E+00  1.70000000E+00  1.30000000E+00  1.30000000E+00
  1.30000000E+00  1.70000000E+00  1.70000000E+00  1.70000000E+00  1.70000000E+00
  1.30000000E+00  1.70000000E+00  1.30000000E+00  1.70000000E+00  1.30000000E+00
  1.30000000E+00  1.70000000E+00  1.30000000E+00  1.30000000E+00  1.70000000E+00
  1.30000000E+00  1.30000000E+00  1.30000000E+00  1.70000000E+00  1.30000000E+00
  1.30000000E+00  1.70000000E+00  1.30000000E+00  1.30000000E+00  1.70000000E+00
  1.30000000E+00  1.30000000E+00  1.70000000E+00  1.30000000E+00  1.30000000E+00
  1.30000000E+00  1.30000000E+00  1.70000000E+00  1.70000000E+00  1.30000000E+00
  1.30000000E+00  1.30000000E+00  1.70000000E+00  1.30000000E+00  1.30000000E+00
  1.30000000E+00  1.30000000E+00  1.80000000E+00  1.70000000E+00  1.70000000E+00
  1.70000000E+00  1.70000000E+00  1.70000000E+00  1.70000000E+00  1.70000000E+00
  1.70000000E+00  1.80000000E+00  1.70000000E+00  1.30000000E+00  1.70000000E+00
  1.70000000E+00  1.30000000E+00  1.70000000E+00  1.70000000E+00  1.70000000E+00
  1.30000000E+00  1.70000000E+00  1.30000000E+00  1.30000000E+00  1.30000000E+00
  1.70000000E+00  1.70000000E+00  1.70000000E+00  1.70000000E+00  1.30000000E+00
  1.70000000E+00  1.30000000E+00  1.70000000E+00  1.30000000E+00  1.30000000E+00
  1.70000000E+00  1.30000000E+00  1.30000000E+00  1.70000000E+00  1.30000000E+00
  1.30000000E+00  1.30000000E+00  1.70000000E+00  1.30000000E+00  1.30000000E+00
  1.70000000E+00  1.30000000E+00  1.30000000E+00  1.70000000E+00  1.30000000E+00
  1.30000000E+00  1.70000000E+00  1.30000000E+00  1.30000000E+00  1.30000000E+00
  1.30000000E+00  1.70000000E+00  1.70000000E+00  1.30000000E+00  1.30000000E+00
  1.30000000E+00  1.70000000E+00  1.30000000E+00  1.30000000E+00  1.30000000E+00
  1.30000000E+00  1.80000000E+00  1.70000000E+00  1.70000000E+00  1.70000000E+00
  1.70000000E+00  1.70000000E+00  1.70000000E+00  1.70000000E+00  1.70000000E+00
  1.80000000E+00  1.70000000E+00  1.30000000E+00  1.70000000E+00  1.70000000E+00
  1.30000000E+00  1.70000000E+00  1.70000000E+00  1.70000000E+00  1.30000000E+00
  1.70000000E+00  1.30000000E+00  1.30000000E+00  1.30000000E+00  1.70000000E+00
  1.70000000E+00  1.70000000E+00  1.70000000E+00  1.30000000E+00  1.70000000E+00
  1.30000000E+00  1.70000000E+00  1.30000000E+00  1.30000000E+00  1.70000000E+00
  1.30000000E+00  1.30000000E+00  1.70000000E+00  1.30000000E+00  1.30000000E+00
  1.30000000E+00  1.70000000E+00  1.30000000E+00  1.30000000E+00  1.70000000E+00
  1.30000000E+00  1.30000000E+00  1.70000000E+00  1.30000000E+00  1.30000000E+00
  1.70000000E+00  1.30000000E+00  1.30000000E+00  1.30000000E+00  1.30000000E+00
  1.70000000E+00  1.70000000E+00  1.30000000E+00  1.30000000E+00  1.30000000E+00
  1.70000000E+00  1.30000000E+00  1.30000000E+00  1.30000000E+00  1.30000000E+00
  1.80000000E+00  1.70000000E+00  1.70000000E+00  1.70000000E+00  1.70000000E+00
  1.70000000E+00  1.70000000E+00  1.70000000E+00  1.70000000E+00  1.80000000E+00
  1.70000000E+00  1.30000000E+00  1.70000000E+00  1.70000000E+00  1.30000000E+00
  1.70000000E+00  1.70000000E+00  1.70000000E+00  1.30000000E+00  1.70000000E+00
  1.30000000E+00  1.30000000E+00  1.30000000E+00  1.70000000E+00  1.70000000E+00
  1.70000000E+00  1.70000000E+00  1.30000000E+00  1.70000000E+00  1.30000000E+00
  1.70000000E+00  1.30000000E+00  1.30000000E+00  1.70000000E+00  1.30000000E+00
  1.30000000E+00  1.70000000E+00  1.30000000E+00  1.30000000E+00  1.30000000E+00
  1.70000000E+00  1.30000000E+00  1.30000000E+00  1.70000000E+00  1.30000000E+00
  1.30000000E+00  1.70000000E+00  1.30000000E+00  1.30000000E+00  1.70000000E+00
  1.30000000E+00  1.30000000E+00  1.30000000E+00  1.30000000E+00  1.70000000E+00
  1.70000000E+00  1.30000000E+00  1.30000000E+00  1.30000000E+00  1.70000000E+00
  1.30000000E+00  1.30000000E+00  1.30000000E+00  1.30000000E+00  1.80000000E+00
  1.70000000E+00  1.70000000E+00  1.70000000E+00  1.70000000E+00  1.70000000E+00
  1.70000000E+00  1.70000000E+00  1.70000000E+00  1.80000000E+00  1.70000000E+00
  1.30000000E+00  1.70000000E+00  1.70000000E+00  1.30000000E+00  1.70000000E+00
  1.70000000E+00  1.70000000E+00  1.30000000E+00  1.70000000E+00  1.30000000E+00
  1.30000000E+00  1.30000000E+00  1.70000000E+00  1.70000000E+00  1.70000000E+00
  1.70000000E+00  1.30000000E+00  1.70000000E+00  1.30000000E+00  1.70000000E+00
  1.30000000E+00  1.30000000E+00  1.70000000E+00  1.30000000E+00  1.30000000E+00
  1.70000000E+00  1.30000000E+00  1.30000000E+00  1.30000000E+00  1.70000000E+00
  1.30000000E+00  1.30000000E+00  1.70000000E+00  1.30000000E+00  1.30000000E+00
  1.70000000E+00  1.30000000E+00  1.30000000E+00  1.70000000E+00  1.30000000E+00
  1.30000000E+00  1.30000000E+00  1.30000000E+00  1.70000000E+00  1.70000000E+00
  1.30000000E+00  1.30000000E+00  1.30000000E+00  1.70000000E+00  1.30000000E+00
  1.30000000E+00  1.30000000E+00  1.30000000E+00  1.80000000E+00  1.70000000E+00
  1.70000000E+00  1.70000000E+00  1.70000000E+00  1.70000000E+00  1.70000000E+00
  1.70000000E+00  1.70000000E+00  1.80000000E+00  1.70000000E+00  1.30000000E+00
  1.70000000E+00  1.70000000E+00  1.30000000E+00  1.70000000E+00  1.70000000E+00
  1.70000000E+00  1.30000000E+00  1.70000000E+00  1.30000000E+00  1.30000000E+00
  1.30000000E+00  1.70000000E+00  1.70000000E+00  1.70000000E+00  1.70000000E+00
  1.30000000E+00  1.70000000E+00  1.30000000E+00  1.70000000E+00  1.30000000E+00
  1.30000000E+00  1.70000000E+00  1.30000000E+00  1.30000000E+00  1.70000000E+00
  1.30000000E+00  1.30000000E+00  1.30000000E+00  1.70000000E+00  1.30000000E+00
  1.30000000E+00  1.70000000E+00  1.30000000E+00  1.30000000E+00  1.70000000E+00
  1.30000000E+00  1.30000000E+00  1.70000000E+00  1.30000000E+00  1.30000000E+00
  1.30000000E+00  1.30000000E+00  1.70000000E+00  1.70000000E+00  1.30000000E+00
  1.30000000E+00  1.30000000E+00  1.70000000E+00  1.30000000E+00  1.30000000E+00
  1.30000000E+00  1.30000000E+00  1.80000000E+00  1.70000000E+00  1.70000000E+00
  1.70000000E+00  1.70000000E+00  1.70000000E+00  1.70000000E+00  1.70000000E+00
  1.70000000E+00  1.80000000E+00  1.70000000E+00  1.30000000E+00  1.70000000E+00
  1.70000000E+00  1.30000000E+00  1.70000000E+00  1.70000000E+00  1.70000000E+00
  1.30000000E+00  1.70000000E+00  1.30000000E+00  1.30000000E+00  1.30000000E+00
  1.70000000E+00  1.70000000E+00  1.70000000E+00  1.70000000E+00  1.30000000E+00
  1.70000000E+00  1.30000000E+00  1.70000000E+00  1.30000000E+00  1.30000000E+00
  1.70000000E+00  1.30000000E+00  1.30000000E+00  1.70000000E+00  1.30000000E+00
  1.30000000E+00  1.30000000E+00  1.70000000E+00  1.30000000E+00  1.30000000E+00
  1.70000000E+00  1.30000000E+00  1.30000000E+00  1.70000000E+00  1.30000000E+00
  1.30000000E+00  1.70000000E+00  1.30000000E+00  1.30000000E+00  1.30000000E+00
  1.30000000E+00  1.70000000E+00  1.70000000E+00  1.30000000E+00  1.30000000E+00
  1.30000000E+00  1.70000000E+00  1.30000000E+00  1.30000000E+00  1.30000000E+00
  1.30000000E+00  1.80000000E+00  1.70000000E+00  1.70000000E+00  1.70000000E+00
  1.70000000E+00  1.70000000E+00  1.70000000E+00  1.70000000E+00  1.70000000E+00
  1.80000000E+00  1.70000000E+00  1.30000000E+00  1.70000000E+00  1.70000000E+00
  1.30000000E+00  1.70000000E+00  1.70000000E+00  1.70000000E+00  1.30000000E+00
  1.70000000E+00  1.30000000E+00  1.30000000E+00  1.30000000E+00  1.70000000E+00
  1.70000000E+00  1.70000000E+00  1.70000000E+00  1.30000000E+00  1.70000000E+00
  1.30000000E+00  1.70000000E+00  1.30000000E+00  1.30000000E+00  1.70000000E+00
  1.30000000E+00  1.30000000E+00  1.70000000E+00  1.30000000E+00  1.30000000E+00
  1.30000000E+00  1.70000000E+00  1.30000000E+00  1.30000000E+00  1.70000000E+00
  1.30000000E+00  1.30000000E+00  1.70000000E+00  1.30000000E+00  1.30000000E+00
  1.70000000E+00  1.30000000E+00  1.30000000E+00  1.30000000E+00  1.30000000E+00
  1.70000000E+00  1.70000000E+00  1.30000000E+00  1.30000000E+00  1.30000000E+00
  1.70000000E+00  1.30000000E+00  1.30000000E+00  1.30000000E+00  1.30000000E+00
  1.80000000E+00  1.70000000E+00  1.70000000E+00  1.70000000E+00  1.70000000E+00
  1.70000000E+00  1.70000000E+00  1.70000000E+00  1.70000000E+00  1.80000000E+00
  1.70000000E+00  1.30000000E+00  1.70000000E+00  1.70000000E+00  1.30000000E+00
  1.70000000E+00  1.70000000E+00  1.70000000E+00  1.30000000E+00  1.70000000E+00
  1.30000000E+00  1.30000000E+00  1.30000000E+00  1.70000000E+00  1.70000000E+00
  1.70000000E+00  1.70000000E+00  1.30000000E+00  1.70000000E+00  1.30000000E+00
  1.70000000E+00  1.30000000E+00  1.30000000E+00  1.70000000E+00  1.30000000E+00
  1.30000000E+00  1.70000000E+00  1.30000000E+00  1.30000000E+00  1.30000000E+00
  1.70000000E+00  1.30000000E+00  1.30000000E+00  1.70000000E+00  1.30000000E+00
  1.30000000E+00  1.70000000E+00  1.30000000E+00  1.30000000E+00  1.70000000E+00
  1.30000000E+00  1.30000000E+00  1.30000000E+00  1.30000000E+00  1.70000000E+00
  1.70000000E+00  1.30000000E+00  1.30000000E+00  1.30000000E+00  1.70000000E+00
  1.30000000E+00  1.30000000E+00  1.30000000E+00  1.30000000E+00  1.80000000E+00
  1.70000000E+00  1.70000000E+00  1.70000000E+00  1.70000000E+00  1.70000000E+00
  1.70000000E+00  1.70000000E+00  1.70000000E+00  1.80000000E+00  1.70000000E+00
  1.30000000E+00  1.70000000E+00  1.70000000E+00  1.30000000E+00  1.70000000E+00
  1.70000000E+00  1.70000000E+00  1.30000000E+00  1.70000000E+00  1.30000000E+00
  1.30000000E+00  1.30000000E+00  1.70000000E+00  1.70000000E+00  1.70000000E+00
  1.70000000E+00  1.30000000E+00  1.70000000E+00  1.30000000E+00  1.70000000E+00
  1.30000000E+00  1.30000000E+00  1.70000000E+00  1.30000000E+00  1.30000000E+00
  1.70000000E+00  1.30000000E+00  1.30000000E+00  1.30000000E+00  1.70000000E+00
  1.30000000E+00  1.30000000E+00  1.70000000E+00  1.30000000E+00  1.30000000E+00
  1.70000000E+00  1.30000000E+00  1.30000000E+00  1.70000000E+00  1.30000000E+00
  1.30000000E+00  1.30000000E+00  1.30000000E+00  1.70000000E+00  1.70000000E+00
  1.30000000E+00  1.30000000E+00  1.30000000E+00  1.70000000E+00  1.30000000E+00
  1.30000000E+00  1.30000000E+00  1.30000000E+00  1.80000000E+00  1.70000000E+00
  1.70000000E+00  1.70000000E+00  1.70000000E+00  1.70000000E+00  1.70000000E+00
  1.70000000E+00  1.70000000E+00  1.80000000E+00  1.70000000E+00  1.30000000E+00
  1.70000000E+00  1.70000000E+00  1.30000000E+00  1.70000000E+00  1.70000000E+00
  1.70000000E+00  1.30000000E+00  1.70000000E+00  1.30000000E+00  1.30000000E+00
  1.30000000E+00  1.70000000E+00  1.70000000E+00  1.70000000E+00  1.70000000E+00
  1.30000000E+00  1.70000000E+00  1.30000000E+00  1.70000000E+00  1.30000000E+00
  1.30000000E+00  1.70000000E+00  1.30000000E+00  1.30000000E+00  1.70000000E+00
  1.30000000E+00  1.30000000E+00  1.30000000E+00  1.70000000E+00  1.30000000E+00
  1.30000000E+00  1.70000000E+00  1.30000000E+00  1.30000000E+00  1.70000000E+00
  1.30000000E+00  1.30000000E+00  1.70000000E+00  1.30000000E+00  1.30000000E+00
  1.30000000E+00  1.30000000E+00  1.70000000E+00  1.70000000E+00  1.30000000E+00
  1.30000000E+00  1.30000000E+00  1.70000000E+00  1.30000000E+00  1.30000000E+00
  1.30000000E+00  1.30000000E+00  1.80000000E+00  1.70000000E+00  1.70000000E+00
  1.70000000E+00  1.70000000E+00  1.70000000E+00  1.70000000E+00  1.70000000E+00
  1.70000000E+00  1.80000000E+00  1.70000000E+00  1.30000000E+00  1.70000000E+00
  1.70000000E+00  1.30000000E+00  1.70000000E+00  1.70000000E+00  1.70000000E+00
  1.30000000E+00  1.70000000E+00  1.30000000E+00  1.30000000E+00  1.30000000E+00
  1.70000000E+00  1.70000000E+00  1.70000000E+00  1.70000000E+00  1.30000000E+00
  1.70000000E+00  1.30000000E+00  1.70000000E+00  1.30000000E+00  1.30000000E+00
  1.70000000E+00  1.30000000E+00  1.30000000E+00  1.70000000E+00  1.30000000E+00
  1.30000000E+00  1.30000000E+00  1.70000000E+00  1.30000000E+00  1.30000000E+00
  1.70000000E+00  1.30000000E+00  1.30000000E+00  1.70000000E+00  1.30000000E+00
  1.30000000E+00  1.70000000E+00  1.30000000E+00  1.30000000E+00  1.30000000E+00
  1.30000000E+00  1.70000000E+00  1.70000000E+00  1.30000000E+00  1.30000000E+00
  1.30000000E+00  1.70000000E+00  1.30000000E+00  1.30000000E+00  1.30000000E+00
  1.30000000E+00  1.80000000E+00  1.70000000E+00  1.70000000E+00  1.70000000E+00
  1.70000000E+00  1.70000000E+00  1.70000000E+00  1.70000000E+00  1.70000000E+00
  1.80000000E+00  1.70000000E+00  1.30000000E+00  1.70000000E+00  1.70000000E+00
  1.30000000E+00  1.70000000E+00  1.70000000E+00  1.70000000E+00  1.30000000E+00
  1.70000000E+00  1.30000000E+00  1.30000000E+00  1.30000000E+00  1.70000000E+00
  1.70000000E+00  1.70000000E+00  1.70000000E+00  1.30000000E+00  1.70000000E+00
  1.30000000E+00  1.70000000E+00  1.30000000E+00  1.30000000E+00  1.70000000E+00
  1.30000000E+00  1.30000000E+00  1.70000000E+00  1.30000000E+00  1.30000000E+00
  1.30000000E+00  1.70000000E+00  1.30000000E+00  1.30000000E+00  1.70000000E+00
  1.30000000E+00  1.30000000E+00  1.70000000E+00  1.30000000E+00  1.30000000E+00
  1.70000000E+00  1.30000000E+00  1.30000000E+00  1.30000000E+00  1.30000000E+00
  1.70000000E+00  1.70000000E+00  1.30000000E+00  1.30000000E+00  1.30000000E+00
  1.70000000E+00  1.30000000E+00  1.30000000E+00  1.30000000E+00  1.30000000E+00
  1.80000000E+00  1.70000000E+00  1.70000000E+00  1.70000000E+00  1.70000000E+00
  1.70000000E+00  1.70000000E+00  1.70000000E+00  1.70000000E+00  1.80000000E+00
  1.70000000E+00  1.30000000E+00  1.70000000E+00  1.70000000E+00  1.30000000E+00
  1.70000000E+00  1.70000000E+00  1.70000000E+00  1.30000000E+00  1.70000000E+00
  1.30000000E+00  1.30000000E+00  1.30000000E+00  1.70000000E+00  1.70000000E+00
  1.70000000E+00  1.70000000E+00  1.30000000E+00  1.70000000E+00  1.30000000E+00
  1.70000000E+00  1.30000000E+00  1.30000000E+00  1.70000000E+00  1.30000000E+00
  1.30000000E+00  1.70000000E+00  1.30000000E+00  1.30000000E+00  1.30000000E+00
  1.70000000E+00  1.30000000E+00  1.30000000E+00  1.70000000E+00  1.30000000E+00
  1.30000000E+00  1.70000000E+00  1.30000000E+00  1.30000000E+00  1.70000000E+00
  1.30000000E+00  1.30000000E+00  1.30000000E+00  1.30000000E+00  1.70000000E+00
  1.70000000E+00  1.30000000E+00  1.30000000E+00  1.30000000E+00  1.70000000E+00
  1.30000000E+00  1.30000000E+00  1.30000000E+00  1.30000000E+00  1.80000000E+00
  1.70000000E+00  1.70000000E+00  1.70000000E+00  1.70000000E+00  1.70000000E+00
  1.70000000E+00  1.70000000E+00  1.70000000E+00  1.80000000E+00  1.70000000E+00
  1.30000000E+00  1.70000000E+00  1.70000000E+00  1.30000000E+00  1.70000000E+00
  1.70000000E+00  1.70000000E+00  1.30000000E+00  1.70000000E+00  1.30000000E+00
  1.30000000E+00  1.30000000E+00  1.70000000E+00  1.70000000E+00  1.70000000E+00
  1.70000000E+00  1.30000000E+00  1.70000000E+00  1.30000000E+00  1.70000000E+00
  1.30000000E+00  1.30000000E+00  1.70000000E+00  1.30000000E+00  1.30000000E+00
  1.70000000E+00  1.30000000E+00  1.30000000E+00  1.30000000E+00  1.70000000E+00
  1.30000000E+00  1.30000000E+00  1.70000000E+00  1.30000000E+00  1.30000000E+00
  1.70000000E+00  1.30000000E+00  1.30000000E+00  1.70000000E+00  1.30000000E+00
  1.30000000E+00  1.30000000E+00  1.30000000E+00  1.70000000E+00  1.70000000E+00
  1.30000000E+00  1.30000000E+00  1.30000000E+00  1.70000000E+00  1.30000000E+00
  1.30000000E+00  1.30000000E+00  1.30000000E+00  1.80000000E+00  1.70000000E+00
  1.70000000E+00  1.70000000E+00  1.70000000E+00  1.70000000E+00  1.70000000E+00
  1.70000000E+00  1.70000000E+00  1.80000000E+00  1.70000000E+00  1.30000000E+00
  1.70000000E+00  1.70000000E+00  1.30000000E+00  1.70000000E+00  1.70000000E+00
  1.70000000E+00  1.30000000E+00  1.70000000E+00  1.30000000E+00  1.30000000E+00
  1.30000000E+00  1.70000000E+00  1.70000000E+00  1.70000000E+00  1.70000000E+00
  1.30000000E+00  1.70000000E+00  1.30000000E+00  1.70000000E+00  1.30000000E+00
  1.30000000E+00  1.70000000E+00  1.30000000E+00  1.30000000E+00  1.70000000E+00
  1.30000000E+00  1.30000000E+00  1.30000000E+00  1.70000000E+00  1.30000000E+00
  1.30000000E+00  1.70000000E+00  1.30000000E+00  1.30000000E+00  1.70000000E+00
  1.30000000E+00  1.30000000E+00  1.70000000E+00  1.30000000E+00  1.30000000E+00
  1.30000000E+00  1.30000000E+00  1.70000000E+00  1.70000000E+00  1.30000000E+00
  1.30000000E+00  1.30000000E+00  1.70000000E+00  1.30000000E+00  1.30000000E+00
  1.30000000E+00  1.30000000E+00  1.80000000E+00  1.70000000E+00  1.70000000E+00
  1.70000000E+00  1.70000000E+00  1.70000000E+00  1.70000000E+00  1.70000000E+00
  1.70000000E+00  1.80000000E+00  1.70000000E+00  1.30000000E+00  1.70000000E+00
  1.70000000E+00  1.30000000E+00  1.70000000E+00  1.70000000E+00  1.70000000E+00
  1.30000000E+00  1.70000000E+00  1.30000000E+00  1.30000000E+00  1.30000000E+00
  1.70000000E+00  1.70000000E+00  1.70000000E+00  1.70000000E+00  1.30000000E+00
  1.70000000E+00  1.30000000E+00  1.70000000E+00  1.30000000E+00  1.30000000E+00
  1.70000000E+00  1.30000000E+00  1.30000000E+00  1.70000000E+00  1.30000000E+00
  1.30000000E+00  1.30000000E+00  1.70000000E+00  1.30000000E+00  1.30000000E+00
  1.70000000E+00  1.30000000E+00  1.30000000E+00  1.70000000E+00  1.30000000E+00
  1.30000000E+00  1.70000000E+00  1.30000000E+00  1.30000000E+00  1.30000000E+00
  1.30000000E+00  1.70000000E+00  1.70000000E+00  1.30000000E+00  1.30000000E+00
  1.30000000E+00  1.70000000E+00  1.30000000E+00  1.30000000E+00  1.30000000E+00
  1.30000000E+00  1.80000000E+00  1.70000000E+00  1.70000000E+00  1.70000000E+00
  1.70000000E+00  1.70000000E+00  1.70000000E+00  1.70000000E+00  1.70000000E+00
  1.80000000E+00  1.70000000E+00  1.30000000E+00  1.70000000E+00  1.70000000E+00
  1.30000000E+00  1.70000000E+00  1.70000000E+00  1.70000000E+00  1.30000000E+00
  1.70000000E+00  1.30000000E+00  1.30000000E+00  1.30000000E+00  1.70000000E+00
  1.70000000E+00  1.70000000E+00  1.70000000E+00  1.30000000E+00  1.70000000E+00
  1.30000000E+00  1.70000000E+00  1.30000000E+00  1.30000000E+00  1.70000000E+00
  1.30000000E+00  1.30000000E+00  1.70000000E+00  1.30000000E+00  1.30000000E+00
  1.30000000E+00  1.70000000E+00  1.30000000E+00  1.30000000E+00  1.70000000E+00
  1.30000000E+00  1.30000000E+00  1.70000000E+00  1.30000000E+00  1.30000000E+00
  1.70000000E+00  1.30000000E+00  1.30000000E+00  1.30000000E+00  1.30000000E+00
  1.70000000E+00  1.70000000E+00  1.30000000E+00  1.30000000E+00  1.30000000E+00
  1.70000000E+00  1.30000000E+00  1.30000000E+00  1.30000000E+00  1.30000000E+00
  1.80000000E+00  1.70000000E+00  1.70000000E+00  1.70000000E+00  1.70000000E+00
  1.70000000E+00  1.70000000E+00  1.70000000E+00  1.70000000E+00  1.80000000E+00
  1.70000000E+00  1.30000000E+00  1.70000000E+00  1.70000000E+00  1.30000000E+00
  1.70000000E+00  1.70000000E+00  1.70000000E+00  1.30000000E+00  1.70000000E+00
  1.30000000E+00  1.30000000E+00  1.30000000E+00  1.70000000E+00  1.70000000E+00
  1.70000000E+00  1.70000000E+00  1.30000000E+00  1.70000000E+00  1.30000000E+00
  1.70000000E+00  1.30000000E+00  1.30000000E+00  1.70000000E+00  1.30000000E+00
  1.30000000E+00  1.70000000E+00  1.30000000E+00  1.30000000E+00  1.30000000E+00
  1.70000000E+00  1.30000000E+00  1.30000000E+00  1.70000000E+00  1.30000000E+00
  1.30000000E+00  1.70000000E+00  1.30000000E+00  1.30000000E+00  1.70000000E+00
  1.30000000E+00  1.30000000E+00  1.30000000E+00  1.30000000E+00  1.70000000E+00
  1.70000000E+00  1.30000000E+00  1.30000000E+00  1.30000000E+00  1.70000000E+00
  1.30000000E+00  1.30000000E+00  1.30000000E+00  1.30000000E+00  1.80000000E+00
  1.70000000E+00  1.70000000E+00  1.70000000E+00  1.70000000E+00  1.70000000E+00
  1.70000000E+00  1.70000000E+00  1.70000000E+00  1.80000000E+00  1.70000000E+00
  1.30000000E+00  1.70000000E+00  1.70000000E+00  1.30000000E+00  1.70000000E+00
  1.70000000E+00  1.70000000E+00  1.30000000E+00  1.70000000E+00  1.30000000E+00
  1.30000000E+00  1.30000000E+00  1.70000000E+00  1.70000000E+00  1.70000000E+00
  1.70000000E+00  1.30000000E+00  1.70000000E+00  1.30000000E+00  1.70000000E+00
  1.30000000E+00  1.30000000E+00  1.70000000E+00  1.30000000E+00  1.30000000E+00
  1.70000000E+00  1.30000000E+00  1.30000000E+00  1.30000000E+00  1.70000000E+00
  1.30000000E+00  1.30000000E+00  1.70000000E+00  1.30000000E+00  1.30000000E+00
  1.70000000E+00  1.30000000E+00  1.30000000E+00  1.70000000E+00  1.30000000E+00
  1.30000000E+00  1.30000000E+00  1.30000000E+00  1.70000000E+00  1.70000000E+00
  1.30000000E+00  1.30000000E+00  1.30000000E+00  1.70000000E+00  1.30000000E+00
  1.30000000E+00  1.30000000E+00  1.30000000E+00  1.80000000E+00  1.70000000E+00
  1.70000000E+00  1.70000000E+00  1.70000000E+00  1.70000000E+00  1.70000000E+00
  1.70000000E+00  1.70000000E+00  1.80000000E+00  1.70000000E+00  1.30000000E+00
  1.70000000E+00  1.70000000E+00  1.30000000E+00  1.70000000E+00  1.70000000E+00
  1.70000000E+00  1.30000000E+00  1.70000000E+00  1.30000000E+00  1.30000000E+00
  1.30000000E+00  1.70000000E+00  1.70000000E+00  1.70000000E+00  1.70000000E+00
  1.30000000E+00  1.70000000E+00  1.30000000E+00  1.70000000E+00  1.30000000E+00
  1.30000000E+00  1.70000000E+00  1.30000000E+00  1.30000000E+00  1.70000000E+00
  1.30000000E+00  1.30000000E+00  1.30000000E+00  1.70000000E+00  1.30000000E+00
  1.30000000E+00  1.70000000E+00  1.30000000E+00  1.30000000E+00  1.70000000E+00
  1.30000000E+00  1.30000000E+00  1.70000000E+00  1.30000000E+00  1.30000000E+00
  1.30000000E+00  1.30000000E+00  1.70000000E+00  1.70000000E+00  1.30000000E+00
  1.30000000E+00  1.30000000E+00  1.70000000E+00  1.30000000E+00  1.30000000E+00
  1.30000000E+00  1.30000000E+00  1.80000000E+00  1.70000000E+00  1.70000000E+00
  1.70000000E+00  1.70000000E+00  1.70000000E+00  1.70000000E+00  1.70000000E+00
  1.70000000E+00  1.80000000E+00  1.70000000E+00  1.30000000E+00  1.70000000E+00
  1.70000000E+00  1.30000000E+00  1.70000000E+00  1.70000000E+00  1.70000000E+00
  1.30000000E+00  1.70000000E+00  1.30000000E+00  1.30000000E+00  1.30000000E+00
  1.70000000E+00  1.70000000E+00  1.70000000E+00  1.70000000E+00  1.30000000E+00
  1.70000000E+00  1.30000000E+00  1.70000000E+00  1.30000000E+00  1.30000000E+00
  1.70000000E+00  1.30000000E+00  1.30000000E+00  1.70000000E+00  1.30000000E+00
  1.30000000E+00  1.30000000E+00  1.70000000E+00  1.30000000E+00  1.30000000E+00
  1.70000000E+00  1.30000000E+00  1.30000000E+00  1.70000000E+00  1.30000000E+00
  1.30000000E+00  1.70000000E+00  1.30000000E+00  1.30000000E+00  1.30000000E+00
  1.30000000E+00  1.70000000E+00  1.70000000E+00  1.30000000E+00  1.30000000E+00
  1.30000000E+00  1.70000000E+00  1.30000000E+00  1.30000000E+00  1.30000000E+00
  1.30000000E+00  1.80000000E+00  1.70000000E+00  1.70000000E+00  1.70000000E+00
  1.70000000E+00  1.70000000E+00  1.70000000E+00  1.70000000E+00  1.70000000E+00
  1.80000000E+00  1.70000000E+00  1.30000000E+00  1.70000000E+00  1.70000000E+00
  1.30000000E+00  1.70000000E+00  1.70000000E+00  1.70000000E+00  1.30000000E+00
  1.70000000E+00  1.30000000E+00  1.30000000E+00  1.30000000E+00  1.70000000E+00
  1.70000000E+00  1.70000000E+00  1.70000000E+00  1.30000000E+00  1.70000000E+00
  1.30000000E+00  1.70000000E+00  1.30000000E+00  1.30000000E+00  1.70000000E+00
  1.30000000E+00  1.30000000E+00  1.70000000E+00  1.30000000E+00  1.30000000E+00
  1.30000000E+00  1.70000000E+00  1.30000000E+00  1.30000000E+00  1.70000000E+00
  1.30000000E+00  1.30000000E+00  1.70000000E+00  1.30000000E+00  1.30000000E+00
  1.70000000E+00  1.30000000E+00  1.30000000E+00  1.30000000E+00  1.30000000E+00
  1.70000000E+00  1.70000000E+00  1.30000000E+00  1.30000000E+00  1.30000000E+00
  1.70000000E+00  1.30000000E+00  1.30000000E+00  1.30000000E+00  1.30000000E+00
  1.80000000E+00  1.70000000E+00  1.70000000E+00  1.70000000E+00  1.70000000E+00
  1.70000000E+00  1.70000000E+00  1.70000000E+00  1.70000000E+00  1.80000000E+00
  1.70000000E+00  1.30000000E+00  1.70000000E+00  1.70000000E+00  1.30000000E+00
  1.70000000E+00  1.70000000E+00  1.70000000E+00  1.30000000E+00  1.70000000E+00
  1.30000000E+00  1.30000000E+00  1.30000000E+00  1.70000000E+00  1.70000000E+00
  1.70000000E+00  1.70000000E+00  1.30000000E+00  1.70000000E+00  1.30000000E+00
  1.70000000E+00  1.30000000E+00  1.30000000E+00  1.70000000E+00  1.30000000E+00
  1.30000000E+00  1.70000000E+00  1.30000000E+00  1.30000000E+00  1.30000000E+00
  1.70000000E+00  1.30000000E+00  1.30000000E+00  1.70000000E+00  1.30000000E+00
  1.30000000E+00  1.70000000E+00  1.30000000E+00  1.30000000E+00  1.70000000E+00
  1.30000000E+00  1.30000000E+00  1.30000000E+00  1.30000000E+00  1.70000000E+00
  1.70000000E+00  1.30000000E+00  1.30000000E+00  1.30000000E+00  1.70000000E+00
  1.30000000E+00  1.30000000E+00  1.30000000E+00  1.30000000E+00  1.80000000E+00
  1.70000000E+00  1.70000000E+00  1.70000000E+00  1.70000000E+00  1.70000000E+00
  1.70000000E+00  1.70000000E+00  1.70000000E+00  1.80000000E+00  1.70000000E+00
  1.30000000E+00  1.70000000E+00  1.70000000E+00  1.30000000E+00  1.70000000E+00
  1.70000000E+00  1.70000000E+00  1.30000000E+00  1.70000000E+00  1.30000000E+00
  1.30000000E+00  1.30000000E+00  1.70000000E+00  1.70000000E+00  1.70000000E+00
  1.70000000E+00  1.30000000E+00  1.70000000E+00  1.30000000E+00  1.70000000E+00
  1.30000000E+00  1.30000000E+00  1.70000000E+00  1.30000000E+00  1.30000000E+00
  1.70000000E+00  1.30000000E+00  1.30000000E+00  1.30000000E+00  1.70000000E+00
  1.30000000E+00  1.30000000E+00  1.70000000E+00  1.30000000E+00  1.30000000E+00
  1.70000000E+00  1.30000000E+00  1.30000000E+00  1.70000000E+00  1.30000000E+00
  1.30000000E+00  1.30000000E+00  1.30000000E+00  1.70000000E+00  1.70000000E+00
  1.30000000E+00  1.30000000E+00  1.30000000E+00  1.70000000E+00  1.30000000E+00
  1.30000000E+00  1.30000000E+00  1.30000000E+00  1.80000000E+00  1.70000000E+00
  1.70000000E+00  1.70000000E+00  1.70000000E+00  1.70000000E+00  1.70000000E+00
  1.70000000E+00  1.70000000E+00  1.80000000E+00  1.70000000E+00  1.30000000E+00
  1.70000000E+00  1.70000000E+00  1.30000000E+00  1.70000000E+00  1.70000000E+00
  1.70000000E+00  1.30000000E+00  1.70000000E+00  1.30000000E+00  1.30000000E+00
  1.30000000E+00  1.70000000E+00  1.70000000E+00  1.70000000E+00  1.70000000E+00
  1.30000000E+00  1.70000000E+00  1.30000000E+00  1.70000000E+00  1.30000000E+00
  1.30000000E+00  1.70000000E+00  1.30000000E+00  1.30000000E+00  1.70000000E+00
  1.30000000E+00  1.30000000E+00  1.30000000E+00  1.70000000E+00  1.30000000E+00
  1.30000000E+00  1.70000000E+00  1.30000000E+00  1.30000000E+00  1.70000000E+00
  1.30000000E+00  1.30000000E+00  1.70000000E+00  1.30000000E+00  1.30000000E+00
  1.30000000E+00  1.30000000E+00  1.70000000E+00  1.70000000E+00  1.30000000E+00
  1.30000000E+00  1.30000000E+00  1.70000000E+00  1.30000000E+00  1.30000000E+00
  1.30000000E+00  1.30000000E+00  1.80000000E+00  1.70000000E+00  1.70000000E+00
  1.70000000E+00  1.70000000E+00  1.70000000E+00  1.70000000E+00  1.70000000E+00
  1.70000000E+00  1.80000000E+00  1.70000000E+00  1.30000000E+00  1.70000000E+00
  1.70000000E+00  1.30000000E+00  1.70000000E+00  1.70000000E+00  1.70000000E+00
  1.30000000E+00  1.70000000E+00  1.30000000E+00  1.30000000E+00  1.30000000E+00
  1.70000000E+00  1.70000000E+00  1.70000000E+00  1.70000000E+00  1.30000000E+00
  1.70000000E+00  1.30000000E+00  1.70000000E+00  1.30000000E+00  1.30000000E+00
  1.70000000E+00  1.30000000E+00  1.30000000E+00  1.70000000E+00  1.30000000E+00
  1.30000000E+00  1.30000000E+00  1.70000000E+00  1.30000000E+00  1.30000000E+00
  1.70000000E+00  1.30000000E+00  1.30000000E+00  1.70000000E+00  1.30000000E+00
  1.30000000E+00  1.70000000E+00  1.30000000E+00  1.30000000E+00  1.30000000E+00
  1.30000000E+00  1.70000000E+00  1.70000000E+00  1.30000000E+00  1.30000000E+00
  1.30000000E+00  1.70000000E+00  1.30000000E+00  1.30000000E+00  1.30000000E+00
  1.30000000E+00  1.80000000E+00  1.70000000E+00  1.70000000E+00  1.70000000E+00
  1.70000000E+00  1.70000000E+00  1.70000000E+00  1.70000000E+00  1.70000000E+00
  1.80000000E+00  1.70000000E+00  1.30000000E+00  1.70000000E+00  1.70000000E+00
  1.30000000E+00  1.70000000E+00  1.70000000E+00  1.70000000E+00  1.30000000E+00
  1.70000000E+00  1.30000000E+00  1.30000000E+00  1.30000000E+00  1.70000000E+00
  1.70000000E+00  1.70000000E+00  1.70000000E+00  1.30000000E+00  1.70000000E+00
  1.30000000E+00  1.70000000E+00  1.30000000E+00  1.30000000E+00  1.70000000E+00
  1.30000000E+00  1.30000000E+00  1.70000000E+00  1.30000000E+00  1.30000000E+00
  1.30000000E+00  1.70000000E+00  1.30000000E+00  1.30000000E+00  1.70000000E+00
  1.30000000E+00  1.30000000E+00  1.70000000E+00  1.30000000E+00  1.30000000E+00
  1.70000000E+00  1.30000000E+00  1.30000000E+00  1.30000000E+00  1.30000000E+00
  1.70000000E+00  1.70000000E+00  1.30000000E+00  1.30000000E+00  1.30000000E+00
  1.70000000E+00  1.30000000E+00  1.30000000E+00  1.30000000E+00  1.30000000E+00
  1.80000000E+00  1.70000000E+00  1.70000000E+00  1.70000000E+00  1.70000000E+00
  1.70000000E+00  1.70000000E+00  1.70000000E+00  1.70000000E+00  1.80000000E+00
  1.70000000E+00  1.30000000E+00  1.70000000E+00  1.70000000E+00  1.30000000E+00
  1.70000000E+00  1.70000000E+00  1.70000000E+00  1.30000000E+00  1.70000000E+00
  1.30000000E+00  1.30000000E+00  1.30000000E+00  1.70000000E+00  1.70000000E+00
  1.70000000E+00  1.70000000E+00  1.30000000E+00  1.70000000E+00  1.30000000E+00
  1.70000000E+00  1.30000000E+00  1.30000000E+00  1.70000000E+00  1.30000000E+00
  1.30000000E+00  1.70000000E+00  1.30000000E+00  1.30000000E+00  1.30000000E+00
  1.70000000E+00  1.30000000E+00  1.30000000E+00  1.70000000E+00  1.30000000E+00
  1.30000000E+00  1.70000000E+00  1.30000000E+00  1.30000000E+00  1.70000000E+00
  1.30000000E+00  1.30000000E+00  1.30000000E+00  1.30000000E+00  1.70000000E+00
  1.70000000E+00  1.30000000E+00  1.30000000E+00  1.30000000E+00  1.70000000E+00
  1.30000000E+00  1.30000000E+00  1.30000000E+00  1.30000000E+00  1.80000000E+00
  1.70000000E+00  1.70000000E+00  1.70000000E+00  1.70000000E+00  1.70000000E+00
  1.70000000E+00  1.70000000E+00  1.70000000E+00  1.80000000E+00  1.70000000E+00
  1.30000000E+00  1.70000000E+00  1.70000000E+00  1.30000000E+00  1.70000000E+00
  1.70000000E+00  1.70000000E+00  1.30000000E+00  1.70000000E+00  1.30000000E+00
  1.30000000E+00  1.30000000E+00  1.70000000E+00  1.70000000E+00  1.70000000E+00
  1.70000000E+00  1.30000000E+00  1.70000000E+00  1.30000000E+00  1.70000000E+00
  1.30000000E+00  1.30000000E+00  1.70000000E+00  1.30000000E+00  1.30000000E+00
  1.70000000E+00  1.30000000E+00  1.30000000E+00  1.30000000E+00  1.70000000E+00
  1.30000000E+00  1.30000000E+00  1.70000000E+00  1.30000000E+00  1.30000000E+00
  1.70000000E+00  1.30000000E+00  1.30000000E+00  1.70000000E+00  1.30000000E+00
  1.30000000E+00  1.30000000E+00  1.30000000E+00  1.70000000E+00  1.70000000E+00
  1.30000000E+00  1.30000000E+00  1.30000000E+00  1.70000000E+00  1.30000000E+00
  1.30000000E+00  1.30000000E+00  1.30000000E+00  1.80000000E+00  1.70000000E+00
  1.70000000E+00  1.70000000E+00  1.70000000E+00  1.70000000E+00  1.70000000E+00
  1.70000000E+00  1.70000000E+00  1.80000000E+00  1.70000000E+00  1.30000000E+00
  1.70000000E+00  1.70000000E+00  1.30000000E+00  1.70000000E+00  1.70000000E+00
  1.70000000E+00  1.30000000E+00  1.70000000E+00  1.30000000E+00  1.30000000E+00
  1.30000000E+00  1.70000000E+00  1.70000000E+00  1.70000000E+00  1.70000000E+00
  1.30000000E+00  1.70000000E+00  1.30000000E+00  1.70000000E+00  1.30000000E+00
  1.30000000E+00  1.70000000E+00  1.30000000E+00  1.30000000E+00  1.70000000E+00
  1.30000000E+00  1.30000000E+00  1.30000000E+00  1.70000000E+00  1.30000000E+00
  1.30000000E+00  1.70000000E+00  1.30000000E+00  1.30000000E+00  1.70000000E+00
  1.30000000E+00  1.30000000E+00  1.70000000E+00  1.30000000E+00  1.30000000E+00
  1.30000000E+00  1.30000000E+00  1.70000000E+00  1.70000000E+00  1.30000000E+00
  1.30000000E+00  1.30000000E+00  1.70000000E+00  1.30000000E+00  1.30000000E+00
  1.30000000E+00  1.30000000E+00  1.80000000E+00  1.70000000E+00  1.70000000E+00
  1.70000000E+00  1.70000000E+00  1.70000000E+00  1.70000000E+00  1.70000000E+00
  1.70000000E+00  1.80000000E+00  1.70000000E+00  1.30000000E+00  1.70000000E+00
  1.70000000E+00  1.30000000E+00  1.70000000E+00  1.70000000E+00  1.70000000E+00
  1.30000000E+00  1.70000000E+00  1.30000000E+00  1.30000000E+00  1.30000000E+00
  1.70000000E+00  1.70000000E+00  1.70000000E+00  1.70000000E+00  1.30000000E+00
  1.70000000E+00  1.30000000E+00  1.70000000E+00  1.30000000E+00  1.30000000E+00
  1.70000000E+00  1.30000000E+00  1.30000000E+00  1.70000000E+00  1.30000000E+00
  1.30000000E+00  1.30000000E+00  1.70000000E+00  1.30000000E+00  1.30000000E+00
  1.70000000E+00  1.30000000E+00  1.30000000E+00  1.70000000E+00  1.30000000E+00
  1.30000000E+00  1.70000000E+00  1.30000000E+00  1.30000000E+00  1.30000000E+00
  1.30000000E+00  1.70000000E+00  1.70000000E+00  1.30000000E+00  1.30000000E+00
  1.30000000E+00  1.70000000E+00  1.30000000E+00  1.30000000E+00  1.30000000E+00
  1.30000000E+00  1.80000000E+00  1.70000000E+00  1.70000000E+00  1.70000000E+00
  1.70000000E+00  1.70000000E+00  1.70000000E+00  1.70000000E+00  1.70000000E+00
  1.80000000E+00  1.70000000E+00  1.30000000E+00  1.70000000E+00  1.70000000E+00
  1.30000000E+00  1.70000000E+00  1.70000000E+00  1.70000000E+00  1.30000000E+00
  1.70000000E+00  1.30000000E+00  1.30000000E+00  1.30000000E+00  1.70000000E+00
  1.70000000E+00  1.70000000E+00  1.70000000E+00  1.30000000E+00  1.70000000E+00
  1.30000000E+00  1.70000000E+00  1.30000000E+00  1.30000000E+00  1.70000000E+00
  1.30000000E+00  1.30000000E+00  1.70000000E+00  1.30000000E+00  1.30000000E+00
  1.30000000E+00  1.70000000E+00  1.30000000E+00  1.30000000E+00  1.70000000E+00
  1.30000000E+00  1.30000000E+00  1.70000000E+00  1.30000000E+00  1.30000000E+00
  1.70000000E+00  1.30000000E+00  1.30000000E+00  1.30000000E+00  1.30000000E+00
  1.70000000E+00  1.70000000E+00  1.30000000E+00  1.30000000E+00  1.30000000E+00
  1.70000000E+00  1.30000000E+00  1.30000000E+00  1.30000000E+00  1.30000000E+00
  1.80000000E+00  1.70000000E+00  1.70000000E+00  1.70000000E+00  1.70000000E+00
  1.70000000E+00  1.70000000E+00  1.70000000E+00  1.70000000E+00  1.80000000E+00
  1.70000000E+00  1.30000000E+00  1.70000000E+00  1.70000000E+00  1.30000000E+00
  1.70000000E+00  1.70000000E+00  1.70000000E+00  1.30000000E+00  1.70000000E+00
  1.30000000E+00  1.30000000E+00  1.30000000E+00  1.70000000E+00  1.70000000E+00
  1.70000000E+00  1.70000000E+00  1.30000000E+00  1.70000000E+00  1.30000000E+00
  1.70000000E+00  1.30000000E+00  1.30000000E+00  1.70000000E+00  1.30000000E+00
  1.30000000E+00  1.70000000E+00  1.30000000E+00  1.30000000E+00  1.30000000E+00
  1.70000000E+00  1.30000000E+00  1.30000000E+00  1.70000000E+00  1.30000000E+00
  1.30000000E+00  1.70000000E+00  1.30000000E+00  1.30000000E+00  1.70000000E+00
  1.30000000E+00  1.30000000E+00  1.30000000E+00  1.30000000E+00  1.70000000E+00
  1.70000000E+00  1.30000000E+00  1.30000000E+00  1.30000000E+00  1.70000000E+00
  1.30000000E+00  1.30000000E+00  1.30000000E+00  1.30000000E+00  1.80000000E+00
  1.70000000E+00  1.70000000E+00  1.70000000E+00  1.70000000E+00  1.70000000E+00
  1.70000000E+00  1.70000000E+00  1.70000000E+00  1.80000000E+00  1.70000000E+00
  1.30000000E+00  1.70000000E+00  1.70000000E+00  1.30000000E+00  1.70000000E+00
  1.70000000E+00  1.70000000E+00  1.30000000E+00  1.70000000E+00  1.30000000E+00
  1.30000000E+00  1.30000000E+00  1.70000000E+00  1.70000000E+00  1.70000000E+00
  1.70000000E+00  1.30000000E+00  1.70000000E+00  1.30000000E+00  1.70000000E+00
  1.30000000E+00  1.30000000E+00  1.70000000E+00  1.30000000E+00  1.30000000E+00
  1.70000000E+00  1.30000000E+00  1.30000000E+00  1.30000000E+00  1.70000000E+00
  1.30000000E+00  1.30000000E+00  1.70000000E+00  1.30000000E+00  1.30000000E+00
  1.70000000E+00  1.30000000E+00  1.30000000E+00  1.70000000E+00  1.30000000E+00
  1.30000000E+00  1.30000000E+00  1.30000000E+00  1.70000000E+00  1.70000000E+00
  1.30000000E+00  1.30000000E+00  1.30000000E+00  1.70000000E+00  1.30000000E+00
  1.30000000E+00  1.30000000E+00  1.30000000E+00  1.80000000E+00  1.70000000E+00
  1.70000000E+00  1.70000000E+00  1.70000000E+00  1.70000000E+00  1.70000000E+00
  1.70000000E+00  1.70000000E+00  1.80000000E+00  1.70000000E+00  1.30000000E+00
  1.70000000E+00  1.70000000E+00  1.30000000E+00  1.70000000E+00  1.70000000E+00
  1.70000000E+00  1.30000000E+00  1.70000000E+00  1.30000000E+00  1.30000000E+00
  1.30000000E+00  1.70000000E+00  1.70000000E+00  1.70000000E+00  1.70000000E+00
  1.30000000E+00  1.70000000E+00  1.30000000E+00  1.70000000E+00  1.30000000E+00
  1.30000000E+00  1.70000000E+00  1.30000000E+00  1.30000000E+00  1.70000000E+00
  1.30000000E+00  1.30000000E+00  1.30000000E+00  1.70000000E+00  1.30000000E+00
  1.30000000E+00  1.70000000E+00  1.30000000E+00  1.30000000E+00  1.70000000E+00
  1.30000000E+00  1.30000000E+00  1.70000000E+00  1.30000000E+00  1.30000000E+00
  1.30000000E+00  1.30000000E+00  1.70000000E+00  1.70000000E+00  1.30000000E+00
  1.30000000E+00  1.30000000E+00  1.70000000E+00  1.30000000E+00  1.30000000E+00
  1.30000000E+00  1.30000000E+00  1.80000000E+00  1.70000000E+00  1.70000000E+00
  1.70000000E+00  1.70000000E+00  1.70000000E+00  1.70000000E+00  1.70000000E+00
  1.70000000E+00  1.80000000E+00  1.70000000E+00  1.30000000E+00  1.70000000E+00
  1.70000000E+00  1.30000000E+00  1.70000000E+00  1.70000000E+00  1.70000000E+00
  1.30000000E+00  1.70000000E+00  1.30000000E+00  1.30000000E+00  1.30000000E+00
  1.70000000E+00  1.70000000E+00  1.70000000E+00  1.70000000E+00  1.30000000E+00
  1.70000000E+00  1.30000000E+00  1.70000000E+00  1.30000000E+00  1.30000000E+00
  1.70000000E+00  1.30000000E+00  1.30000000E+00  1.70000000E+00  1.30000000E+00
  1.30000000E+00  1.30000000E+00  1.70000000E+00  1.30000000E+00  1.30000000E+00
  1.70000000E+00  1.30000000E+00  1.30000000E+00  1.70000000E+00  1.30000000E+00
  1.30000000E+00  1.70000000E+00  1.30000000E+00  1.30000000E+00  1.30000000E+00
  1.30000000E+00  1.70000000E+00  1.70000000E+00  1.30000000E+00  1.30000000E+00
  1.30000000E+00  1.70000000E+00  1.30000000E+00  1.30000000E+00  1.30000000E+00
  1.30000000E+00  1.80000000E+00  1.70000000E+00  1.70000000E+00  1.70000000E+00
  1.70000000E+00  1.70000000E+00  1.70000000E+00  1.70000000E+00  1.70000000E+00
  1.80000000E+00  1.70000000E+00  1.30000000E+00  1.70000000E+00  1.70000000E+00
  1.30000000E+00  1.70000000E+00  1.70000000E+00  1.70000000E+00  1.30000000E+00
  1.70000000E+00  1.30000000E+00  1.30000000E+00  1.30000000E+00  1.70000000E+00
  1.70000000E+00  1.70000000E+00  1.70000000E+00  1.30000000E+00  1.70000000E+00
  1.30000000E+00  1.70000000E+00  1.30000000E+00  1.30000000E+00  1.70000000E+00
  1.30000000E+00  1.30000000E+00  1.70000000E+00  1.30000000E+00  1.30000000E+00
  1.30000000E+00  1.70000000E+00  1.30000000E+00  1.30000000E+00  1.70000000E+00
  1.30000000E+00  1.30000000E+00  1.70000000E+00  1.30000000E+00  1.30000000E+00
  1.70000000E+00  1.30000000E+00  1.30000000E+00  1.30000000E+00  1.30000000E+00
  1.70000000E+00  1.70000000E+00  1.30000000E+00  1.30000000E+00  1.30000000E+00
  1.70000000E+00  1.30000000E+00  1.30000000E+00  1.30000000E+00  1.30000000E+00
  1.80000000E+00  1.70000000E+00  1.70000000E+00  1.70000000E+00  1.70000000E+00
  1.70000000E+00  1.70000000E+00  1.70000000E+00  1.70000000E+00  1.80000000E+00
  1.70000000E+00  1.30000000E+00  1.70000000E+00  1.70000000E+00  1.30000000E+00
  1.70000000E+00  1.70000000E+00  1.70000000E+00  1.30000000E+00  1.70000000E+00
  1.30000000E+00  1.30000000E+00  1.30000000E+00  1.70000000E+00  1.70000000E+00
  1.70000000E+00  1.70000000E+00  1.30000000E+00  1.70000000E+00  1.30000000E+00
  1.70000000E+00  1.30000000E+00  1.30000000E+00  1.70000000E+00  1.30000000E+00
  1.30000000E+00  1.70000000E+00  1.30000000E+00  1.30000000E+00  1.30000000E+00
  1.70000000E+00  1.30000000E+00  1.30000000E+00  1.70000000E+00  1.30000000E+00
  1.30000000E+00  1.70000000E+00  1.30000000E+00  1.30000000E+00  1.70000000E+00
  1.30000000E+00  1.30000000E+00  1.30000000E+00  1.30000000E+00  1.70000000E+00
  1.70000000E+00  1.30000000E+00  1.30000000E+00  1.30000000E+00  1.70000000E+00
  1.30000000E+00  1.30000000E+00  1.30000000E+00  1.30000000E+00  1.80000000E+00
  1.70000000E+00  1.70000000E+00  1.70000000E+00  1.70000000E+00  1.70000000E+00
  1.70000000E+00  1.70000000E+00  1.70000000E+00  1.80000000E+00  1.70000000E+00
  1.30000000E+00  1.70000000E+00  1.70000000E+00  1.30000000E+00  1.70000000E+00
  1.70000000E+00  1.70000000E+00  1.30000000E+00  1.70000000E+00  1.30000000E+00
  1.30000000E+00  1.30000000E+00  1.70000000E+00  1.70000000E+00  1.70000000E+00
  1.70000000E+00  1.30000000E+00  1.70000000E+00  1.30000000E+00  1.70000000E+00
  1.30000000E+00  1.30000000E+00  1.70000000E+00  1.30000000E+00  1.30000000E+00
  1.70000000E+00  1.30000000E+00  1.30000000E+00  1.30000000E+00  1.70000000E+00
  1.30000000E+00  1.30000000E+00  1.70000000E+00  1.30000000E+00  1.30000000E+00
  1.70000000E+00  1.30000000E+00  1.30000000E+00  1.70000000E+00  1.30000000E+00
  1.30000000E+00  1.30000000E+00  1.30000000E+00  1.70000000E+00  1.70000000E+00
  1.30000000E+00  1.30000000E+00  1.30000000E+00  1.70000000E+00  1.30000000E+00
  1.30000000E+00  1.30000000E+00  1.30000000E+00  1.80000000E+00  1.70000000E+00
  1.70000000E+00  1.70000000E+00  1.70000000E+00  1.70000000E+00  1.70000000E+00
  1.70000000E+00  1.70000000E+00  1.80000000E+00  1.70000000E+00  1.30000000E+00
  1.70000000E+00  1.70000000E+00  1.30000000E+00  1.70000000E+00  1.70000000E+00
  1.70000000E+00  1.30000000E+00  1.70000000E+00  1.30000000E+00  1.30000000E+00
  1.30000000E+00  1.70000000E+00  1.70000000E+00  1.70000000E+00  1.70000000E+00
  1.30000000E+00  1.70000000E+00  1.30000000E+00  1.70000000E+00  1.30000000E+00
  1.30000000E+00  1.70000000E+00  1.30000000E+00  1.30000000E+00  1.70000000E+00
  1.30000000E+00  1.30000000E+00  1.30000000E+00  1.70000000E+00  1.30000000E+00
  1.30000000E+00  1.70000000E+00  1.30000000E+00  1.30000000E+00  1.70000000E+00
  1.30000000E+00  1.30000000E+00  1.70000000E+00  1.30000000E+00  1.30000000E+00
  1.30000000E+00  1.30000000E+00  1.70000000E+00  1.70000000E+00  1.30000000E+00
  1.30000000E+00  1.30000000E+00  1.70000000E+00  1.30000000E+00  1.30000000E+00
  1.30000000E+00  1.30000000E+00  1.80000000E+00  1.70000000E+00  1.70000000E+00
  1.70000000E+00  1.70000000E+00  1.70000000E+00  1.70000000E+00  1.70000000E+00
  1.70000000E+00  1.80000000E+00  1.70000000E+00  1.30000000E+00  1.70000000E+00
  1.70000000E+00  1.30000000E+00  1.70000000E+00  1.70000000E+00  1.70000000E+00
  1.30000000E+00  1.70000000E+00  1.30000000E+00  1.30000000E+00  1.30000000E+00
  1.70000000E+00  1.70000000E+00  1.70000000E+00  1.70000000E+00  1.30000000E+00
  1.70000000E+00  1.30000000E+00  1.70000000E+00  1.30000000E+00  1.30000000E+00
  1.70000000E+00  1.30000000E+00  1.30000000E+00  1.70000000E+00  1.30000000E+00
  1.30000000E+00  1.30000000E+00  1.70000000E+00  1.30000000E+00  1.30000000E+00
  1.70000000E+00  1.30000000E+00  1.30000000E+00  1.70000000E+00  1.30000000E+00
  1.30000000E+00  1.70000000E+00  1.30000000E+00  1.30000000E+00  1.30000000E+00
  1.30000000E+00  1.70000000E+00  1.70000000E+00  1.30000000E+00  1.30000000E+00
  1.30000000E+00  1.70000000E+00  1.30000000E+00  1.30000000E+00  1.30000000E+00
  1.30000000E+00  1.80000000E+00  1.70000000E+00  1.70000000E+00  1.70000000E+00
  1.70000000E+00  1.70000000E+00  1.70000000E+00  1.70000000E+00  1.70000000E+00
  1.80000000E+00  1.70000000E+00  1.30000000E+00  1.70000000E+00  1.70000000E+00
  1.30000000E+00  1.70000000E+00  1.70000000E+00  1.70000000E+00  1.30000000E+00
  1.70000000E+00  1.30000000E+00  1.30000000E+00  1.30000000E+00  1.70000000E+00
  1.70000000E+00  1.70000000E+00  1.70000000E+00  1.30000000E+00  1.70000000E+00
  1.30000000E+00  1.70000000E+00  1.30000000E+00  1.30000000E+00  1.70000000E+00
  1.30000000E+00  1.30000000E+00  1.70000000E+00  1.30000000E+00  1.30000000E+00
  1.30000000E+00  1.70000000E+00  1.30000000E+00  1.30000000E+00  1.70000000E+00
  1.30000000E+00  1.30000000E+00  1.70000000E+00  1.30000000E+00  1.30000000E+00
  1.70000000E+00  1.30000000E+00  1.30000000E+00  1.30000000E+00  1.30000000E+00
  1.70000000E+00  1.70000000E+00  1.30000000E+00  1.30000000E+00  1.30000000E+00
  1.70000000E+00  1.30000000E+00  1.30000000E+00  1.30000000E+00  1.30000000E+00
  1.80000000E+00  1.70000000E+00  1.70000000E+00  1.70000000E+00  1.70000000E+00
  1.70000000E+00  1.70000000E+00  1.70000000E+00  1.70000000E+00  1.80000000E+00
  1.70000000E+00  1.30000000E+00  1.70000000E+00  1.70000000E+00  1.30000000E+00
  1.70000000E+00  1.70000000E+00  1.70000000E+00  1.30000000E+00  1.70000000E+00
  1.30000000E+00  1.30000000E+00  1.30000000E+00  1.70000000E+00  1.70000000E+00
  1.70000000E+00  1.70000000E+00  1.30000000E+00  1.70000000E+00  1.30000000E+00
  1.70000000E+00  1.30000000E+00  1.30000000E+00  1.70000000E+00  1.30000000E+00
  1.30000000E+00  1.70000000E+00  1.30000000E+00  1.30000000E+00  1.30000000E+00
  1.70000000E+00  1.30000000E+00  1.30000000E+00  1.70000000E+00  1.30000000E+00
  1.30000000E+00  1.70000000E+00  1.30000000E+00  1.30000000E+00  1.70000000E+00
  1.30000000E+00  1.30000000E+00  1.30000000E+00  1.30000000E+00  1.70000000E+00
  1.70000000E+00  1.30000000E+00  1.30000000E+00  1.30000000E+00  1.70000000E+00
  1.30000000E+00  1.30000000E+00  1.30000000E+00  1.30000000E+00  1.80000000E+00
  1.70000000E+00  1.70000000E+00  1.70000000E+00  1.70000000E+00  1.70000000E+00
  1.70000000E+00  1.70000000E+00  1.70000000E+00  1.80000000E+00  1.70000000E+00
  1.30000000E+00  1.70000000E+00  1.70000000E+00  1.30000000E+00  1.70000000E+00
  1.70000000E+00  1.70000000E+00  1.30000000E+00  1.70000000E+00  1.30000000E+00
  1.30000000E+00  1.30000000E+00  1.70000000E+00  1.70000000E+00  1.70000000E+00
  1.70000000E+00  1.30000000E+00  1.70000000E+00  1.30000000E+00  1.70000000E+00
  1.30000000E+00  1.30000000E+00  1.70000000E+00  1.30000000E+00  1.30000000E+00
  1.70000000E+00  1.30000000E+00  1.30000000E+00  1.30000000E+00  1.70000000E+00
  1.30000000E+00  1.30000000E+00  1.70000000E+00  1.30000000E+00  1.30000000E+00
  1.70000000E+00  1.30000000E+00  1.30000000E+00  1.70000000E+00  1.30000000E+00
  1.30000000E+00  1.30000000E+00  1.30000000E+00  1.70000000E+00  1.70000000E+00
  1.30000000E+00  1.30000000E+00  1.30000000E+00  1.70000000E+00  1.30000000E+00
  1.30000000E+00  1.30000000E+00  1.30000000E+00  1.80000000E+00  1.70000000E+00
  1.70000000E+00  1.70000000E+00  1.70000000E+00  1.70000000E+00  1.70000000E+00
  1.70000000E+00  1.70000000E+00  1.80000000E+00  1.70000000E+00  1.30000000E+00
  1.70000000E+00  1.70000000E+00  1.30000000E+00  1.70000000E+00  1.70000000E+00
  1.70000000E+00  1.30000000E+00  1.70000000E+00  1.30000000E+00  1.30000000E+00
  1.30000000E+00  1.70000000E+00  1.70000000E+00  1.70000000E+00  1.70000000E+00
  1.30000000E+00  1.70000000E+00  1.30000000E+00  1.70000000E+00  1.30000000E+00
  1.30000000E+00  1.70000000E+00  1.30000000E+00  1.30000000E+00  1.70000000E+00
  1.30000000E+00  1.30000000E+00  1.30000000E+00  1.70000000E+00  1.30000000E+00
  1.30000000E+00  1.70000000E+00  1.30000000E+00  1.30000000E+00  1.70000000E+00
  1.30000000E+00  1.30000000E+00  1.70000000E+00  1.30000000E+00  1.30000000E+00
  1.30000000E+00  1.30000000E+00  1.70000000E+00  1.70000000E+00  1.30000000E+00
  1.30000000E+00  1.30000000E+00  1.70000000E+00  1.30000000E+00  1.30000000E+00
  1.30000000E+00  1.30000000E+00  1.80000000E+00  1.70000000E+00  1.70000000E+00
  1.70000000E+00  1.70000000E+00  1.70000000E+00  1.70000000E+00  1.70000000E+00
  1.70000000E+00  1.80000000E+00  1.70000000E+00  1.30000000E+00  1.70000000E+00
  1.70000000E+00  1.30000000E+00  1.70000000E+00  1.70000000E+00  1.70000000E+00
  1.30000000E+00  1.70000000E+00  1.30000000E+00  1.30000000E+00  1.30000000E+00
  1.70000000E+00  1.70000000E+00  1.70000000E+00  1.70000000E+00  1.30000000E+00
  1.70000000E+00  1.30000000E+00  1.70000000E+00  1.30000000E+00  1.30000000E+00
  1.70000000E+00  1.30000000E+00  1.30000000E+00  1.70000000E+00  1.30000000E+00
  1.30000000E+00  1.30000000E+00  1.70000000E+00  1.30000000E+00  1.30000000E+00
  1.70000000E+00  1.30000000E+00  1.30000000E+00  1.70000000E+00  1.30000000E+00
  1.30000000E+00  1.70000000E+00  1.30000000E+00  1.30000000E+00  1.30000000E+00
  1.30000000E+00  1.70000000E+00  1.70000000E+00  1.30000000E+00  1.30000000E+00
  1.30000000E+00  1.70000000E+00  1.30000000E+00  1.30000000E+00  1.30000000E+00
  1.30000000E+00  1.80000000E+00  1.70000000E+00  1.70000000E+00  1.70000000E+00
  1.70000000E+00  1.70000000E+00  1.70000000E+00  1.70000000E+00  1.70000000E+00
  1.80000000E+00  1.70000000E+00  1.30000000E+00  1.70000000E+00  1.70000000E+00
  1.30000000E+00  1.70000000E+00  1.70000000E+00  1.70000000E+00  1.30000000E+00
  1.70000000E+00  1.30000000E+00  1.30000000E+00  1.30000000E+00  1.70000000E+00
  1.70000000E+00  1.70000000E+00  1.70000000E+00  1.30000000E+00  1.70000000E+00
  1.30000000E+00  1.70000000E+00  1.30000000E+00  1.30000000E+00  1.70000000E+00
  1.30000000E+00  1.30000000E+00  1.70000000E+00  1.30000000E+00  1.30000000E+00
  1.30000000E+00  1.70000000E+00  1.30000000E+00  1.30000000E+00  1.70000000E+00
  1.30000000E+00  1.30000000E+00  1.70000000E+00  1.30000000E+00  1.30000000E+00
  1.70000000E+00  1.30000000E+00  1.30000000E+00  1.30000000E+00  1.30000000E+00
  1.70000000E+00  1.70000000E+00  1.30000000E+00  1.30000000E+00  1.30000000E+00
  1.70000000E+00  1.30000000E+00  1.30000000E+00  1.30000000E+00  1.30000000E+00
  1.80000000E+00  1.70000000E+00  1.70000000E+00  1.70000000E+00  1.70000000E+00
  1.70000000E+00  1.70000000E+00  1.70000000E+00  1.70000000E+00  1.80000000E+00
  1.70000000E+00  1.30000000E+00  1.70000000E+00  1.70000000E+00  1.30000000E+00
  1.70000000E+00  1.70000000E+00  1.70000000E+00  1.30000000E+00  1.70000000E+00
  1.30000000E+00  1.30000000E+00  1.30000000E+00  1.70000000E+00  1.70000000E+00
  1.70000000E+00  1.70000000E+00  1.30000000E+00  1.70000000E+00  1.30000000E+00
  1.70000000E+00  1.30000000E+00  1.30000000E+00  1.70000000E+00  1.30000000E+00
  1.30000000E+00  1.70000000E+00  1.30000000E+00  1.30000000E+00  1.30000000E+00
  1.70000000E+00  1.30000000E+00  1.30000000E+00  1.70000000E+00  1.30000000E+00
  1.30000000E+00  1.70000000E+00  1.30000000E+00  1.30000000E+00  1.70000000E+00
  1.30000000E+00  1.30000000E+00  1.30000000E+00  1.30000000E+00  1.70000000E+00
  1.70000000E+00  1.30000000E+00  1.30000000E+00  1.30000000E+00  1.70000000E+00
  1.30000000E+00  1.30000000E+00  1.30000000E+00  1.30000000E+00  1.80000000E+00
  1.70000000E+00  1.70000000E+00  1.70000000E+00  1.70000000E+00  1.70000000E+00
  1.70000000E+00  1.70000000E+00  1.70000000E+00  1.80000000E+00  1.70000000E+00
  1.30000000E+00  1.70000000E+00  1.70000000E+00  1.30000000E+00  1.70000000E+00
  1.70000000E+00  1.70000000E+00  1.30000000E+00  1.70000000E+00  1.30000000E+00
  1.30000000E+00  1.30000000E+00  1.70000000E+00  1.70000000E+00  1.70000000E+00
  1.70000000E+00  1.30000000E+00  1.70000000E+00  1.30000000E+00  1.70000000E+00
  1.30000000E+00  1.30000000E+00  1.70000000E+00  1.30000000E+00  1.30000000E+00
  1.70000000E+00  1.30000000E+00  1.30000000E+00  1.30000000E+00  1.70000000E+00
  1.30000000E+00  1.30000000E+00  1.70000000E+00  1.30000000E+00  1.30000000E+00
  1.70000000E+00  1.30000000E+00  1.30000000E+00  1.70000000E+00  1.30000000E+00
  1.30000000E+00  1.30000000E+00  1.30000000E+00  1.70000000E+00  1.70000000E+00
  1.30000000E+00  1.30000000E+00  1.30000000E+00  1.70000000E+00  1.30000000E+00
  1.30000000E+00  1.30000000E+00  1.30000000E+00  1.80000000E+00  1.70000000E+00
  1.70000000E+00  1.70000000E+00  1.70000000E+00  1.70000000E+00  1.70000000E+00
  1.70000000E+00  1.70000000E+00  1.80000000E+00  1.70000000E+00  1.30000000E+00
  1.70000000E+00  1.70000000E+00  1.30000000E+00  1.70000000E+00  1.70000000E+00
  1.70000000E+00  1.30000000E+00  1.70000000E+00  1.30000000E+00  1.30000000E+00
  1.30000000E+00  1.70000000E+00  1.70000000E+00  1.70000000E+00  1.70000000E+00
  1.30000000E+00  1.70000000E+00  1.30000000E+00  1.70000000E+00  1.30000000E+00
  1.30000000E+00  1.70000000E+00  1.30000000E+00  1.30000000E+00  1.70000000E+00
  1.30000000E+00  1.30000000E+00  1.30000000E+00  1.70000000E+00  1.30000000E+00
  1.30000000E+00  1.70000000E+00  1.30000000E+00  1.30000000E+00  1.70000000E+00
  1.30000000E+00  1.30000000E+00  1.70000000E+00  1.30000000E+00  1.30000000E+00
  1.30000000E+00  1.30000000E+00  1.70000000E+00  1.70000000E+00  1.30000000E+00
  1.30000000E+00  1.30000000E+00  1.70000000E+00  1.30000000E+00  1.30000000E+00
  1.30000000E+00  1.30000000E+00  1.80000000E+00  1.70000000E+00  1.70000000E+00
  1.70000000E+00  1.70000000E+00  1.70000000E+00  1.70000000E+00  1.70000000E+00
  1.70000000E+00  1.80000000E+00  1.70000000E+00  1.30000000E+00  1.70000000E+00
  1.70000000E+00  1.30000000E+00  1.70000000E+00  1.70000000E+00  1.70000000E+00
  1.30000000E+00  1.70000000E+00  1.30000000E+00  1.30000000E+00  1.30000000E+00
  1.70000000E+00  1.70000000E+00  1.70000000E+00  1.70000000E+00  1.30000000E+00
  1.70000000E+00  1.30000000E+00  1.70000000E+00  1.30000000E+00  1.30000000E+00
  1.70000000E+00  1.30000000E+00  1.30000000E+00  1.70000000E+00  1.30000000E+00
  1.30000000E+00  1.30000000E+00  1.70000000E+00  1.30000000E+00  1.30000000E+00
  1.70000000E+00  1.30000000E+00  1.30000000E+00  1.70000000E+00  1.30000000E+00
  1.30000000E+00  1.70000000E+00  1.30000000E+00  1.30000000E+00  1.30000000E+00
  1.30000000E+00  1.70000000E+00  1.70000000E+00  1.30000000E+00  1.30000000E+00
  1.30000000E+00  1.70000000E+00  1.30000000E+00  1.30000000E+00  1.30000000E+00
  1.30000000E+00  1.80000000E+00  1.70000000E+00  1.70000000E+00  1.70000000E+00
  1.70000000E+00  1.70000000E+00  1.70000000E+00  1.70000000E+00  1.70000000E+00
  1.80000000E+00  1.70000000E+00  1.30000000E+00  1.70000000E+00  1.70000000E+00
  1.30000000E+00  1.70000000E+00  1.70000000E+00  1.70000000E+00  1.30000000E+00
  1.70000000E+00  1.30000000E+00  1.30000000E+00  1.30000000E+00  1.70000000E+00
  1.70000000E+00  1.70000000E+00  1.70000000E+00  1.30000000E+00  1.70000000E+00
  1.30000000E+00  1.70000000E+00  1.30000000E+00  1.30000000E+00  1.70000000E+00
  1.30000000E+00  1.30000000E+00  1.70000000E+00  1.30000000E+00  1.30000000E+00
  1.30000000E+00  1.70000000E+00  1.30000000E+00  1.30000000E+00  1.70000000E+00
  1.30000000E+00  1.30000000E+00  1.70000000E+00  1.30000000E+00  1.30000000E+00
  1.70000000E+00  1.30000000E+00  1.30000000E+00  1.30000000E+00  1.30000000E+00
  1.70000000E+00  1.70000000E+00  1.30000000E+00  1.30000000E+00  1.30000000E+00
  1.70000000E+00  1.30000000E+00  1.30000000E+00  1.30000000E+00  1.30000000E+00
  1.80000000E+00  1.70000000E+00  1.70000000E+00  1.70000000E+00  1.70000000E+00
  1.70000000E+00  1.70000000E+00  1.70000000E+00  1.70000000E+00  1.80000000E+00
  1.70000000E+00  1.30000000E+00  1.70000000E+00  1.70000000E+00  1.30000000E+00
  1.70000000E+00  1.70000000E+00  1.70000000E+00  1.30000000E+00  1.70000000E+00
  1.30000000E+00  1.30000000E+00  1.30000000E+00  1.70000000E+00  1.70000000E+00
  1.70000000E+00  1.70000000E+00  1.30000000E+00  1.70000000E+00  1.30000000E+00
  1.70000000E+00  1.30000000E+00  1.30000000E+00  1.70000000E+00  1.30000000E+00
  1.30000000E+00  1.70000000E+00  1.30000000E+00  1.30000000E+00  1.30000000E+00
  1.70000000E+00  1.30000000E+00  1.30000000E+00  1.70000000E+00  1.30000000E+00
  1.30000000E+00  1.70000000E+00  1.30000000E+00  1.30000000E+00  1.70000000E+00
  1.30000000E+00  1.30000000E+00  1.30000000E+00  1.30000000E+00  1.70000000E+00
  1.70000000E+00  1.30000000E+00  1.30000000E+00  1.30000000E+00  1.70000000E+00
  1.30000000E+00  1.30000000E+00  1.30000000E+00  1.30000000E+00  1.80000000E+00
  1.70000000E+00  1.70000000E+00  1.70000000E+00  1.70000000E+00  1.70000000E+00
  1.70000000E+00  1.70000000E+00  1.70000000E+00  1.80000000E+00  1.70000000E+00
  1.30000000E+00  1.70000000E+00  1.70000000E+00  1.30000000E+00  1.70000000E+00
  1.70000000E+00  1.70000000E+00  1.30000000E+00  1.70000000E+00  1.30000000E+00
  1.30000000E+00  1.30000000E+00  1.70000000E+00  1.70000000E+00  1.70000000E+00
  1.70000000E+00  1.30000000E+00  1.70000000E+00  1.30000000E+00  1.70000000E+00
  1.30000000E+00  1.30000000E+00  1.70000000E+00  1.30000000E+00  1.30000000E+00
  1.70000000E+00  1.30000000E+00  1.30000000E+00  1.30000000E+00  1.70000000E+00
  1.30000000E+00  1.30000000E+00  1.70000000E+00  1.30000000E+00  1.30000000E+00
  1.70000000E+00  1.30000000E+00  1.30000000E+00  1.70000000E+00  1.30000000E+00
  1.30000000E+00  1.30000000E+00  1.30000000E+00  1.70000000E+00  1.70000000E+00
  1.30000000E+00  1.30000000E+00  1.30000000E+00  1.70000000E+00  1.30000000E+00
  1.30000000E+00  1.30000000E+00  1.30000000E+00  1.80000000E+00  1.70000000E+00
  1.70000000E+00  1.70000000E+00  1.70000000E+00  1.70000000E+00  1.70000000E+00
  1.70000000E+00  1.70000000E+00  1.80000000E+00  1.70000000E+00  1.30000000E+00
  1.70000000E+00  1.70000000E+00  1.30000000E+00  1.70000000E+00  1.70000000E+00
  1.70000000E+00  1.30000000E+00  1.70000000E+00  1.30000000E+00  1.30000000E+00
  1.30000000E+00  1.70000000E+00  1.70000000E+00  1.70000000E+00  1.70000000E+00
  1.30000000E+00  1.70000000E+00  1.30000000E+00  1.70000000E+00  1.30000000E+00
  1.30000000E+00  1.70000000E+00  1.30000000E+00  1.30000000E+00  1.70000000E+00
  1.30000000E+00  1.30000000E+00  1.30000000E+00  1.70000000E+00  1.30000000E+00
  1.30000000E+00  1.70000000E+00  1.30000000E+00  1.30000000E+00  1.70000000E+00
  1.30000000E+00  1.30000000E+00  1.70000000E+00  1.30000000E+00  1.30000000E+00
  1.30000000E+00  1.30000000E+00  1.70000000E+00  1.70000000E+00  1.30000000E+00
  1.30000000E+00  1.30000000E+00  1.70000000E+00  1.30000000E+00  1.30000000E+00
  1.30000000E+00  1.30000000E+00  1.80000000E+00  1.70000000E+00  1.70000000E+00
  1.70000000E+00  1.70000000E+00  1.70000000E+00  1.70000000E+00  1.70000000E+00
  1.70000000E+00  1.80000000E+00  1.70000000E+00  1.30000000E+00  1.70000000E+00
  1.70000000E+00  1.30000000E+00  1.70000000E+00  1.70000000E+00  1.70000000E+00
  1.30000000E+00  1.70000000E+00  1.30000000E+00  1.30000000E+00  1.30000000E+00
  1.70000000E+00  1.70000000E+00  1.70000000E+00  1.70000000E+00  1.30000000E+00
  1.70000000E+00  1.30000000E+00  1.70000000E+00  1.30000000E+00  1.30000000E+00
  1.70000000E+00  1.30000000E+00  1.30000000E+00  1.70000000E+00  1.30000000E+00
  1.30000000E+00  1.30000000E+00  1.70000000E+00  1.30000000E+00  1.30000000E+00
  1.70000000E+00  1.30000000E+00  1.30000000E+00  1.70000000E+00  1.30000000E+00
  1.30000000E+00  1.70000000E+00  1.30000000E+00  1.30000000E+00  1.30000000E+00
  1.30000000E+00  1.70000000E+00  1.70000000E+00  1.30000000E+00  1.30000000E+00
  1.30000000E+00  1.70000000E+00  1.30000000E+00  1.30000000E+00  1.30000000E+00
  1.30000000E+00  1.80000000E+00  1.70000000E+00  1.70000000E+00  1.70000000E+00
  1.70000000E+00  1.70000000E+00  1.70000000E+00  1.70000000E+00  1.70000000E+00
  1.80000000E+00  1.70000000E+00  1.30000000E+00  1.70000000E+00  1.70000000E+00
  1.30000000E+00  1.70000000E+00  1.70000000E+00  1.70000000E+00  1.30000000E+00
  1.70000000E+00  1.30000000E+00  1.30000000E+00  1.30000000E+00  1.70000000E+00
  1.70000000E+00  1.70000000E+00  1.70000000E+00  1.30000000E+00  1.70000000E+00
  1.30000000E+00  1.70000000E+00  1.30000000E+00  1.30000000E+00  1.70000000E+00
  1.30000000E+00  1.30000000E+00  1.70000000E+00  1.30000000E+00  1.30000000E+00
  1.30000000E+00  1.70000000E+00  1.30000000E+00  1.30000000E+00  1.70000000E+00
  1.30000000E+00  1.30000000E+00  1.70000000E+00  1.30000000E+00  1.30000000E+00
  1.70000000E+00  1.30000000E+00  1.30000000E+00  1.30000000E+00  1.30000000E+00
  1.70000000E+00  1.70000000E+00  1.30000000E+00  1.30000000E+00  1.30000000E+00
  1.70000000E+00  1.30000000E+00  1.30000000E+00  1.30000000E+00  1.30000000E+00
  1.80000000E+00  1.70000000E+00  1.70000000E+00  1.70000000E+00  1.70000000E+00
  1.70000000E+00  1.70000000E+00  1.70000000E+00  1.70000000E+00  1.80000000E+00
  1.70000000E+00  1.30000000E+00  1.70000000E+00  1.70000000E+00  1.30000000E+00
  1.70000000E+00  1.70000000E+00  1.70000000E+00  1.30000000E+00  1.70000000E+00
  1.30000000E+00  1.30000000E+00  1.30000000E+00  1.70000000E+00  1.70000000E+00
  1.70000000E+00  1.70000000E+00  1.30000000E+00  1.70000000E+00  1.30000000E+00
  1.70000000E+00  1.30000000E+00  1.30000000E+00  1.70000000E+00  1.30000000E+00
  1.30000000E+00  1.70000000E+00  1.30000000E+00  1.30000000E+00  1.30000000E+00
  1.70000000E+00  1.30000000E+00  1.30000000E+00  1.70000000E+00  1.30000000E+00
  1.30000000E+00  1.70000000E+00  1.30000000E+00  1.30000000E+00  1.70000000E+00
  1.30000000E+00  1.30000000E+00  1.30000000E+00  1.30000000E+00  1.70000000E+00
  1.70000000E+00  1.30000000E+00  1.30000000E+00  1.30000000E+00  1.70000000E+00
  1.30000000E+00  1.30000000E+00  1.30000000E+00  1.30000000E+00  1.80000000E+00
  1.70000000E+00  1.70000000E+00  1.70000000E+00  1.70000000E+00  1.70000000E+00
  1.70000000E+00  1.70000000E+00  1.70000000E+00  1.80000000E+00  1.70000000E+00
  1.30000000E+00  1.70000000E+00  1.70000000E+00  1.30000000E+00  1.70000000E+00
  1.70000000E+00  1.70000000E+00  1.30000000E+00  1.70000000E+00  1.30000000E+00
  1.30000000E+00  1.30000000E+00  1.70000000E+00  1.70000000E+00  1.70000000E+00
  1.70000000E+00  1.30000000E+00  1.70000000E+00  1.30000000E+00  1.70000000E+00
  1.30000000E+00  1.30000000E+00  1.70000000E+00  1.30000000E+00  1.30000000E+00
  1.70000000E+00  1.30000000E+00  1.30000000E+00  1.30000000E+00  1.70000000E+00
  1.30000000E+00  1.30000000E+00  1.70000000E+00  1.30000000E+00  1.30000000E+00
  1.70000000E+00  1.30000000E+00  1.30000000E+00  1.70000000E+00  1.30000000E+00
  1.30000000E+00  1.30000000E+00  1.30000000E+00  1.70000000E+00  1.70000000E+00
  1.30000000E+00  1.30000000E+00  1.30000000E+00  1.70000000E+00  1.30000000E+00
  1.30000000E+00  1.30000000E+00  1.30000000E+00  1.80000000E+00  1.70000000E+00
  1.70000000E+00  1.70000000E+00  1.70000000E+00  1.70000000E+00  1.70000000E+00
  1.70000000E+00  1.70000000E+00  1.80000000E+00  1.70000000E+00  1.30000000E+00
  1.70000000E+00  1.70000000E+00  1.30000000E+00  1.70000000E+00  1.70000000E+00
  1.70000000E+00  1.30000000E+00  1.70000000E+00  1.30000000E+00  1.30000000E+00
  1.30000000E+00  1.70000000E+00  1.70000000E+00  1.70000000E+00  1.70000000E+00
  1.30000000E+00  1.70000000E+00  1.30000000E+00  1.70000000E+00  1.30000000E+00
  1.30000000E+00  1.70000000E+00  1.30000000E+00  1.30000000E+00  1.70000000E+00
  1.30000000E+00  1.30000000E+00  1.30000000E+00  1.70000000E+00  1.30000000E+00
  1.30000000E+00  1.70000000E+00  1.30000000E+00  1.30000000E+00  1.70000000E+00
  1.30000000E+00  1.30000000E+00  1.70000000E+00  1.30000000E+00  1.30000000E+00
  1.30000000E+00  1.30000000E+00  1.70000000E+00  1.70000000E+00  1.30000000E+00
  1.30000000E+00  1.30000000E+00  1.70000000E+00  1.30000000E+00  1.30000000E+00
  1.30000000E+00  1.30000000E+00  1.80000000E+00  1.70000000E+00  1.70000000E+00
  1.70000000E+00  1.70000000E+00  1.70000000E+00  1.70000000E+00  1.70000000E+00
  1.70000000E+00  1.80000000E+00  1.70000000E+00  1.30000000E+00  1.70000000E+00
  1.70000000E+00  1.30000000E+00  1.70000000E+00  1.70000000E+00  1.70000000E+00
  1.30000000E+00  1.70000000E+00  1.30000000E+00  1.30000000E+00  1.30000000E+00
  1.70000000E+00  1.70000000E+00  1.70000000E+00  1.70000000E+00  1.30000000E+00
  1.70000000E+00  1.30000000E+00  1.70000000E+00  1.30000000E+00  1.30000000E+00
  1.70000000E+00  1.30000000E+00  1.30000000E+00  1.70000000E+00  1.30000000E+00
  1.30000000E+00  1.30000000E+00  1.70000000E+00  1.30000000E+00  1.30000000E+00
  1.70000000E+00  1.30000000E+00  1.30000000E+00  1.70000000E+00  1.30000000E+00
  1.30000000E+00  1.70000000E+00  1.30000000E+00  1.30000000E+00  1.30000000E+00
  1.30000000E+00  1.70000000E+00  1.70000000E+00  1.30000000E+00  1.30000000E+00
  1.30000000E+00  1.70000000E+00  1.30000000E+00  1.30000000E+00  1.30000000E+00
  1.30000000E+00  1.80000000E+00  1.70000000E+00  1.70000000E+00  1.70000000E+00
  1.70000000E+00  1.70000000E+00  1.70000000E+00  1.70000000E+00  1.70000000E+00
  1.80000000E+00  1.70000000E+00  1.30000000E+00  1.70000000E+00  1.70000000E+00
  1.30000000E+00  1.70000000E+00  1.70000000E+00  1.70000000E+00  1.30000000E+00
  1.70000000E+00  1.30000000E+00  1.30000000E+00  1.30000000E+00  1.70000000E+00
  1.70000000E+00  1.70000000E+00  1.70000000E+00  1.30000000E+00  1.70000000E+00
  1.30000000E+00  1.70000000E+00  1.30000000E+00  1.30000000E+00  1.70000000E+00
  1.30000000E+00  1.30000000E+00  1.70000000E+00  1.30000000E+00  1.30000000E+00
  1.30000000E+00  1.70000000E+00  1.30000000E+00  1.30000000E+00  1.70000000E+00
  1.30000000E+00  1.30000000E+00  1.70000000E+00  1.30000000E+00  1.30000000E+00
  1.70000000E+00  1.30000000E+00  1.30000000E+00  1.30000000E+00  1.30000000E+00
  1.70000000E+00  1.70000000E+00  1.30000000E+00  1.30000000E+00  1.30000000E+00
  1.70000000E+00  1.30000000E+00  1.30000000E+00  1.30000000E+00  1.30000000E+00
  1.80000000E+00  1.70000000E+00  1.70000000E+00  1.70000000E+00  1.70000000E+00
  1.70000000E+00  1.70000000E+00  1.70000000E+00  1.70000000E+00  1.80000000E+00
  1.70000000E+00  1.30000000E+00  1.70000000E+00  1.70000000E+00  1.30000000E+00
  1.70000000E+00  1.70000000E+00  1.70000000E+00  1.30000000E+00  1.70000000E+00
  1.30000000E+00  1.30000000E+00  1.30000000E+00  1.70000000E+00  1.70000000E+00
  1.70000000E+00  1.70000000E+00  1.30000000E+00  1.70000000E+00  1.30000000E+00
  1.70000000E+00  1.30000000E+00  1.30000000E+00  1.70000000E+00  1.30000000E+00
  1.30000000E+00  1.70000000E+00  1.30000000E+00  1.30000000E+00  1.30000000E+00
  1.70000000E+00  1.30000000E+00  1.30000000E+00  1.70000000E+00  1.30000000E+00
  1.30000000E+00  1.70000000E+00  1.30000000E+00  1.30000000E+00  1.70000000E+00
  1.30000000E+00  1.30000000E+00  1.30000000E+00  1.30000000E+00  1.70000000E+00
  1.70000000E+00  1.30000000E+00  1.30000000E+00  1.30000000E+00  1.70000000E+00
  1.30000000E+00  1.30000000E+00  1.30000000E+00  1.30000000E+00  1.80000000E+00
  1.70000000E+00  1.70000000E+00  1.70000000E+00  1.70000000E+00  1.70000000E+00
  1.70000000E+00  1.70000000E+00  1.70000000E+00  1.80000000E+00  1.70000000E+00
  1.30000000E+00  1.70000000E+00  1.70000000E+00  1.30000000E+00  1.70000000E+00
  1.70000000E+00  1.70000000E+00  1.30000000E+00  1.70000000E+00  1.30000000E+00
  1.30000000E+00  1.30000000E+00  1.70000000E+00  1.70000000E+00  1.70000000E+00
  1.70000000E+00  1.30000000E+00  1.70000000E+00  1.30000000E+00  1.70000000E+00
  1.30000000E+00  1.30000000E+00  1.70000000E+00  1.30000000E+00  1.30000000E+00
  1.70000000E+00  1.30000000E+00  1.30000000E+00  1.30000000E+00  1.70000000E+00
  1.30000000E+00  1.30000000E+00  1.70000000E+00  1.30000000E+00  1.30000000E+00
  1.70000000E+00  1.30000000E+00  1.30000000E+00  1.70000000E+00  1.30000000E+00
  1.30000000E+00  1.30000000E+00  1.30000000E+00  1.70000000E+00  1.70000000E+00
  1.30000000E+00  1.30000000E+00  1.30000000E+00  1.70000000E+00  1.30000000E+00
  1.30000000E+00  1.30000000E+00  1.30000000E+00  1.80000000E+00  1.70000000E+00
  1.70000000E+00  1.70000000E+00  1.70000000E+00  1.70000000E+00  1.70000000E+00
  1.70000000E+00  1.70000000E+00  1.80000000E+00  1.70000000E+00  1.30000000E+00
  1.70000000E+00  1.70000000E+00  1.30000000E+00  1.70000000E+00  1.70000000E+00
  1.70000000E+00  1.30000000E+00  1.70000000E+00  1.30000000E+00  1.30000000E+00
  1.30000000E+00  1.70000000E+00  1.70000000E+00  1.70000000E+00  1.70000000E+00
  1.30000000E+00  1.70000000E+00  1.30000000E+00  1.70000000E+00  1.30000000E+00
  1.30000000E+00  1.70000000E+00  1.30000000E+00  1.30000000E+00  1.70000000E+00
  1.30000000E+00  1.30000000E+00  1.30000000E+00  1.70000000E+00  1.30000000E+00
  1.30000000E+00  1.70000000E+00  1.30000000E+00  1.30000000E+00  1.70000000E+00
  1.30000000E+00  1.30000000E+00  1.70000000E+00  1.30000000E+00  1.30000000E+00
  1.30000000E+00  1.30000000E+00  1.70000000E+00  1.70000000E+00  1.30000000E+00
  1.30000000E+00  1.30000000E+00  1.70000000E+00  1.30000000E+00  1.30000000E+00
  1.30000000E+00  1.30000000E+00  1.80000000E+00  1.70000000E+00  1.70000000E+00
  1.70000000E+00  1.70000000E+00  1.70000000E+00  1.70000000E+00  1.70000000E+00
  1.70000000E+00  1.80000000E+00  1.70000000E+00  1.30000000E+00  1.70000000E+00
  1.70000000E+00  1.30000000E+00  1.70000000E+00  1.70000000E+00  1.70000000E+00
  1.30000000E+00  1.70000000E+00  1.30000000E+00  1.30000000E+00  1.30000000E+00
  1.70000000E+00  1.70000000E+00  1.70000000E+00  1.70000000E+00  1.30000000E+00
  1.70000000E+00  1.30000000E+00  1.70000000E+00  1.30000000E+00  1.30000000E+00
  1.70000000E+00  1.30000000E+00  1.30000000E+00  1.70000000E+00  1.30000000E+00
  1.30000000E+00  1.30000000E+00  1.70000000E+00  1.30000000E+00  1.30000000E+00
  1.70000000E+00  1.30000000E+00  1.30000000E+00  1.70000000E+00  1.30000000E+00
  1.30000000E+00  1.70000000E+00  1.30000000E+00  1.30000000E+00  1.30000000E+00
  1.30000000E+00  1.70000000E+00  1.70000000E+00  1.30000000E+00  1.30000000E+00
  1.30000000E+00  1.70000000E+00  1.30000000E+00  1.30000000E+00  1.30000000E+00
  1.30000000E+00  1.80000000E+00  1.70000000E+00  1.70000000E+00  1.70000000E+00
  1.70000000E+00  1.70000000E+00  1.70000000E+00  1.70000000E+00  1.70000000E+00
  1.80000000E+00  1.70000000E+00  1.30000000E+00  1.70000000E+00  1.70000000E+00
  1.30000000E+00  1.70000000E+00  1.70000000E+00  1.70000000E+00  1.30000000E+00
  1.70000000E+00  1.30000000E+00  1.30000000E+00  1.30000000E+00  1.70000000E+00
  1.70000000E+00  1.70000000E+00  1.70000000E+00  1.30000000E+00  1.70000000E+00
  1.30000000E+00  1.70000000E+00  1.30000000E+00  1.30000000E+00  1.70000000E+00
  1.30000000E+00  1.30000000E+00  1.70000000E+00  1.30000000E+00  1.30000000E+00
  1.30000000E+00  1.70000000E+00  1.30000000E+00  1.30000000E+00  1.70000000E+00
  1.30000000E+00  1.30000000E+00  1.70000000E+00  1.30000000E+00  1.30000000E+00
  1.70000000E+00  1.30000000E+00  1.30000000E+00  1.30000000E+00  1.30000000E+00
  1.70000000E+00  1.70000000E+00  1.30000000E+00  1.30000000E+00  1.30000000E+00
  1.70000000E+00  1.30000000E+00  1.30000000E+00  1.30000000E+00  1.30000000E+00
  1.80000000E+00  1.70000000E+00  1.70000000E+00  1.70000000E+00  1.70000000E+00
  1.70000000E+00  1.70000000E+00  1.70000000E+00  1.70000000E+00  1.80000000E+00
  1.70000000E+00  1.30000000E+00  1.70000000E+00  1.70000000E+00  1.30000000E+00
  1.70000000E+00  1.70000000E+00  1.70000000E+00  1.30000000E+00  1.70000000E+00
  1.30000000E+00  1.30000000E+00  1.30000000E+00  1.70000000E+00  1.70000000E+00
  1.70000000E+00  1.70000000E+00  1.30000000E+00  1.70000000E+00  1.30000000E+00
  1.70000000E+00  1.30000000E+00  1.30000000E+00  1.70000000E+00  1.30000000E+00
  1.30000000E+00  1.70000000E+00  1.30000000E+00  1.30000000E+00  1.30000000E+00
  1.70000000E+00  1.30000000E+00  1.30000000E+00  1.70000000E+00  1.30000000E+00
  1.30000000E+00  1.70000000E+00  1.30000000E+00  1.30000000E+00  1.70000000E+00
  1.30000000E+00  1.30000000E+00  1.30000000E+00  1.30000000E+00  1.70000000E+00
  1.70000000E+00  1.30000000E+00  1.30000000E+00  1.30000000E+00  1.70000000E+00
  1.30000000E+00  1.30000000E+00  1.30000000E+00  1.30000000E+00  1.80000000E+00
  1.70000000E+00  1.70000000E+00  1.70000000E+00  1.70000000E+00  1.70000000E+00
  1.70000000E+00  1.70000000E+00  1.70000000E+00  1.80000000E+00  1.70000000E+00
  1.30000000E+00  1.70000000E+00  1.70000000E+00  1.30000000E+00  1.70000000E+00
  1.70000000E+00  1.70000000E+00  1.30000000E+00  1.70000000E+00  1.30000000E+00
  1.30000000E+00  1.30000000E+00  1.70000000E+00  1.70000000E+00  1.70000000E+00
  1.70000000E+00  1.30000000E+00  1.70000000E+00  1.30000000E+00  1.70000000E+00
  1.30000000E+00  1.30000000E+00  1.70000000E+00  1.30000000E+00  1.30000000E+00
  1.70000000E+00  1.30000000E+00  1.30000000E+00  1.30000000E+00  1.70000000E+00
  1.30000000E+00  1.30000000E+00  1.70000000E+00  1.30000000E+00  1.30000000E+00
  1.70000000E+00  1.30000000E+00  1.30000000E+00  1.70000000E+00  1.30000000E+00
  1.30000000E+00  1.30000000E+00  1.30000000E+00  1.70000000E+00  1.70000000E+00
  1.30000000E+00  1.30000000E+00  1.30000000E+00  1.70000000E+00  1.30000000E+00
  1.30000000E+00  1.30000000E+00  1.30000000E+00  1.80000000E+00  1.70000000E+00
  1.70000000E+00  1.70000000E+00  1.70000000E+00  1.70000000E+00  1.70000000E+00
  1.70000000E+00  1.70000000E+00  1.80000000E+00  1.70000000E+00  1.30000000E+00
  1.70000000E+00  1.70000000E+00  1.30000000E+00  1.70000000E+00  1.70000000E+00
  1.70000000E+00  1.30000000E+00  1.70000000E+00  1.30000000E+00  1.30000000E+00
  1.30000000E+00  1.70000000E+00  1.70000000E+00  1.70000000E+00  1.70000000E+00
  1.30000000E+00  1.70000000E+00  1.30000000E+00  1.70000000E+00  1.30000000E+00
  1.30000000E+00  1.70000000E+00  1.30000000E+00  1.30000000E+00  1.70000000E+00
  1.30000000E+00  1.30000000E+00  1.30000000E+00  1.70000000E+00  1.30000000E+00
  1.30000000E+00  1.70000000E+00  1.30000000E+00  1.30000000E+00  1.70000000E+00
  1.30000000E+00  1.30000000E+00  1.70000000E+00  1.30000000E+00  1.30000000E+00
  1.30000000E+00  1.30000000E+00  1.70000000E+00  1.70000000E+00  1.30000000E+00
  1.30000000E+00  1.30000000E+00  1.70000000E+00  1.30000000E+00  1.30000000E+00
  1.30000000E+00  1.30000000E+00  1.80000000E+00  1.70000000E+00  1.70000000E+00
  1.70000000E+00  1.70000000E+00  1.70000000E+00  1.70000000E+00  1.70000000E+00
  1.70000000E+00  1.80000000E+00  1.70000000E+00  1.30000000E+00  1.70000000E+00
  1.70000000E+00  1.30000000E+00  1.70000000E+00  1.70000000E+00  1.70000000E+00
  1.30000000E+00  1.70000000E+00  1.30000000E+00  1.30000000E+00  1.30000000E+00
  1.70000000E+00  1.70000000E+00  1.70000000E+00  1.70000000E+00  1.30000000E+00
  1.70000000E+00  1.30000000E+00  1.70000000E+00  1.30000000E+00  1.30000000E+00
  1.70000000E+00  1.30000000E+00  1.30000000E+00  1.70000000E+00  1.30000000E+00
  1.30000000E+00  1.30000000E+00  1.70000000E+00  1.30000000E+00  1.30000000E+00
  1.70000000E+00  1.30000000E+00  1.30000000E+00  1.70000000E+00  1.30000000E+00
  1.30000000E+00  1.70000000E+00  1.30000000E+00  1.30000000E+00  1.30000000E+00
  1.30000000E+00  1.70000000E+00  1.70000000E+00  1.30000000E+00  1.30000000E+00
  1.30000000E+00  1.70000000E+00  1.30000000E+00  1.30000000E+00  1.30000000E+00
  1.30000000E+00  1.80000000E+00  1.70000000E+00  1.70000000E+00  1.70000000E+00
  1.70000000E+00  1.70000000E+00  1.70000000E+00  1.70000000E+00  1.70000000E+00
  1.80000000E+00  1.70000000E+00  1.30000000E+00  1.70000000E+00  1.70000000E+00
  1.30000000E+00  1.70000000E+00  1.70000000E+00  1.70000000E+00  1.30000000E+00
  1.70000000E+00  1.30000000E+00  1.30000000E+00  1.30000000E+00  1.70000000E+00
  1.70000000E+00  1.70000000E+00  1.70000000E+00  1.30000000E+00  1.70000000E+00
  1.30000000E+00  1.70000000E+00  1.30000000E+00  1.30000000E+00  1.70000000E+00
  1.30000000E+00  1.30000000E+00  1.70000000E+00  1.30000000E+00  1.30000000E+00
  1.30000000E+00  1.70000000E+00  1.30000000E+00  1.30000000E+00  1.70000000E+00
  1.30000000E+00  1.30000000E+00  1.70000000E+00  1.30000000E+00  1.30000000E+00
  1.70000000E+00  1.30000000E+00  1.30000000E+00  1.30000000E+00  1.30000000E+00
  1.70000000E+00  1.70000000E+00  1.30000000E+00  1.30000000E+00  1.30000000E+00
  1.70000000E+00  1.30000000E+00  1.30000000E+00  1.30000000E+00  1.30000000E+00
  1.80000000E+00  1.70000000E+00  1.70000000E+00  1.70000000E+00  1.70000000E+00
  1.70000000E+00  1.70000000E+00  1.70000000E+00  1.70000000E+00  1.80000000E+00
  1.70000000E+00  1.30000000E+00  1.70000000E+00  1.70000000E+00  1.30000000E+00
  1.70000000E+00  1.70000000E+00  1.70000000E+00  1.30000000E+00  1.70000000E+00
  1.30000000E+00  1.30000000E+00  1.30000000E+00  1.70000000E+00  1.70000000E+00
  1.70000000E+00  1.70000000E+00  1.30000000E+00  1.70000000E+00  1.30000000E+00
  1.70000000E+00  1.30000000E+00  1.30000000E+00  1.70000000E+00  1.30000000E+00
  1.30000000E+00  1.70000000E+00  1.30000000E+00  1.30000000E+00  1.30000000E+00
  1.70000000E+00  1.30000000E+00  1.30000000E+00  1.70000000E+00  1.30000000E+00
  1.30000000E+00  1.70000000E+00  1.30000000E+00  1.30000000E+00  1.70000000E+00
  1.30000000E+00  1.30000000E+00  1.30000000E+00  1.30000000E+00  1.70000000E+00
  1.70000000E+00  1.30000000E+00  1.30000000E+00  1.30000000E+00  1.70000000E+00
  1.30000000E+00  1.30000000E+00  1.30000000E+00  1.30000000E+00  1.80000000E+00
  1.70000000E+00  1.70000000E+00  1.70000000E+00  1.70000000E+00  1.70000000E+00
  1.70000000E+00  1.70000000E+00  1.70000000E+00  1.80000000E+00  1.70000000E+00
  1.30000000E+00  1.70000000E+00  1.70000000E+00  1.30000000E+00  1.70000000E+00
  1.70000000E+00  1.70000000E+00  1.30000000E+00  1.70000000E+00  1.30000000E+00
  1.30000000E+00  1.30000000E+00  1.70000000E+00  1.70000000E+00  1.70000000E+00
  1.70000000E+00  1.30000000E+00  1.70000000E+00  1.30000000E+00  1.70000000E+00
  1.30000000E+00  1.30000000E+00  1.70000000E+00  1.30000000E+00  1.30000000E+00
  1.70000000E+00  1.30000000E+00  1.30000000E+00  1.30000000E+00  1.70000000E+00
  1.30000000E+00  1.30000000E+00  1.70000000E+00  1.30000000E+00  1.30000000E+00
  1.70000000E+00  1.30000000E+00  1.30000000E+00  1.70000000E+00  1.30000000E+00
  1.30000000E+00  1.30000000E+00  1.30000000E+00  1.70000000E+00  1.70000000E+00
  1.30000000E+00  1.30000000E+00  1.30000000E+00  1.70000000E+00  1.30000000E+00
  1.30000000E+00  1.30000000E+00  1.30000000E+00  1.80000000E+00  1.70000000E+00
  1.70000000E+00  1.70000000E+00  1.70000000E+00  1.70000000E+00  1.70000000E+00
  1.70000000E+00  1.70000000E+00  1.80000000E+00  1.70000000E+00  1.30000000E+00
  1.70000000E+00  1.70000000E+00  1.30000000E+00  1.70000000E+00  1.70000000E+00
  1.70000000E+00  1.30000000E+00  1.70000000E+00  1.30000000E+00  1.30000000E+00
  1.30000000E+00  1.70000000E+00  1.70000000E+00  1.70000000E+00  1.70000000E+00
  1.30000000E+00  1.70000000E+00  1.30000000E+00  1.70000000E+00  1.30000000E+00
  1.30000000E+00  1.70000000E+00  1.30000000E+00  1.30000000E+00  1.70000000E+00
  1.30000000E+00  1.30000000E+00  1.30000000E+00  1.70000000E+00  1.30000000E+00
  1.30000000E+00  1.70000000E+00  1.30000000E+00  1.30000000E+00  1.70000000E+00
  1.30000000E+00  1.30000000E+00  1.70000000E+00  1.30000000E+00  1.30000000E+00
  1.30000000E+00  1.30000000E+00  1.70000000E+00  1.70000000E+00  1.30000000E+00
  1.30000000E+00  1.30000000E+00  1.70000000E+00  1.30000000E+00  1.30000000E+00
  1.30000000E+00  1.30000000E+00  1.80000000E+00  1.70000000E+00  1.70000000E+00
  1.70000000E+00  1.70000000E+00  1.70000000E+00  1.70000000E+00  1.70000000E+00
  1.70000000E+00  1.80000000E+00  1.70000000E+00  1.30000000E+00  1.70000000E+00
  1.70000000E+00  1.30000000E+00  1.70000000E+00  1.70000000E+00  1.70000000E+00
  1.30000000E+00  1.70000000E+00  1.30000000E+00  1.30000000E+00  1.30000000E+00
  1.70000000E+00  1.70000000E+00  1.70000000E+00  1.70000000E+00  1.30000000E+00
  1.70000000E+00  1.30000000E+00  1.70000000E+00  1.30000000E+00  1.30000000E+00
  1.70000000E+00  1.30000000E+00  1.30000000E+00  1.70000000E+00  1.30000000E+00
  1.30000000E+00  1.30000000E+00  1.70000000E+00  1.30000000E+00  1.30000000E+00
  1.70000000E+00  1.30000000E+00  1.30000000E+00  1.70000000E+00  1.30000000E+00
  1.30000000E+00  1.70000000E+00  1.30000000E+00  1.30000000E+00  1.30000000E+00
  1.30000000E+00  1.70000000E+00  1.70000000E+00  1.30000000E+00  1.30000000E+00
  1.30000000E+00  1.70000000E+00  1.30000000E+00  1.30000000E+00  1.30000000E+00
  1.30000000E+00  1.80000000E+00  1.70000000E+00  1.70000000E+00  1.70000000E+00
  1.70000000E+00  1.70000000E+00  1.70000000E+00  1.70000000E+00  1.70000000E+00
  1.80000000E+00  1.70000000E+00  1.30000000E+00  1.70000000E+00  1.70000000E+00
  1.30000000E+00  1.70000000E+00  1.70000000E+00  1.70000000E+00  1.30000000E+00
  1.70000000E+00  1.30000000E+00  1.30000000E+00  1.30000000E+00  1.70000000E+00
  1.70000000E+00  1.70000000E+00  1.70000000E+00  1.30000000E+00  1.70000000E+00
  1.30000000E+00  1.70000000E+00  1.30000000E+00  1.30000000E+00  1.70000000E+00
  1.30000000E+00  1.30000000E+00  1.70000000E+00  1.30000000E+00  1.30000000E+00
  1.30000000E+00  1.70000000E+00  1.30000000E+00  1.30000000E+00  1.70000000E+00
  1.30000000E+00  1.30000000E+00  1.70000000E+00  1.30000000E+00  1.30000000E+00
  1.70000000E+00  1.30000000E+00  1.30000000E+00  1.30000000E+00  1.30000000E+00
  1.70000000E+00  1.70000000E+00  1.30000000E+00  1.30000000E+00  1.30000000E+00
  1.70000000E+00  1.30000000E+00  1.30000000E+00  1.30000000E+00  1.30000000E+00
  1.80000000E+00  1.70000000E+00  1.70000000E+00  1.70000000E+00  1.70000000E+00
  1.70000000E+00  1.70000000E+00  1.70000000E+00  1.70000000E+00  1.80000000E+00
  1.70000000E+00  1.30000000E+00  1.70000000E+00  1.70000000E+00  1.30000000E+00
  1.70000000E+00  1.70000000E+00  1.70000000E+00  1.30000000E+00  1.70000000E+00
  1.30000000E+00  1.30000000E+00  1.30000000E+00  1.70000000E+00  1.70000000E+00
  1.70000000E+00  1.70000000E+00  1.30000000E+00  1.70000000E+00  1.30000000E+00
  1.70000000E+00  1.30000000E+00  1.30000000E+00  1.70000000E+00  1.30000000E+00
  1.30000000E+00  1.70000000E+00  1.30000000E+00  1.30000000E+00  1.30000000E+00
  1.70000000E+00  1.30000000E+00  1.30000000E+00  1.70000000E+00  1.30000000E+00
  1.30000000E+00  1.70000000E+00  1.30000000E+00  1.30000000E+00  1.70000000E+00
  1.30000000E+00  1.30000000E+00  1.30000000E+00  1.30000000E+00  1.70000000E+00
  1.70000000E+00  1.30000000E+00  1.30000000E+00  1.30000000E+00  1.70000000E+00
  1.30000000E+00  1.30000000E+00  1.30000000E+00  1.30000000E+00  1.80000000E+00
  1.70000000E+00  1.70000000E+00  1.70000000E+00  1.70000000E+00  1.70000000E+00
  1.70000000E+00  1.70000000E+00  1.70000000E+00  1.80000000E+00  1.70000000E+00
  1.30000000E+00  1.70000000E+00  1.70000000E+00  1.30000000E+00  1.70000000E+00
  1.70000000E+00  1.70000000E+00  1.30000000E+00  1.70000000E+00  1.30000000E+00
  1.30000000E+00  1.30000000E+00  1.70000000E+00  1.70000000E+00  1.70000000E+00
  1.70000000E+00  1.30000000E+00  1.70000000E+00  1.30000000E+00  1.70000000E+00
  1.30000000E+00  1.30000000E+00  1.70000000E+00  1.30000000E+00  1.30000000E+00
  1.70000000E+00  1.30000000E+00  1.30000000E+00  1.30000000E+00  1.70000000E+00
  1.30000000E+00  1.30000000E+00  1.70000000E+00  1.30000000E+00  1.30000000E+00
  1.70000000E+00  1.30000000E+00  1.30000000E+00  1.70000000E+00  1.30000000E+00
  1.30000000E+00  1.30000000E+00  1.30000000E+00  1.70000000E+00  1.70000000E+00
  1.30000000E+00  1.30000000E+00  1.30000000E+00  1.70000000E+00  1.30000000E+00
  1.30000000E+00  1.30000000E+00  1.30000000E+00  1.80000000E+00  1.70000000E+00
  1.70000000E+00  1.70000000E+00  1.70000000E+00  1.70000000E+00  1.70000000E+00
  1.70000000E+00  1.70000000E+00  1.80000000E+00  1.70000000E+00  1.30000000E+00
  1.70000000E+00  1.70000000E+00  1.30000000E+00  1.70000000E+00  1.70000000E+00
  1.70000000E+00  1.30000000E+00  1.70000000E+00  1.30000000E+00  1.30000000E+00
  1.30000000E+00  1.70000000E+00  1.70000000E+00  1.70000000E+00  1.70000000E+00
  1.30000000E+00  1.70000000E+00  1.30000000E+00  1.70000000E+00  1.30000000E+00
  1.30000000E+00  1.70000000E+00  1.30000000E+00  1.30000000E+00  1.70000000E+00
  1.30000000E+00  1.30000000E+00  1.30000000E+00  1.70000000E+00  1.30000000E+00
  1.30000000E+00  1.70000000E+00  1.30000000E+00  1.30000000E+00  1.70000000E+00
  1.30000000E+00  1.30000000E+00  1.70000000E+00  1.30000000E+00  1.30000000E+00
  1.30000000E+00  1.30000000E+00  1.70000000E+00  1.70000000E+00  1.30000000E+00
  1.30000000E+00  1.30000000E+00  1.70000000E+00  1.30000000E+00  1.30000000E+00
  1.30000000E+00  1.30000000E+00  1.80000000E+00  1.70000000E+00  1.70000000E+00
  1.70000000E+00  1.70000000E+00  1.70000000E+00  1.70000000E+00  1.70000000E+00
  1.70000000E+00  1.80000000E+00  1.70000000E+00  1.30000000E+00  1.70000000E+00
  1.70000000E+00  1.30000000E+00  1.70000000E+00  1.70000000E+00  1.70000000E+00
  1.30000000E+00  1.70000000E+00  1.30000000E+00  1.30000000E+00  1.30000000E+00
  1.70000000E+00  1.70000000E+00  1.70000000E+00  1.70000000E+00  1.30000000E+00
  1.70000000E+00  1.30000000E+00  1.70000000E+00  1.30000000E+00  1.30000000E+00
  1.70000000E+00  1.30000000E+00  1.30000000E+00  1.70000000E+00  1.30000000E+00
  1.30000000E+00  1.30000000E+00  1.70000000E+00  1.30000000E+00  1.30000000E+00
  1.70000000E+00  1.30000000E+00  1.30000000E+00  1.70000000E+00  1.30000000E+00
  1.30000000E+00  1.70000000E+00  1.30000000E+00  1.30000000E+00  1.30000000E+00
  1.30000000E+00  1.70000000E+00  1.70000000E+00  1.30000000E+00  1.30000000E+00
  1.30000000E+00  1.70000000E+00  1.30000000E+00  1.30000000E+00  1.30000000E+00
  1.30000000E+00  1.80000000E+00  1.70000000E+00  1.70000000E+00  1.70000000E+00
  1.70000000E+00  1.70000000E+00  1.70000000E+00  1.70000000E+00  1.70000000E+00
  1.80000000E+00  1.70000000E+00  1.30000000E+00  1.70000000E+00  1.70000000E+00
  1.30000000E+00  1.70000000E+00  1.70000000E+00  1.70000000E+00  1.30000000E+00
  1.70000000E+00  1.30000000E+00  1.30000000E+00  1.30000000E+00  1.70000000E+00
  1.70000000E+00  1.70000000E+00  1.70000000E+00  1.30000000E+00  1.70000000E+00
  1.30000000E+00  1.70000000E+00  1.30000000E+00  1.30000000E+00  1.70000000E+00
  1.30000000E+00  1.30000000E+00  1.70000000E+00  1.30000000E+00  1.30000000E+00
  1.30000000E+00  1.70000000E+00  1.30000000E+00  1.30000000E+00  1.70000000E+00
  1.30000000E+00  1.30000000E+00  1.70000000E+00  1.30000000E+00  1.30000000E+00
  1.70000000E+00  1.30000000E+00  1.30000000E+00  1.30000000E+00  1.30000000E+00
  1.70000000E+00  1.70000000E+00  1.30000000E+00  1.30000000E+00  1.30000000E+00
  1.70000000E+00  1.30000000E+00  1.30000000E+00  1.30000000E+00  1.30000000E+00
  1.80000000E+00  1.70000000E+00  1.70000000E+00  1.70000000E+00  1.70000000E+00
  1.70000000E+00  1.70000000E+00  1.70000000E+00  1.70000000E+00  1.80000000E+00
  1.70000000E+00  1.30000000E+00  1.70000000E+00  1.70000000E+00  1.30000000E+00
  1.70000000E+00  1.70000000E+00  1.70000000E+00  1.30000000E+00  1.70000000E+00
  1.30000000E+00  1.30000000E+00  1.30000000E+00  1.70000000E+00  1.70000000E+00
  1.70000000E+00  1.70000000E+00  1.30000000E+00  1.70000000E+00  1.30000000E+00
  1.70000000E+00  1.30000000E+00  1.30000000E+00  1.70000000E+00  1.30000000E+00
  1.30000000E+00  1.70000000E+00  1.30000000E+00  1.30000000E+00  1.30000000E+00
  1.70000000E+00  1.30000000E+00  1.30000000E+00  1.70000000E+00  1.30000000E+00
  1.30000000E+00  1.70000000E+00  1.30000000E+00  1.30000000E+00  1.70000000E+00
  1.30000000E+00  1.30000000E+00  1.30000000E+00  1.30000000E+00  1.70000000E+00
  1.70000000E+00  1.30000000E+00  1.30000000E+00  1.30000000E+00  1.70000000E+00
  1.30000000E+00  1.30000000E+00  1.30000000E+00  1.30000000E+00  1.80000000E+00
  1.70000000E+00  1.70000000E+00  1.70000000E+00  1.70000000E+00  1.70000000E+00
  1.70000000E+00  1.70000000E+00  1.70000000E+00  1.80000000E+00  1.70000000E+00
  1.30000000E+00  1.70000000E+00  1.70000000E+00  1.30000000E+00  1.70000000E+00
  1.70000000E+00  1.70000000E+00  1.30000000E+00  1.70000000E+00  1.30000000E+00
  1.30000000E+00  1.30000000E+00  1.70000000E+00  1.70000000E+00  1.70000000E+00
  1.70000000E+00  1.30000000E+00  1.70000000E+00  1.30000000E+00  1.70000000E+00
  1.30000000E+00  1.30000000E+00  1.70000000E+00  1.30000000E+00  1.30000000E+00
  1.70000000E+00  1.30000000E+00  1.30000000E+00  1.30000000E+00  1.70000000E+00
  1.30000000E+00  1.30000000E+00  1.70000000E+00  1.30000000E+00  1.30000000E+00
  1.70000000E+00  1.30000000E+00  1.30000000E+00  1.70000000E+00  1.30000000E+00
  1.30000000E+00  1.30000000E+00  1.30000000E+00  1.70000000E+00  1.70000000E+00
  1.30000000E+00  1.30000000E+00  1.30000000E+00  1.70000000E+00  1.30000000E+00
  1.30000000E+00  1.30000000E+00  1.30000000E+00  1.80000000E+00  1.70000000E+00
  1.70000000E+00  1.70000000E+00  1.70000000E+00  1.70000000E+00  1.70000000E+00
  1.70000000E+00  1.70000000E+00  1.80000000E+00  1.70000000E+00  1.30000000E+00
  1.70000000E+00  1.70000000E+00  1.30000000E+00  1.70000000E+00  1.70000000E+00
  1.70000000E+00  1.30000000E+00  1.70000000E+00  1.30000000E+00  1.30000000E+00
  1.30000000E+00  1.70000000E+00  1.70000000E+00  1.70000000E+00  1.70000000E+00
  1.30000000E+00  1.70000000E+00  1.30000000E+00  1.70000000E+00  1.30000000E+00
  1.30000000E+00  1.70000000E+00  1.30000000E+00  1.30000000E+00  1.70000000E+00
  1.30000000E+00  1.30000000E+00  1.30000000E+00  1.70000000E+00  1.30000000E+00
  1.30000000E+00  1.70000000E+00  1.30000000E+00  1.30000000E+00  1.70000000E+00
  1.30000000E+00  1.30000000E+00  1.70000000E+00  1.30000000E+00  1.30000000E+00
  1.30000000E+00  1.30000000E+00  1.70000000E+00  1.70000000E+00  1.30000000E+00
  1.30000000E+00  1.30000000E+00  1.70000000E+00  1.30000000E+00  1.30000000E+00
  1.30000000E+00  1.30000000E+00  1.80000000E+00  1.70000000E+00  1.70000000E+00
  1.70000000E+00  1.70000000E+00  1.70000000E+00  1.70000000E+00  1.70000000E+00
  1.70000000E+00  1.80000000E+00  1.70000000E+00  1.30000000E+00  1.70000000E+00
  1.70000000E+00  1.30000000E+00  1.70000000E+00  1.70000000E+00  1.70000000E+00
  1.30000000E+00  1.70000000E+00  1.30000000E+00  1.30000000E+00  1.30000000E+00
  1.70000000E+00  1.70000000E+00  1.70000000E+00  1.70000000E+00  1.30000000E+00
  1.70000000E+00  1.30000000E+00  1.70000000E+00  1.30000000E+00  1.30000000E+00
  1.70000000E+00  1.30000000E+00  1.30000000E+00  1.70000000E+00  1.30000000E+00
  1.30000000E+00  1.30000000E+00  1.70000000E+00  1.30000000E+00  1.30000000E+00
  1.70000000E+00  1.30000000E+00  1.30000000E+00  1.70000000E+00  1.30000000E+00
  1.30000000E+00  1.70000000E+00  1.30000000E+00  1.30000000E+00  1.30000000E+00
  1.30000000E+00  1.70000000E+00  1.70000000E+00  1.30000000E+00  1.30000000E+00
  1.30000000E+00  1.70000000E+00  1.30000000E+00  1.30000000E+00  1.30000000E+00
  1.30000000E+00  1.80000000E+00  1.70000000E+00  1.70000000E+00  1.70000000E+00
  1.70000000E+00  1.70000000E+00  1.70000000E+00  1.70000000E+00  1.70000000E+00
  1.80000000E+00  1.70000000E+00  1.30000000E+00  1.70000000E+00  1.70000000E+00
  1.30000000E+00  1.70000000E+00  1.70000000E+00  1.70000000E+00  1.30000000E+00
  1.70000000E+00  1.30000000E+00  1.30000000E+00  1.30000000E+00  1.70000000E+00
  1.70000000E+00  1.70000000E+00  1.70000000E+00  1.30000000E+00  1.70000000E+00
  1.30000000E+00  1.70000000E+00  1.30000000E+00  1.30000000E+00  1.70000000E+00
  1.30000000E+00  1.30000000E+00  1.70000000E+00  1.30000000E+00  1.30000000E+00
  1.30000000E+00  1.70000000E+00  1.30000000E+00  1.30000000E+00  1.70000000E+00
  1.30000000E+00  1.30000000E+00  1.70000000E+00  1.30000000E+00  1.30000000E+00
  1.70000000E+00  1.30000000E+00  1.30000000E+00  1.30000000E+00  1.30000000E+00
  1.70000000E+00  1.70000000E+00  1.30000000E+00  1.30000000E+00  1.30000000E+00
  1.70000000E+00  1.30000000E+00  1.30000000E+00  1.30000000E+00  1.30000000E+00
  1.80000000E+00  1.70000000E+00  1.70000000E+00  1.70000000E+00  1.70000000E+00
  1.70000000E+00  1.70000000E+00  1.70000000E+00  1.70000000E+00  1.80000000E+00
  1.70000000E+00  1.30000000E+00  1.70000000E+00  1.70000000E+00  1.30000000E+00
  1.70000000E+00  1.70000000E+00  1.70000000E+00  1.30000000E+00  1.70000000E+00
  1.30000000E+00  1.30000000E+00  1.30000000E+00  1.70000000E+00  1.70000000E+00
  1.70000000E+00  1.70000000E+00  1.30000000E+00  1.70000000E+00  1.30000000E+00
  1.70000000E+00  1.30000000E+00  1.30000000E+00  1.70000000E+00  1.30000000E+00
  1.30000000E+00  1.70000000E+00  1.30000000E+00  1.30000000E+00  1.30000000E+00
  1.70000000E+00  1.30000000E+00  1.30000000E+00  1.70000000E+00  1.30000000E+00
  1.30000000E+00  1.70000000E+00  1.30000000E+00  1.30000000E+00  1.70000000E+00
  1.30000000E+00  1.30000000E+00  1.30000000E+00  1.30000000E+00  1.70000000E+00
  1.70000000E+00  1.30000000E+00  1.30000000E+00  1.30000000E+00  1.70000000E+00
  1.30000000E+00  1.30000000E+00  1.30000000E+00  1.30000000E+00  1.80000000E+00
  1.70000000E+00  1.70000000E+00  1.70000000E+00  1.70000000E+00  1.70000000E+00
  1.70000000E+00  1.70000000E+00  1.70000000E+00  1.80000000E+00  1.70000000E+00
  1.30000000E+00  1.70000000E+00  1.70000000E+00  1.30000000E+00  1.70000000E+00
  1.70000000E+00  1.70000000E+00  1.30000000E+00  1.70000000E+00  1.30000000E+00
  1.30000000E+00  1.30000000E+00  1.70000000E+00  1.70000000E+00  1.70000000E+00
  1.70000000E+00  1.30000000E+00  1.70000000E+00  1.30000000E+00  1.70000000E+00
  1.30000000E+00  1.30000000E+00  1.70000000E+00  1.30000000E+00  1.30000000E+00
  1.70000000E+00  1.30000000E+00  1.30000000E+00  1.30000000E+00  1.70000000E+00
  1.30000000E+00  1.30000000E+00  1.70000000E+00  1.30000000E+00  1.30000000E+00
  1.70000000E+00  1.30000000E+00  1.30000000E+00  1.70000000E+00  1.30000000E+00
  1.30000000E+00  1.30000000E+00  1.30000000E+00  1.70000000E+00  1.70000000E+00
  1.30000000E+00  1.30000000E+00  1.30000000E+00  1.70000000E+00  1.30000000E+00
  1.30000000E+00  1.30000000E+00  1.30000000E+00  1.80000000E+00  1.70000000E+00
  1.70000000E+00  1.70000000E+00  1.70000000E+00  1.70000000E+00  1.70000000E+00
  1.70000000E+00  1.70000000E+00  1.80000000E+00  1.70000000E+00  1.30000000E+00
  1.70000000E+00  1.70000000E+00  1.30000000E+00  1.70000000E+00  1.70000000E+00
  1.70000000E+00  1.30000000E+00  1.70000000E+00  1.30000000E+00  1.30000000E+00
  1.30000000E+00  1.70000000E+00  1.70000000E+00  1.70000000E+00  1.70000000E+00
  1.30000000E+00  1.70000000E+00  1.30000000E+00  1.70000000E+00  1.30000000E+00
  1.30000000E+00  1.70000000E+00  1.30000000E+00  1.30000000E+00  1.70000000E+00
  1.30000000E+00  1.30000000E+00  1.30000000E+00  1.70000000E+00  1.30000000E+00
  1.30000000E+00  1.70000000E+00  1.30000000E+00  1.30000000E+00  1.70000000E+00
  1.30000000E+00  1.30000000E+00  1.70000000E+00  1.30000000E+00  1.30000000E+00
  1.30000000E+00  1.30000000E+00  1.70000000E+00  1.70000000E+00  1.30000000E+00
  1.30000000E+00  1.30000000E+00  1.70000000E+00  1.30000000E+00  1.30000000E+00
  1.30000000E+00  1.30000000E+00  1.80000000E+00  1.70000000E+00  1.70000000E+00
  1.70000000E+00  1.70000000E+00  1.70000000E+00  1.70000000E+00  1.70000000E+00
  1.70000000E+00  1.80000000E+00  1.70000000E+00  1.30000000E+00  1.70000000E+00
  1.70000000E+00  1.30000000E+00  1.70000000E+00  1.70000000E+00  1.70000000E+00
  1.30000000E+00  1.70000000E+00  1.30000000E+00  1.30000000E+00  1.30000000E+00
  1.70000000E+00  1.70000000E+00  1.70000000E+00  1.70000000E+00  1.30000000E+00
  1.70000000E+00  1.30000000E+00  1.70000000E+00  1.30000000E+00  1.30000000E+00
  1.70000000E+00  1.30000000E+00  1.30000000E+00  1.70000000E+00  1.30000000E+00
  1.30000000E+00  1.30000000E+00  1.70000000E+00  1.30000000E+00  1.30000000E+00
  1.70000000E+00  1.30000000E+00  1.30000000E+00  1.70000000E+00  1.30000000E+00
  1.30000000E+00  1.70000000E+00  1.30000000E+00  1.30000000E+00  1.30000000E+00
  1.30000000E+00  1.70000000E+00  1.70000000E+00  1.30000000E+00  1.30000000E+00
  1.30000000E+00  1.70000000E+00  1.30000000E+00  1.30000000E+00  1.30000000E+00
  1.30000000E+00  1.80000000E+00  1.70000000E+00  1.70000000E+00  1.70000000E+00
  1.70000000E+00  1.70000000E+00  1.70000000E+00  1.70000000E+00  1.70000000E+00
  1.80000000E+00  1.70000000E+00  1.30000000E+00  1.70000000E+00  1.70000000E+00
  1.30000000E+00  1.70000000E+00  1.70000000E+00  1.70000000E+00  1.30000000E+00
  1.70000000E+00  1.30000000E+00  1.30000000E+00  1.30000000E+00  1.70000000E+00
  1.70000000E+00  1.70000000E+00  1.70000000E+00  1.30000000E+00  1.70000000E+00
  1.30000000E+00  1.70000000E+00  1.30000000E+00  1.30000000E+00  1.70000000E+00
  1.30000000E+00  1.30000000E+00  1.70000000E+00  1.30000000E+00  1.30000000E+00
  1.30000000E+00  1.70000000E+00  1.30000000E+00  1.30000000E+00  1.70000000E+00
  1.30000000E+00  1.30000000E+00  1.70000000E+00  1.30000000E+00  1.30000000E+00
  1.70000000E+00  1.30000000E+00  1.30000000E+00  1.30000000E+00  1.30000000E+00
  1.70000000E+00  1.70000000E+00  1.30000000E+00  1.30000000E+00  1.30000000E+00
  1.70000000E+00  1.30000000E+00  1.30000000E+00  1.30000000E+00  1.30000000E+00
  1.80000000E+00  1.70000000E+00  1.70000000E+00  1.70000000E+00  1.70000000E+00
  1.70000000E+00  1.70000000E+00  1.70000000E+00  1.70000000E+00  1.80000000E+00
  1.70000000E+00  1.30000000E+00  1.70000000E+00  1.70000000E+00  1.30000000E+00
  1.70000000E+00  1.70000000E+00  1.70000000E+00  1.30000000E+00  1.70000000E+00
  1.30000000E+00  1.30000000E+00  1.30000000E+00  1.70000000E+00  1.70000000E+00
  1.70000000E+00  1.70000000E+00  1.30000000E+00  1.70000000E+00  1.30000000E+00
  1.70000000E+00  1.30000000E+00  1.30000000E+00  1.70000000E+00  1.30000000E+00
  1.30000000E+00  1.70000000E+00  1.30000000E+00  1.30000000E+00  1.30000000E+00
  1.70000000E+00  1.30000000E+00  1.30000000E+00  1.70000000E+00  1.30000000E+00
  1.30000000E+00  1.70000000E+00  1.30000000E+00  1.30000000E+00  1.70000000E+00
  1.30000000E+00  1.30000000E+00  1.30000000E+00  1.30000000E+00  1.70000000E+00
  1.70000000E+00  1.30000000E+00  1.30000000E+00  1.30000000E+00  1.70000000E+00
  1.30000000E+00  1.30000000E+00  1.30000000E+00  1.30000000E+00  1.80000000E+00
  1.70000000E+00  1.70000000E+00  1.70000000E+00  1.70000000E+00  1.70000000E+00
  1.70000000E+00  1.70000000E+00  1.70000000E+00  1.80000000E+00  1.70000000E+00
  1.30000000E+00  1.70000000E+00  1.70000000E+00  1.30000000E+00  1.70000000E+00
  1.70000000E+00  1.70000000E+00  1.30000000E+00  1.70000000E+00  1.30000000E+00
  1.30000000E+00  1.30000000E+00  1.70000000E+00  1.70000000E+00  1.70000000E+00
  1.70000000E+00  1.30000000E+00  1.70000000E+00  1.30000000E+00  1.70000000E+00
  1.30000000E+00  1.30000000E+00  1.70000000E+00  1.30000000E+00  1.30000000E+00
  1.70000000E+00  1.30000000E+00  1.30000000E+00  1.30000000E+00  1.70000000E+00
  1.30000000E+00  1.30000000E+00  1.70000000E+00  1.30000000E+00  1.30000000E+00
  1.70000000E+00  1.30000000E+00  1.30000000E+00  1.70000000E+00  1.30000000E+00
  1.30000000E+00  1.30000000E+00  1.30000000E+00  1.70000000E+00  1.70000000E+00
  1.30000000E+00  1.30000000E+00  1.30000000E+00  1.70000000E+00  1.30000000E+00
  1.30000000E+00  1.30000000E+00  1.30000000E+00  1.80000000E+00  1.70000000E+00
  1.70000000E+00  1.70000000E+00  1.70000000E+00  1.70000000E+00  1.70000000E+00
  1.70000000E+00  1.70000000E+00  1.80000000E+00  1.70000000E+00  1.30000000E+00
  1.70000000E+00  1.70000000E+00  1.30000000E+00  1.70000000E+00  1.70000000E+00
  1.70000000E+00  1.30000000E+00  1.70000000E+00  1.30000000E+00  1.30000000E+00
  1.30000000E+00  1.70000000E+00  1.70000000E+00  1.70000000E+00  1.70000000E+00
  1.30000000E+00  1.70000000E+00  1.30000000E+00  1.70000000E+00  1.30000000E+00
  1.30000000E+00  1.70000000E+00  1.30000000E+00  1.30000000E+00  1.70000000E+00
  1.30000000E+00  1.30000000E+00  1.30000000E+00  1.70000000E+00  1.30000000E+00
  1.30000000E+00  1.70000000E+00  1.30000000E+00  1.30000000E+00  1.70000000E+00
  1.30000000E+00  1.30000000E+00  1.70000000E+00  1.30000000E+00  1.30000000E+00
  1.30000000E+00  1.30000000E+00  1.70000000E+00  1.70000000E+00  1.30000000E+00
  1.30000000E+00  1.30000000E+00  1.70000000E+00  1.30000000E+00  1.30000000E+00
  1.30000000E+00  1.30000000E+00  1.80000000E+00  1.70000000E+00  1.70000000E+00
  1.70000000E+00  1.70000000E+00  1.70000000E+00  1.70000000E+00  1.70000000E+00
  1.70000000E+00  1.80000000E+00  1.70000000E+00  1.30000000E+00  1.70000000E+00
  1.70000000E+00  1.30000000E+00  1.70000000E+00  1.70000000E+00  1.70000000E+00
  1.30000000E+00  1.70000000E+00  1.30000000E+00  1.30000000E+00  1.30000000E+00
  1.70000000E+00  1.70000000E+00  1.70000000E+00  1.70000000E+00  1.30000000E+00
  1.70000000E+00  1.30000000E+00  1.70000000E+00  1.30000000E+00  1.30000000E+00
  1.70000000E+00  1.30000000E+00  1.30000000E+00  1.70000000E+00  1.30000000E+00
  1.30000000E+00  1.30000000E+00  1.70000000E+00  1.30000000E+00  1.30000000E+00
  1.70000000E+00  1.30000000E+00  1.30000000E+00  1.70000000E+00  1.30000000E+00
  1.30000000E+00  1.70000000E+00  1.30000000E+00  1.30000000E+00  1.30000000E+00
  1.30000000E+00  1.70000000E+00  1.70000000E+00  1.30000000E+00  1.30000000E+00
  1.30000000E+00  1.70000000E+00  1.30000000E+00  1.30000000E+00  1.30000000E+00
  1.30000000E+00  1.80000000E+00  1.70000000E+00  1.70000000E+00  1.70000000E+00
  1.70000000E+00  1.70000000E+00  1.70000000E+00  1.70000000E+00  1.70000000E+00
  1.80000000E+00  1.70000000E+00  1.30000000E+00  1.70000000E+00  1.70000000E+00
  1.30000000E+00  1.70000000E+00  1.70000000E+00  1.70000000E+00  1.30000000E+00
  1.70000000E+00  1.30000000E+00  1.30000000E+00  1.30000000E+00  1.70000000E+00
  1.70000000E+00  1.70000000E+00  1.70000000E+00  1.30000000E+00  1.70000000E+00
  1.30000000E+00  1.70000000E+00  1.30000000E+00  1.30000000E+00  1.70000000E+00
  1.30000000E+00  1.30000000E+00  1.70000000E+00  1.30000000E+00  1.30000000E+00
  1.30000000E+00  1.70000000E+00  1.30000000E+00  1.30000000E+00  1.70000000E+00
  1.30000000E+00  1.30000000E+00  1.70000000E+00  1.30000000E+00  1.30000000E+00
  1.70000000E+00  1.30000000E+00  1.30000000E+00  1.30000000E+00  1.30000000E+00
  1.70000000E+00  1.70000000E+00  1.30000000E+00  1.30000000E+00  1.30000000E+00
  1.70000000E+00  1.30000000E+00  1.30000000E+00  1.30000000E+00  1.30000000E+00
  1.80000000E+00  1.70000000E+00  1.70000000E+00  1.70000000E+00  1.70000000E+00
  1.70000000E+00  1.70000000E+00  1.70000000E+00  1.70000000E+00  1.80000000E+00
  1.70000000E+00  1.30000000E+00  1.70000000E+00  1.70000000E+00  1.30000000E+00
  1.70000000E+00  1.70000000E+00  1.70000000E+00  1.30000000E+00  1.70000000E+00
  1.30000000E+00  1.30000000E+00  1.30000000E+00  1.70000000E+00  1.70000000E+00
  1.70000000E+00  1.70000000E+00  1.30000000E+00  1.70000000E+00  1.30000000E+00
  1.70000000E+00  1.30000000E+00  1.30000000E+00  1.70000000E+00  1.30000000E+00
  1.30000000E+00  1.70000000E+00  1.30000000E+00  1.30000000E+00  1.30000000E+00
  1.70000000E+00  1.30000000E+00  1.30000000E+00  1.70000000E+00  1.30000000E+00
  1.30000000E+00  1.70000000E+00  1.30000000E+00  1.30000000E+00  1.70000000E+00
  1.30000000E+00  1.30000000E+00  1.30000000E+00  1.30000000E+00  1.70000000E+00
  1.70000000E+00  1.30000000E+00  1.30000000E+00  1.30000000E+00  1.70000000E+00
  1.30000000E+00  1.30000000E+00  1.30000000E+00  1.30000000E+00  1.80000000E+00
  1.70000000E+00  1.70000000E+00  1.70000000E+00  1.70000000E+00  1.70000000E+00
  1.70000000E+00  1.70000000E+00  1.70000000E+00  1.80000000E+00  1.70000000E+00
  1.30000000E+00  1.70000000E+00  1.70000000E+00  1.30000000E+00  1.70000000E+00
  1.70000000E+00  1.70000000E+00  1.30000000E+00  1.70000000E+00  1.30000000E+00
  1.30000000E+00  1.30000000E+00  1.70000000E+00  1.70000000E+00  1.70000000E+00
  1.70000000E+00  1.30000000E+00  1.70000000E+00  1.30000000E+00  1.70000000E+00
  1.30000000E+00  1.30000000E+00  1.70000000E+00  1.30000000E+00  1.30000000E+00
  1.70000000E+00  1.30000000E+00  1.30000000E+00  1.30000000E+00  1.70000000E+00
  1.30000000E+00  1.30000000E+00  1.70000000E+00  1.30000000E+00  1.30000000E+00
  1.70000000E+00  1.30000000E+00  1.30000000E+00  1.70000000E+00  1.30000000E+00
  1.30000000E+00  1.30000000E+00  1.30000000E+00  1.70000000E+00  1.70000000E+00
  1.30000000E+00  1.30000000E+00  1.30000000E+00  1.70000000E+00  1.30000000E+00
  1.30000000E+00  1.30000000E+00  1.30000000E+00  1.80000000E+00  1.70000000E+00
  1.70000000E+00  1.70000000E+00  1.70000000E+00  1.70000000E+00  1.70000000E+00
  1.70000000E+00  1.70000000E+00  1.80000000E+00  1.70000000E+00  1.30000000E+00
  1.70000000E+00  1.70000000E+00  1.30000000E+00  1.70000000E+00  1.70000000E+00
  1.70000000E+00  1.30000000E+00  1.70000000E+00  1.30000000E+00  1.30000000E+00
  1.30000000E+00  1.70000000E+00  1.70000000E+00  1.70000000E+00  1.70000000E+00
  1.30000000E+00  1.70000000E+00  1.30000000E+00  1.70000000E+00  1.30000000E+00
  1.30000000E+00  1.70000000E+00  1.30000000E+00  1.30000000E+00  1.70000000E+00
  1.30000000E+00  1.30000000E+00  1.30000000E+00  1.70000000E+00  1.30000000E+00
  1.30000000E+00  1.70000000E+00  1.30000000E+00  1.30000000E+00  1.70000000E+00
  1.30000000E+00  1.30000000E+00  1.70000000E+00  1.30000000E+00  1.30000000E+00
  1.30000000E+00  1.30000000E+00  1.70000000E+00  1.70000000E+00  1.30000000E+00
  1.30000000E+00  1.30000000E+00  1.70000000E+00  1.30000000E+00  1.30000000E+00
  1.30000000E+00  1.30000000E+00  1.80000000E+00  1.70000000E+00  1.70000000E+00
  1.70000000E+00  1.70000000E+00  1.70000000E+00  1.70000000E+00  1.70000000E+00
  1.70000000E+00  1.80000000E+00  1.70000000E+00  1.30000000E+00  1.70000000E+00
  1.70000000E+00  1.30000000E+00  1.70000000E+00  1.70000000E+00  1.70000000E+00
  1.30000000E+00  1.70000000E+00  1.30000000E+00  1.30000000E+00  1.30000000E+00
  1.70000000E+00  1.70000000E+00  1.70000000E+00  1.70000000E+00  1.30000000E+00
  1.70000000E+00  1.30000000E+00  1.70000000E+00  1.30000000E+00  1.30000000E+00
  1.70000000E+00  1.30000000E+00  1.30000000E+00  1.70000000E+00  1.30000000E+00
  1.30000000E+00  1.30000000E+00  1.70000000E+00  1.30000000E+00  1.30000000E+00
  1.70000000E+00  1.30000000E+00  1.30000000E+00  1.70000000E+00  1.30000000E+00
  1.30000000E+00  1.70000000E+00  1.30000000E+00  1.30000000E+00  1.30000000E+00
  1.30000000E+00  1.70000000E+00  1.70000000E+00  1.30000000E+00  1.30000000E+00
  1.30000000E+00  1.70000000E+00  1.30000000E+00  1.30000000E+00  1.30000000E+00
  1.30000000E+00  1.80000000E+00  1.70000000E+00  1.70000000E+00  1.70000000E+00
  1.70000000E+00  1.70000000E+00  1.70000000E+00  1.70000000E+00  1.70000000E+00
  1.80000000E+00  1.70000000E+00  1.30000000E+00  1.70000000E+00  1.70000000E+00
  1.30000000E+00  1.70000000E+00  1.70000000E+00  1.70000000E+00  1.30000000E+00
  1.70000000E+00  1.30000000E+00  1.30000000E+00  1.30000000E+00  1.70000000E+00
  1.70000000E+00  1.70000000E+00  1.70000000E+00  1.30000000E+00  1.70000000E+00
  1.30000000E+00  1.70000000E+00  1.30000000E+00  1.30000000E+00  1.70000000E+00
  1.30000000E+00  1.30000000E+00  1.70000000E+00  1.30000000E+00  1.30000000E+00
  1.30000000E+00  1.70000000E+00  1.30000000E+00  1.30000000E+00  1.70000000E+00
  1.30000000E+00  1.30000000E+00  1.70000000E+00  1.30000000E+00  1.30000000E+00
  1.70000000E+00  1.30000000E+00  1.30000000E+00  1.30000000E+00  1.30000000E+00
  1.70000000E+00  1.70000000E+00  1.30000000E+00  1.30000000E+00  1.30000000E+00
  1.70000000E+00  1.30000000E+00  1.30000000E+00  1.30000000E+00  1.30000000E+00
  1.80000000E+00  1.70000000E+00  1.70000000E+00  1.70000000E+00  1.70000000E+00
  1.70000000E+00  1.70000000E+00  1.70000000E+00  1.70000000E+00  1.80000000E+00
  1.70000000E+00  1.30000000E+00  1.70000000E+00  1.70000000E+00  1.30000000E+00
  1.70000000E+00  1.70000000E+00  1.70000000E+00  1.30000000E+00  1.70000000E+00
  1.30000000E+00  1.30000000E+00  1.30000000E+00  1.70000000E+00  1.70000000E+00
  1.70000000E+00  1.70000000E+00  1.30000000E+00  1.70000000E+00  1.30000000E+00
  1.70000000E+00  1.30000000E+00  1.30000000E+00  1.70000000E+00  1.30000000E+00
  1.30000000E+00  1.70000000E+00  1.30000000E+00  1.30000000E+00  1.30000000E+00
  1.70000000E+00  1.30000000E+00  1.30000000E+00  1.70000000E+00  1.30000000E+00
  1.30000000E+00  1.70000000E+00  1.30000000E+00  1.30000000E+00  1.70000000E+00
  1.30000000E+00  1.30000000E+00  1.30000000E+00  1.30000000E+00  1.70000000E+00
  1.70000000E+00  1.30000000E+00  1.30000000E+00  1.30000000E+00  1.70000000E+00
  1.30000000E+00  1.30000000E+00  1.30000000E+00  1.30000000E+00  1.80000000E+00
  1.70000000E+00  1.70000000E+00  1.70000000E+00  1.70000000E+00  1.70000000E+00
  1.70000000E+00  1.70000000E+00  1.70000000E+00  1.80000000E+00  1.70000000E+00
  1.30000000E+00  1.70000000E+00  1.70000000E+00  1.30000000E+00  1.70000000E+00
  1.70000000E+00  1.70000000E+00  1.30000000E+00  1.70000000E+00  1.30000000E+00
  1.30000000E+00  1.30000000E+00  1.70000000E+00  1.70000000E+00  1.70000000E+00
  1.70000000E+00  1.30000000E+00  1.70000000E+00  1.30000000E+00  1.70000000E+00
  1.30000000E+00  1.30000000E+00  1.70000000E+00  1.30000000E+00  1.30000000E+00
  1.70000000E+00  1.30000000E+00  1.30000000E+00  1.30000000E+00  1.70000000E+00
  1.30000000E+00  1.30000000E+00  1.70000000E+00  1.30000000E+00  1.30000000E+00
  1.70000000E+00  1.30000000E+00  1.30000000E+00  1.70000000E+00  1.30000000E+00
  1.30000000E+00  1.30000000E+00  1.30000000E+00  1.70000000E+00  1.70000000E+00
  1.30000000E+00  1.30000000E+00  1.30000000E+00  1.70000000E+00  1.30000000E+00
  1.30000000E+00  1.30000000E+00  1.30000000E+00  1.80000000E+00  1.70000000E+00
  1.70000000E+00  1.70000000E+00  1.70000000E+00  1.70000000E+00  1.70000000E+00
  1.70000000E+00  1.70000000E+00  1.80000000E+00  1.70000000E+00  1.30000000E+00
  1.70000000E+00  1.70000000E+00  1.30000000E+00  1.70000000E+00  1.70000000E+00
  1.70000000E+00  1.30000000E+00  1.70000000E+00  1.30000000E+00  1.30000000E+00
  1.30000000E+00  1.70000000E+00  1.70000000E+00  1.70000000E+00  1.70000000E+00
  1.30000000E+00  1.70000000E+00  1.30000000E+00  1.70000000E+00  1.30000000E+00
  1.30000000E+00  1.70000000E+00  1.30000000E+00  1.30000000E+00  1.70000000E+00
  1.30000000E+00  1.30000000E+00  1.30000000E+00  1.70000000E+00  1.30000000E+00
  1.30000000E+00  1.70000000E+00  1.30000000E+00  1.30000000E+00  1.70000000E+00
  1.30000000E+00  1.30000000E+00  1.70000000E+00  1.30000000E+00  1.30000000E+00
  1.30000000E+00  1.30000000E+00  1.70000000E+00  1.70000000E+00  1.30000000E+00
  1.30000000E+00  1.30000000E+00  1.70000000E+00  1.30000000E+00  1.30000000E+00
  1.30000000E+00  1.30000000E+00  1.80000000E+00  1.70000000E+00  1.70000000E+00
  1.70000000E+00  1.70000000E+00  1.70000000E+00  1.70000000E+00  1.70000000E+00
  1.70000000E+00  1.80000000E+00  1.70000000E+00  1.30000000E+00  1.70000000E+00
  1.70000000E+00  1.30000000E+00  1.70000000E+00  1.70000000E+00  1.70000000E+00
  1.30000000E+00  1.70000000E+00  1.30000000E+00  1.30000000E+00  1.30000000E+00
  1.70000000E+00  1.70000000E+00  1.70000000E+00  1.70000000E+00  1.30000000E+00
  1.70000000E+00  1.30000000E+00  1.70000000E+00  1.30000000E+00  1.30000000E+00
  1.70000000E+00  1.30000000E+00  1.30000000E+00  1.70000000E+00  1.30000000E+00
  1.30000000E+00  1.30000000E+00  1.70000000E+00  1.30000000E+00  1.30000000E+00
  1.70000000E+00  1.30000000E+00  1.30000000E+00  1.70000000E+00  1.30000000E+00
  1.30000000E+00  1.70000000E+00  1.30000000E+00  1.30000000E+00  1.30000000E+00
  1.30000000E+00  1.70000000E+00  1.70000000E+00  1.30000000E+00  1.30000000E+00
  1.30000000E+00  1.70000000E+00  1.30000000E+00  1.30000000E+00  1.30000000E+00
  1.30000000E+00  1.80000000E+00  1.70000000E+00  1.70000000E+00  1.70000000E+00
  1.70000000E+00  1.70000000E+00  1.70000000E+00  1.70000000E+00  1.70000000E+00
  1.80000000E+00  1.70000000E+00  1.30000000E+00  1.70000000E+00  1.70000000E+00
  1.30000000E+00  1.70000000E+00  1.70000000E+00  1.70000000E+00  1.30000000E+00
  1.70000000E+00  1.30000000E+00  1.30000000E+00  1.30000000E+00  1.70000000E+00
  1.70000000E+00  1.70000000E+00  1.70000000E+00  1.30000000E+00  1.70000000E+00
  1.30000000E+00  1.70000000E+00  1.30000000E+00  1.30000000E+00  1.70000000E+00
  1.30000000E+00  1.30000000E+00  1.70000000E+00  1.30000000E+00  1.30000000E+00
  1.30000000E+00  1.70000000E+00  1.30000000E+00  1.30000000E+00  1.70000000E+00
  1.30000000E+00  1.30000000E+00  1.70000000E+00  1.30000000E+00  1.30000000E+00
  1.70000000E+00  1.30000000E+00  1.30000000E+00  1.30000000E+00  1.30000000E+00
  1.70000000E+00  1.70000000E+00  1.30000000E+00  1.30000000E+00  1.30000000E+00
  1.70000000E+00  1.30000000E+00  1.30000000E+00  1.30000000E+00  1.30000000E+00
  1.80000000E+00  1.70000000E+00  1.70000000E+00  1.70000000E+00  1.70000000E+00
  1.70000000E+00  1.70000000E+00  1.70000000E+00  1.70000000E+00  1.80000000E+00
  1.70000000E+00  1.30000000E+00  1.70000000E+00  1.70000000E+00  1.30000000E+00
  1.70000000E+00  1.70000000E+00  1.70000000E+00  1.30000000E+00  1.70000000E+00
  1.30000000E+00  1.30000000E+00  1.30000000E+00  1.70000000E+00  1.70000000E+00
  1.70000000E+00  1.70000000E+00  1.30000000E+00  1.70000000E+00  1.30000000E+00
  1.70000000E+00  1.30000000E+00  1.30000000E+00  1.70000000E+00  1.30000000E+00
  1.30000000E+00  1.70000000E+00  1.30000000E+00  1.30000000E+00  1.30000000E+00
  1.70000000E+00  1.30000000E+00  1.30000000E+00  1.70000000E+00  1.30000000E+00
  1.30000000E+00  1.70000000E+00  1.30000000E+00  1.30000000E+00  1.70000000E+00
  1.30000000E+00  1.30000000E+00  1.30000000E+00  1.30000000E+00  1.70000000E+00
  1.70000000E+00  1.30000000E+00  1.30000000E+00  1.30000000E+00  1.70000000E+00
  1.30000000E+00  1.30000000E+00  1.30000000E+00  1.30000000E+00  1.80000000E+00
  1.70000000E+00  1.70000000E+00  1.70000000E+00  1.70000000E+00  1.70000000E+00
  1.70000000E+00  1.70000000E+00  1.70000000E+00  1.80000000E+00  1.70000000E+00
  1.30000000E+00  1.70000000E+00  1.70000000E+00  1.30000000E+00  1.70000000E+00
  1.70000000E+00  1.70000000E+00  1.30000000E+00  1.70000000E+00  1.30000000E+00
  1.30000000E+00  1.30000000E+00  1.70000000E+00  1.70000000E+00  1.70000000E+00
  1.70000000E+00  1.30000000E+00  1.70000000E+00  1.30000000E+00  1.70000000E+00
  1.30000000E+00  1.30000000E+00  1.70000000E+00  1.30000000E+00  1.30000000E+00
  1.70000000E+00  1.30000000E+00  1.30000000E+00  1.30000000E+00  1.70000000E+00
  1.30000000E+00  1.30000000E+00  1.70000000E+00  1.30000000E+00  1.30000000E+00
  1.70000000E+00  1.30000000E+00  1.30000000E+00  1.70000000E+00  1.30000000E+00
  1.30000000E+00  1.30000000E+00  1.30000000E+00  1.70000000E+00  1.70000000E+00
  1.30000000E+00  1.30000000E+00  1.30000000E+00  1.70000000E+00  1.30000000E+00
  1.30000000E+00  1.30000000E+00  1.30000000E+00  1.80000000E+00  1.70000000E+00
  1.70000000E+00  1.70000000E+00  1.70000000E+00  1.70000000E+00  1.70000000E+00
  1.70000000E+00  1.70000000E+00  1.80000000E+00  1.70000000E+00  1.30000000E+00
  1.70000000E+00  1.70000000E+00  1.30000000E+00  1.70000000E+00  1.70000000E+00
  1.70000000E+00  1.30000000E+00  1.70000000E+00  1.30000000E+00  1.30000000E+00
  1.30000000E+00  1.70000000E+00  1.70000000E+00  1.70000000E+00  1.70000000E+00
  1.30000000E+00  1.70000000E+00  1.30000000E+00  1.70000000E+00  1.30000000E+00
  1.30000000E+00  1.70000000E+00  1.30000000E+00  1.30000000E+00  1.70000000E+00
  1.30000000E+00  1.30000000E+00  1.30000000E+00  1.70000000E+00  1.30000000E+00
  1.30000000E+00  1.70000000E+00  1.30000000E+00  1.30000000E+00  1.70000000E+00
  1.30000000E+00  1.30000000E+00  1.70000000E+00  1.30000000E+00  1.30000000E+00
  1.30000000E+00  1.30000000E+00  1.70000000E+00  1.70000000E+00  1.30000000E+00
  1.30000000E+00  1.30000000E+00  1.70000000E+00  1.30000000E+00  1.30000000E+00
  1.30000000E+00  1.30000000E+00  1.80000000E+00  1.70000000E+00  1.70000000E+00
  1.70000000E+00  1.70000000E+00  1.70000000E+00  1.70000000E+00  1.70000000E+00
  1.70000000E+00  1.80000000E+00  1.70000000E+00  1.30000000E+00  1.70000000E+00
  1.70000000E+00  1.30000000E+00  1.70000000E+00  1.70000000E+00  1.70000000E+00
  1.30000000E+00  1.70000000E+00  1.30000000E+00  1.30000000E+00  1.30000000E+00
  1.70000000E+00  1.70000000E+00  1.70000000E+00  1.70000000E+00  1.30000000E+00
  1.70000000E+00  1.30000000E+00  1.70000000E+00  1.30000000E+00  1.30000000E+00
  1.70000000E+00  1.30000000E+00  1.30000000E+00  1.70000000E+00  1.30000000E+00
  1.30000000E+00  1.30000000E+00  1.70000000E+00  1.30000000E+00  1.30000000E+00
  1.70000000E+00  1.30000000E+00  1.30000000E+00  1.70000000E+00  1.30000000E+00
  1.30000000E+00  1.70000000E+00  1.30000000E+00  1.30000000E+00  1.30000000E+00
  1.30000000E+00  1.70000000E+00  1.70000000E+00  1.30000000E+00  1.30000000E+00
  1.30000000E+00  1.70000000E+00  1.30000000E+00  1.30000000E+00  1.30000000E+00
  1.30000000E+00  1.80000000E+00  1.70000000E+00  1.70000000E+00  1.70000000E+00
  1.70000000E+00  1.70000000E+00  1.70000000E+00  1.70000000E+00  1.70000000E+00
  1.80000000E+00  1.70000000E+00  1.30000000E+00  1.70000000E+00  1.70000000E+00
  1.30000000E+00  1.70000000E+00  1.70000000E+00  1.70000000E+00  1.30000000E+00
  1.70000000E+00  1.30000000E+00  1.30000000E+00  1.30000000E+00  1.70000000E+00
  1.70000000E+00  1.70000000E+00  1.70000000E+00  1.30000000E+00  1.70000000E+00
  1.30000000E+00  1.70000000E+00  1.30000000E+00  1.30000000E+00  1.70000000E+00
  1.30000000E+00  1.30000000E+00  1.70000000E+00  1.30000000E+00  1.30000000E+00
  1.30000000E+00  1.70000000E+00  1.30000000E+00  1.30000000E+00  1.70000000E+00
  1.30000000E+00  1.30000000E+00  1.70000000E+00  1.30000000E+00  1.30000000E+00
  1.70000000E+00  1.30000000E+00  1.30000000E+00  1.30000000E+00  1.30000000E+00
  1.70000000E+00  1.70000000E+00  1.30000000E+00  1.30000000E+00  1.30000000E+00
  1.70000000E+00  1.30000000E+00  1.30000000E+00  1.30000000E+00  1.30000000E+00
  1.80000000E+00  1.70000000E+00  1.70000000E+00  1.70000000E+00  1.70000000E+00
  1.70000000E+00  1.70000000E+00  1.70000000E+00  1.70000000E+00  1.80000000E+00
  1.70000000E+00  1.30000000E+00  1.70000000E+00  1.70000000E+00  1.30000000E+00
  1.70000000E+00  1.70000000E+00  1.70000000E+00  1.30000000E+00  1.70000000E+00
  1.30000000E+00  1.30000000E+00  1.30000000E+00  1.70000000E+00  1.70000000E+00
  1.70000000E+00  1.70000000E+00  1.30000000E+00  1.70000000E+00  1.30000000E+00
  1.70000000E+00  1.30000000E+00  1.30000000E+00  1.70000000E+00  1.30000000E+00
  1.30000000E+00  1.70000000E+00  1.30000000E+00  1.30000000E+00  1.30000000E+00
  1.70000000E+00  1.30000000E+00  1.30000000E+00  1.70000000E+00  1.30000000E+00
  1.30000000E+00  1.70000000E+00  1.30000000E+00  1.30000000E+00  1.70000000E+00
  1.30000000E+00  1.30000000E+00  1.30000000E+00  1.30000000E+00  1.70000000E+00
  1.70000000E+00  1.30000000E+00  1.30000000E+00  1.30000000E+00  1.70000000E+00
  1.30000000E+00  1.30000000E+00  1.30000000E+00  1.30000000E+00  1.80000000E+00
  1.70000000E+00  1.70000000E+00  1.70000000E+00  1.70000000E+00  1.70000000E+00
  1.70000000E+00  1.70000000E+00  1.70000000E+00  1.80000000E+00  1.70000000E+00
  1.30000000E+00  1.70000000E+00  1.70000000E+00  1.30000000E+00  1.70000000E+00
  1.70000000E+00  1.70000000E+00  1.30000000E+00  1.70000000E+00  1.30000000E+00
  1.30000000E+00  1.30000000E+00  1.70000000E+00  1.70000000E+00  1.70000000E+00
  1.70000000E+00  1.30000000E+00  1.70000000E+00  1.30000000E+00  1.70000000E+00
  1.30000000E+00  1.30000000E+00  1.70000000E+00  1.30000000E+00  1.30000000E+00
  1.70000000E+00  1.30000000E+00  1.30000000E+00  1.30000000E+00  1.70000000E+00
  1.30000000E+00  1.30000000E+00  1.70000000E+00  1.30000000E+00  1.30000000E+00
  1.70000000E+00  1.30000000E+00  1.30000000E+00  1.70000000E+00  1.30000000E+00
  1.30000000E+00  1.30000000E+00  1.30000000E+00  1.70000000E+00  1.70000000E+00
  1.30000000E+00  1.30000000E+00  1.30000000E+00  1.70000000E+00  1.30000000E+00
  1.30000000E+00  1.30000000E+00  1.30000000E+00  1.80000000E+00  1.70000000E+00
  1.70000000E+00  1.70000000E+00  1.70000000E+00  1.70000000E+00  1.70000000E+00
  1.70000000E+00  1.70000000E+00  1.80000000E+00  1.70000000E+00  1.30000000E+00
  1.70000000E+00  1.70000000E+00  1.30000000E+00  1.70000000E+00  1.70000000E+00
  1.70000000E+00  1.30000000E+00  1.70000000E+00  1.30000000E+00  1.30000000E+00
  1.30000000E+00  1.70000000E+00  1.70000000E+00  1.70000000E+00  1.70000000E+00
  1.30000000E+00  1.70000000E+00  1.30000000E+00  1.70000000E+00  1.30000000E+00
  1.30000000E+00  1.70000000E+00  1.30000000E+00  1.30000000E+00  1.70000000E+00
  1.30000000E+00  1.30000000E+00  1.30000000E+00  1.70000000E+00  1.30000000E+00
  1.30000000E+00  1.70000000E+00  1.30000000E+00  1.30000000E+00  1.70000000E+00
  1.30000000E+00  1.30000000E+00  1.70000000E+00  1.30000000E+00  1.30000000E+00
  1.30000000E+00  1.30000000E+00  1.70000000E+00  1.70000000E+00  1.30000000E+00
  1.30000000E+00  1.30000000E+00  1.70000000E+00  1.30000000E+00  1.30000000E+00
  1.30000000E+00  1.30000000E+00  1.80000000E+00  1.70000000E+00  1.70000000E+00
  1.70000000E+00  1.70000000E+00  1.70000000E+00  1.70000000E+00  1.70000000E+00
  1.70000000E+00  1.80000000E+00  1.70000000E+00  1.30000000E+00  1.70000000E+00
  1.70000000E+00  1.30000000E+00  1.70000000E+00  1.70000000E+00  1.70000000E+00
  1.30000000E+00  1.70000000E+00  1.30000000E+00  1.30000000E+00  1.30000000E+00
  1.70000000E+00  1.70000000E+00  1.70000000E+00  1.70000000E+00  1.30000000E+00
  1.70000000E+00  1.30000000E+00  1.70000000E+00  1.30000000E+00  1.30000000E+00
  1.70000000E+00  1.30000000E+00  1.30000000E+00  1.70000000E+00  1.30000000E+00
  1.30000000E+00  1.30000000E+00  1.70000000E+00  1.30000000E+00  1.30000000E+00
  1.70000000E+00  1.30000000E+00  1.30000000E+00  1.70000000E+00  1.30000000E+00
  1.30000000E+00  1.70000000E+00  1.30000000E+00  1.30000000E+00  1.30000000E+00
  1.30000000E+00  1.70000000E+00  1.70000000E+00  1.30000000E+00  1.30000000E+00
  1.30000000E+00  1.70000000E+00  1.30000000E+00  1.30000000E+00  1.30000000E+00
  1.30000000E+00  1.80000000E+00  1.70000000E+00  1.70000000E+00  1.70000000E+00
  1.70000000E+00  1.70000000E+00  1.70000000E+00  1.70000000E+00  1.70000000E+00
  1.80000000E+00  1.70000000E+00  1.30000000E+00  1.70000000E+00  1.70000000E+00
  1.30000000E+00  1.70000000E+00  1.70000000E+00  1.70000000E+00  1.30000000E+00
  1.70000000E+00  1.30000000E+00  1.30000000E+00  1.30000000E+00  1.70000000E+00
  1.70000000E+00  1.70000000E+00  1.70000000E+00  1.30000000E+00  1.70000000E+00
  1.30000000E+00  1.70000000E+00  1.30000000E+00  1.30000000E+00  1.70000000E+00
  1.30000000E+00  1.30000000E+00  1.70000000E+00  1.30000000E+00  1.30000000E+00
  1.30000000E+00  1.70000000E+00  1.30000000E+00  1.30000000E+00  1.70000000E+00
  1.30000000E+00  1.30000000E+00  1.70000000E+00  1.30000000E+00  1.30000000E+00
  1.70000000E+00  1.30000000E+00  1.30000000E+00  1.30000000E+00  1.30000000E+00
  1.70000000E+00  1.70000000E+00  1.30000000E+00  1.30000000E+00  1.30000000E+00
  1.70000000E+00  1.30000000E+00  1.30000000E+00  1.30000000E+00  1.30000000E+00
  1.80000000E+00  1.70000000E+00  1.70000000E+00  1.70000000E+00  1.70000000E+00
  1.70000000E+00  1.70000000E+00  1.70000000E+00  1.70000000E+00  1.80000000E+00
  1.70000000E+00  1.30000000E+00  1.70000000E+00  1.70000000E+00  1.30000000E+00
  1.70000000E+00  1.70000000E+00  1.70000000E+00  1.30000000E+00  1.70000000E+00
  1.30000000E+00  1.30000000E+00  1.30000000E+00  1.70000000E+00  1.70000000E+00
  1.70000000E+00  1.70000000E+00  1.30000000E+00  1.70000000E+00  1.30000000E+00
  1.70000000E+00  1.30000000E+00  1.30000000E+00  1.70000000E+00  1.30000000E+00
  1.30000000E+00  1.70000000E+00  1.30000000E+00  1.30000000E+00  1.30000000E+00
  1.70000000E+00  1.30000000E+00  1.30000000E+00  1.70000000E+00  1.30000000E+00
  1.30000000E+00  1.70000000E+00  1.30000000E+00  1.30000000E+00  1.70000000E+00
  1.30000000E+00  1.30000000E+00  1.30000000E+00  1.30000000E+00  1.70000000E+00
  1.70000000E+00  1.30000000E+00  1.30000000E+00  1.30000000E+00  1.70000000E+00
  1.30000000E+00  1.30000000E+00  1.30000000E+00  1.30000000E+00  1.80000000E+00
  1.70000000E+00  1.70000000E+00  1.70000000E+00  1.70000000E+00  1.70000000E+00
  1.70000000E+00  1.70000000E+00  1.70000000E+00  1.80000000E+00  1.70000000E+00
  1.30000000E+00  1.70000000E+00  1.70000000E+00  1.30000000E+00  1.70000000E+00
  1.70000000E+00  1.70000000E+00  1.30000000E+00  1.70000000E+00  1.30000000E+00
  1.30000000E+00  1.30000000E+00  1.70000000E+00  1.70000000E+00  1.70000000E+00
  1.70000000E+00  1.30000000E+00  1.70000000E+00  1.30000000E+00  1.70000000E+00
  1.30000000E+00  1.30000000E+00  1.70000000E+00  1.30000000E+00  1.30000000E+00
  1.70000000E+00  1.30000000E+00  1.30000000E+00  1.30000000E+00  1.70000000E+00
  1.30000000E+00  1.30000000E+00  1.70000000E+00  1.30000000E+00  1.30000000E+00
  1.70000000E+00  1.30000000E+00  1.30000000E+00  1.70000000E+00  1.30000000E+00
  1.30000000E+00  1.30000000E+00  1.30000000E+00  1.70000000E+00  1.70000000E+00
  1.30000000E+00  1.30000000E+00  1.30000000E+00  1.70000000E+00  1.30000000E+00
  1.30000000E+00  1.30000000E+00  1.30000000E+00  1.80000000E+00  1.70000000E+00
  1.70000000E+00  1.70000000E+00  1.70000000E+00  1.70000000E+00  1.70000000E+00
  1.70000000E+00  1.70000000E+00  1.80000000E+00  1.70000000E+00  1.30000000E+00
  1.70000000E+00  1.70000000E+00  1.30000000E+00  1.70000000E+00  1.70000000E+00
  1.70000000E+00  1.30000000E+00  1.70000000E+00  1.30000000E+00  1.30000000E+00
  1.30000000E+00  1.70000000E+00  1.70000000E+00  1.70000000E+00  1.70000000E+00
  1.30000000E+00  1.70000000E+00  1.30000000E+00  1.70000000E+00  1.30000000E+00
  1.30000000E+00  1.70000000E+00  1.30000000E+00  1.30000000E+00  1.70000000E+00
  1.30000000E+00  1.30000000E+00  1.30000000E+00  1.70000000E+00  1.30000000E+00
  1.30000000E+00  1.70000000E+00  1.30000000E+00  1.30000000E+00  1.70000000E+00
  1.30000000E+00  1.30000000E+00  1.70000000E+00  1.30000000E+00  1.30000000E+00
  1.30000000E+00  1.30000000E+00  1.70000000E+00  1.70000000E+00  1.30000000E+00
  1.30000000E+00  1.30000000E+00  1.70000000E+00  1.30000000E+00  1.30000000E+00
  1.30000000E+00  1.30000000E+00  1.80000000E+00  1.70000000E+00  1.70000000E+00
  1.70000000E+00  1.70000000E+00  1.70000000E+00  1.70000000E+00  1.70000000E+00
  1.70000000E+00  1.80000000E+00  1.70000000E+00  1.30000000E+00  1.70000000E+00
  1.70000000E+00  1.30000000E+00  1.70000000E+00  1.70000000E+00  1.70000000E+00
  1.30000000E+00  1.70000000E+00  1.30000000E+00  1.30000000E+00  1.30000000E+00
  1.70000000E+00  1.70000000E+00  1.70000000E+00  1.70000000E+00  1.30000000E+00
  1.70000000E+00  1.30000000E+00  1.70000000E+00  1.30000000E+00  1.30000000E+00
  1.70000000E+00  1.30000000E+00  1.30000000E+00  1.70000000E+00  1.30000000E+00
  1.30000000E+00  1.30000000E+00  1.70000000E+00  1.30000000E+00  1.30000000E+00
  1.70000000E+00  1.30000000E+00  1.30000000E+00  1.70000000E+00  1.30000000E+00
  1.30000000E+00  1.70000000E+00  1.30000000E+00  1.30000000E+00  1.30000000E+00
  1.30000000E+00  1.70000000E+00  1.70000000E+00  1.30000000E+00  1.30000000E+00
  1.30000000E+00  1.70000000E+00  1.30000000E+00  1.30000000E+00  1.30000000E+00
  1.30000000E+00  1.80000000E+00  1.70000000E+00  1.70000000E+00  1.70000000E+00
  1.70000000E+00  1.70000000E+00  1.70000000E+00  1.70000000E+00  1.70000000E+00
  1.80000000E+00  1.70000000E+00  1.30000000E+00  1.70000000E+00  1.70000000E+00
  1.30000000E+00  1.70000000E+00  1.70000000E+00  1.70000000E+00  1.30000000E+00
  1.70000000E+00  1.30000000E+00  1.30000000E+00  1.30000000E+00  1.70000000E+00
  1.70000000E+00  1.70000000E+00  1.70000000E+00  1.30000000E+00  1.70000000E+00
  1.30000000E+00  1.70000000E+00  1.30000000E+00  1.30000000E+00  1.70000000E+00
  1.30000000E+00  1.30000000E+00  1.70000000E+00  1.30000000E+00  1.30000000E+00
  1.30000000E+00  1.70000000E+00  1.30000000E+00  1.30000000E+00  1.70000000E+00
  1.30000000E+00  1.30000000E+00  1.70000000E+00  1.30000000E+00  1.30000000E+00
  1.70000000E+00  1.30000000E+00  1.30000000E+00  1.30000000E+00  1.30000000E+00
  1.70000000E+00  1.70000000E+00  1.30000000E+00  1.30000000E+00  1.30000000E+00
  1.70000000E+00  1.30000000E+00  1.30000000E+00  1.30000000E+00  1.30000000E+00
  1.80000000E+00  1.70000000E+00  1.70000000E+00  1.70000000E+00  1.70000000E+00
  1.70000000E+00  1.70000000E+00  1.70000000E+00  1.70000000E+00  1.80000000E+00
  1.70000000E+00  1.30000000E+00  1.70000000E+00  1.70000000E+00  1.30000000E+00
  1.70000000E+00  1.70000000E+00  1.70000000E+00  1.30000000E+00  1.70000000E+00
  1.30000000E+00  1.30000000E+00  1.30000000E+00  1.70000000E+00  1.70000000E+00
  1.70000000E+00  1.70000000E+00  1.30000000E+00  1.70000000E+00  1.30000000E+00
  1.70000000E+00  1.30000000E+00  1.30000000E+00  1.70000000E+00  1.30000000E+00
  1.30000000E+00  1.70000000E+00  1.30000000E+00  1.30000000E+00  1.30000000E+00
  1.70000000E+00  1.30000000E+00  1.30000000E+00  1.70000000E+00  1.30000000E+00
  1.30000000E+00  1.70000000E+00  1.30000000E+00  1.30000000E+00  1.70000000E+00
  1.30000000E+00  1.30000000E+00  1.30000000E+00  1.30000000E+00  1.70000000E+00
  1.70000000E+00  1.30000000E+00  1.30000000E+00  1.30000000E+00  1.70000000E+00
  1.30000000E+00  1.30000000E+00  1.30000000E+00  1.30000000E+00  1.80000000E+00
  1.70000000E+00  1.70000000E+00  1.70000000E+00  1.70000000E+00  1.70000000E+00
  1.70000000E+00  1.70000000E+00  1.70000000E+00  1.80000000E+00  1.70000000E+00
  1.30000000E+00  1.70000000E+00  1.70000000E+00  1.30000000E+00  1.70000000E+00
  1.70000000E+00  1.70000000E+00  1.30000000E+00  1.70000000E+00  1.30000000E+00
  1.30000000E+00  1.30000000E+00  1.70000000E+00  1.70000000E+00  1.70000000E+00
  1.70000000E+00  1.30000000E+00  1.70000000E+00  1.30000000E+00  1.70000000E+00
  1.30000000E+00  1.30000000E+00  1.70000000E+00  1.30000000E+00  1.30000000E+00
  1.70000000E+00  1.30000000E+00  1.30000000E+00  1.30000000E+00  1.70000000E+00
  1.30000000E+00  1.30000000E+00  1.70000000E+00  1.30000000E+00  1.30000000E+00
  1.70000000E+00  1.30000000E+00  1.30000000E+00  1.70000000E+00  1.30000000E+00
  1.30000000E+00  1.30000000E+00  1.30000000E+00  1.70000000E+00  1.70000000E+00
  1.30000000E+00  1.30000000E+00  1.30000000E+00  1.70000000E+00  1.30000000E+00
  1.30000000E+00  1.30000000E+00  1.30000000E+00  1.80000000E+00  1.70000000E+00
  1.70000000E+00  1.70000000E+00  1.70000000E+00  1.70000000E+00  1.70000000E+00
  1.70000000E+00  1.70000000E+00  1.80000000E+00  1.70000000E+00  1.30000000E+00
  1.70000000E+00  1.70000000E+00  1.30000000E+00  1.70000000E+00  1.70000000E+00
  1.70000000E+00  1.30000000E+00  1.70000000E+00  1.30000000E+00  1.30000000E+00
  1.30000000E+00  1.70000000E+00  1.70000000E+00  1.70000000E+00  1.70000000E+00
  1.30000000E+00  1.70000000E+00  1.30000000E+00  1.70000000E+00  1.30000000E+00
  1.30000000E+00  1.70000000E+00  1.30000000E+00  1.30000000E+00  1.70000000E+00
  1.30000000E+00  1.30000000E+00  1.30000000E+00  1.70000000E+00  1.30000000E+00
  1.30000000E+00  1.70000000E+00  1.30000000E+00  1.30000000E+00  1.70000000E+00
  1.30000000E+00  1.30000000E+00  1.70000000E+00  1.30000000E+00  1.30000000E+00
  1.30000000E+00  1.30000000E+00  1.70000000E+00  1.70000000E+00  1.30000000E+00
  1.30000000E+00  1.30000000E+00  1.70000000E+00  1.30000000E+00  1.30000000E+00
  1.30000000E+00  1.30000000E+00  1.80000000E+00  1.70000000E+00  1.70000000E+00
  1.70000000E+00  1.70000000E+00  1.70000000E+00  1.70000000E+00  1.70000000E+00
  1.70000000E+00  1.80000000E+00  1.70000000E+00  1.30000000E+00  1.70000000E+00
  1.70000000E+00  1.30000000E+00  1.70000000E+00  1.70000000E+00  1.70000000E+00
  1.30000000E+00  1.70000000E+00  1.30000000E+00  1.30000000E+00  1.30000000E+00
  1.70000000E+00  1.70000000E+00  1.70000000E+00  1.70000000E+00  1.30000000E+00
  1.70000000E+00  1.30000000E+00  1.70000000E+00  1.30000000E+00  1.30000000E+00
  1.70000000E+00  1.30000000E+00  1.30000000E+00  1.70000000E+00  1.30000000E+00
  1.30000000E+00  1.30000000E+00  1.70000000E+00  1.30000000E+00  1.30000000E+00
  1.70000000E+00  1.30000000E+00  1.30000000E+00  1.70000000E+00  1.30000000E+00
  1.30000000E+00  1.70000000E+00  1.30000000E+00  1.30000000E+00  1.30000000E+00
  1.30000000E+00  1.70000000E+00  1.70000000E+00  1.30000000E+00  1.30000000E+00
  1.30000000E+00  1.70000000E+00  1.30000000E+00  1.30000000E+00  1.30000000E+00
  1.30000000E+00  1.80000000E+00  1.70000000E+00  1.70000000E+00  1.70000000E+00
  1.70000000E+00  1.70000000E+00  1.70000000E+00  1.70000000E+00  1.70000000E+00
  1.80000000E+00  1.70000000E+00  1.30000000E+00  1.70000000E+00  1.70000000E+00
  1.30000000E+00  1.70000000E+00  1.70000000E+00  1.70000000E+00  1.30000000E+00
  1.70000000E+00  1.30000000E+00  1.30000000E+00  1.30000000E+00  1.70000000E+00
  1.70000000E+00  1.70000000E+00  1.70000000E+00  1.30000000E+00  1.70000000E+00
  1.30000000E+00  1.70000000E+00  1.30000000E+00  1.30000000E+00  1.70000000E+00
  1.30000000E+00  1.30000000E+00  1.70000000E+00  1.30000000E+00  1.30000000E+00
  1.30000000E+00  1.70000000E+00  1.30000000E+00  1.30000000E+00  1.70000000E+00
  1.30000000E+00  1.30000000E+00  1.70000000E+00  1.30000000E+00  1.30000000E+00
  1.70000000E+00  1.30000000E+00  1.30000000E+00  1.30000000E+00  1.30000000E+00
  1.70000000E+00  1.70000000E+00  1.30000000E+00  1.30000000E+00  1.30000000E+00
  1.70000000E+00  1.30000000E+00  1.30000000E+00  1.30000000E+00  1.30000000E+00
  1.80000000E+00  1.70000000E+00  1.70000000E+00  1.70000000E+00  1.70000000E+00
  1.70000000E+00  1.70000000E+00  1.70000000E+00  1.70000000E+00  1.80000000E+00
  1.70000000E+00  1.30000000E+00  1.70000000E+00  1.70000000E+00  1.30000000E+00
  1.70000000E+00  1.70000000E+00  1.70000000E+00  1.30000000E+00  1.70000000E+00
  1.30000000E+00  1.30000000E+00  1.30000000E+00  1.70000000E+00  1.70000000E+00
  1.70000000E+00  1.70000000E+00  1.30000000E+00  1.70000000E+00  1.30000000E+00
  1.70000000E+00  1.30000000E+00  1.30000000E+00  1.70000000E+00  1.30000000E+00
  1.30000000E+00  1.70000000E+00  1.30000000E+00  1.30000000E+00  1.30000000E+00
  1.70000000E+00  1.30000000E+00  1.30000000E+00  1.70000000E+00  1.30000000E+00
  1.30000000E+00  1.70000000E+00  1.30000000E+00  1.30000000E+00  1.70000000E+00
  1.30000000E+00  1.30000000E+00  1.30000000E+00  1.30000000E+00  1.70000000E+00
  1.70000000E+00  1.30000000E+00  1.30000000E+00  1.30000000E+00  1.70000000E+00
  1.30000000E+00  1.30000000E+00  1.30000000E+00  1.30000000E+00  1.80000000E+00
  1.70000000E+00  1.70000000E+00  1.70000000E+00  1.70000000E+00  1.70000000E+00
  1.70000000E+00  1.70000000E+00  1.70000000E+00  1.80000000E+00  1.70000000E+00
  1.30000000E+00  1.70000000E+00  1.70000000E+00  1.30000000E+00  1.70000000E+00
  1.70000000E+00  1.70000000E+00  1.30000000E+00  1.70000000E+00  1.30000000E+00
  1.30000000E+00  1.30000000E+00  1.70000000E+00  1.70000000E+00  1.70000000E+00
  1.70000000E+00  1.30000000E+00  1.70000000E+00  1.30000000E+00  1.70000000E+00
  1.30000000E+00  1.30000000E+00  1.70000000E+00  1.30000000E+00  1.30000000E+00
  1.70000000E+00  1.30000000E+00  1.30000000E+00  1.30000000E+00  1.70000000E+00
  1.30000000E+00  1.30000000E+00  1.70000000E+00  1.30000000E+00  1.30000000E+00
  1.70000000E+00  1.30000000E+00  1.30000000E+00  1.70000000E+00  1.30000000E+00
  1.30000000E+00  1.30000000E+00  1.30000000E+00  1.70000000E+00  1.70000000E+00
  1.30000000E+00  1.30000000E+00  1.30000000E+00  1.70000000E+00  1.30000000E+00
  1.30000000E+00  1.30000000E+00  1.30000000E+00  1.80000000E+00  1.70000000E+00
  1.70000000E+00  1.70000000E+00  1.70000000E+00  1.70000000E+00  1.70000000E+00
  1.70000000E+00  1.70000000E+00  1.80000000E+00  1.70000000E+00  1.30000000E+00
  1.70000000E+00  1.70000000E+00  1.30000000E+00  1.70000000E+00  1.70000000E+00
  1.70000000E+00  1.30000000E+00  1.70000000E+00  1.30000000E+00  1.30000000E+00
  1.30000000E+00  1.70000000E+00  1.70000000E+00  1.70000000E+00  1.70000000E+00
  1.30000000E+00  1.70000000E+00  1.30000000E+00  1.70000000E+00  1.30000000E+00
  1.30000000E+00  1.70000000E+00  1.30000000E+00  1.30000000E+00  1.70000000E+00
  1.30000000E+00  1.30000000E+00  1.30000000E+00  1.70000000E+00  1.30000000E+00
  1.30000000E+00  1.70000000E+00  1.30000000E+00  1.30000000E+00  1.70000000E+00
  1.30000000E+00  1.30000000E+00  1.70000000E+00  1.30000000E+00  1.30000000E+00
  1.30000000E+00  1.30000000E+00  1.70000000E+00  1.70000000E+00  1.30000000E+00
  1.30000000E+00  1.30000000E+00  1.70000000E+00  1.30000000E+00  1.30000000E+00
  1.30000000E+00  1.30000000E+00  1.80000000E+00  1.70000000E+00  1.70000000E+00
  1.70000000E+00  1.70000000E+00  1.70000000E+00  1.70000000E+00  1.70000000E+00
  1.70000000E+00  1.80000000E+00  1.70000000E+00  1.30000000E+00  1.70000000E+00
  1.70000000E+00  1.30000000E+00  1.70000000E+00  1.70000000E+00  1.70000000E+00
  1.30000000E+00  1.70000000E+00  1.30000000E+00  1.30000000E+00  1.30000000E+00
  1.70000000E+00  1.70000000E+00  1.70000000E+00  1.70000000E+00  1.30000000E+00
  1.70000000E+00  1.30000000E+00  1.70000000E+00  1.30000000E+00  1.30000000E+00
  1.70000000E+00  1.30000000E+00  1.30000000E+00  1.70000000E+00  1.30000000E+00
  1.30000000E+00  1.30000000E+00  1.70000000E+00  1.30000000E+00  1.30000000E+00
  1.70000000E+00  1.30000000E+00  1.30000000E+00  1.70000000E+00  1.30000000E+00
  1.30000000E+00  1.70000000E+00  1.30000000E+00  1.30000000E+00  1.30000000E+00
  1.30000000E+00  1.70000000E+00  1.70000000E+00  1.30000000E+00  1.30000000E+00
  1.30000000E+00  1.70000000E+00  1.30000000E+00  1.30000000E+00  1.30000000E+00
  1.30000000E+00  1.80000000E+00  1.70000000E+00  1.70000000E+00  1.70000000E+00
  1.70000000E+00  1.70000000E+00  1.70000000E+00  1.70000000E+00  1.70000000E+00
  1.80000000E+00  1.70000000E+00  1.30000000E+00  1.70000000E+00  1.70000000E+00
  1.30000000E+00  1.70000000E+00  1.70000000E+00  1.70000000E+00  1.30000000E+00
  1.70000000E+00  1.30000000E+00  1.30000000E+00  1.30000000E+00  1.70000000E+00
  1.70000000E+00  1.70000000E+00  1.70000000E+00  1.30000000E+00  1.70000000E+00
  1.30000000E+00  1.70000000E+00  1.30000000E+00  1.30000000E+00  1.70000000E+00
  1.30000000E+00  1.30000000E+00  1.70000000E+00  1.30000000E+00  1.30000000E+00
  1.30000000E+00  1.70000000E+00  1.30000000E+00  1.30000000E+00  1.70000000E+00
  1.30000000E+00  1.30000000E+00  1.70000000E+00  1.30000000E+00  1.30000000E+00
  1.70000000E+00  1.30000000E+00  1.30000000E+00  1.30000000E+00  1.30000000E+00
  1.70000000E+00  1.70000000E+00  1.30000000E+00  1.30000000E+00  1.30000000E+00
  1.70000000E+00  1.30000000E+00  1.30000000E+00  1.30000000E+00  1.30000000E+00
  1.80000000E+00  1.70000000E+00  1.70000000E+00  1.70000000E+00  1.70000000E+00
  1.70000000E+00  1.70000000E+00  1.70000000E+00  1.70000000E+00  1.80000000E+00
  1.70000000E+00  1.30000000E+00  1.70000000E+00  1.70000000E+00  1.30000000E+00
  1.70000000E+00  1.70000000E+00  1.70000000E+00  1.30000000E+00  1.70000000E+00
  1.30000000E+00  1.30000000E+00  1.30000000E+00  1.70000000E+00  1.70000000E+00
  1.70000000E+00  1.70000000E+00  1.30000000E+00  1.70000000E+00  1.30000000E+00
  1.70000000E+00  1.30000000E+00  1.30000000E+00  1.70000000E+00  1.30000000E+00
  1.30000000E+00  1.70000000E+00  1.30000000E+00  1.30000000E+00  1.30000000E+00
  1.70000000E+00  1.30000000E+00  1.30000000E+00  1.70000000E+00  1.30000000E+00
  1.30000000E+00  1.70000000E+00  1.30000000E+00  1.30000000E+00  1.70000000E+00
  1.30000000E+00  1.30000000E+00  1.30000000E+00  1.30000000E+00  1.70000000E+00
  1.70000000E+00  1.30000000E+00  1.30000000E+00  1.30000000E+00  1.70000000E+00
  1.30000000E+00  1.30000000E+00  1.30000000E+00  1.30000000E+00  1.80000000E+00
  1.70000000E+00  1.70000000E+00  1.70000000E+00  1.70000000E+00  1.70000000E+00
  1.70000000E+00  1.70000000E+00  1.70000000E+00  1.80000000E+00  1.70000000E+00
  1.30000000E+00  1.70000000E+00  1.70000000E+00  1.30000000E+00  1.70000000E+00
  1.70000000E+00  1.70000000E+00  1.30000000E+00  1.70000000E+00  1.30000000E+00
  1.30000000E+00  1.30000000E+00  1.70000000E+00  1.70000000E+00  1.70000000E+00
  1.70000000E+00  1.30000000E+00  1.70000000E+00  1.30000000E+00  1.70000000E+00
  1.30000000E+00  1.30000000E+00  1.70000000E+00  1.30000000E+00  1.30000000E+00
  1.70000000E+00  1.30000000E+00  1.30000000E+00  1.30000000E+00  1.70000000E+00
  1.30000000E+00  1.30000000E+00  1.70000000E+00  1.30000000E+00  1.30000000E+00
  1.70000000E+00  1.30000000E+00  1.30000000E+00  1.70000000E+00  1.30000000E+00
  1.30000000E+00  1.30000000E+00  1.30000000E+00  1.70000000E+00  1.70000000E+00
  1.30000000E+00  1.30000000E+00  1.30000000E+00  1.70000000E+00  1.30000000E+00
  1.30000000E+00  1.30000000E+00  1.30000000E+00  1.80000000E+00  1.70000000E+00
  1.70000000E+00  1.70000000E+00  1.70000000E+00  1.70000000E+00  1.70000000E+00
  1.70000000E+00  1.70000000E+00  1.80000000E+00  1.70000000E+00  1.30000000E+00
  1.70000000E+00  1.70000000E+00  1.30000000E+00  1.70000000E+00  1.70000000E+00
  1.70000000E+00  1.30000000E+00  1.70000000E+00  1.30000000E+00  1.30000000E+00
  1.30000000E+00  1.70000000E+00  1.70000000E+00  1.70000000E+00  1.70000000E+00
  1.30000000E+00  1.70000000E+00  1.30000000E+00  1.70000000E+00  1.30000000E+00
  1.30000000E+00  1.70000000E+00  1.30000000E+00  1.30000000E+00  1.70000000E+00
  1.30000000E+00  1.30000000E+00  1.30000000E+00  1.70000000E+00  1.30000000E+00
  1.30000000E+00  1.70000000E+00  1.30000000E+00  1.30000000E+00  1.70000000E+00
  1.30000000E+00  1.30000000E+00  1.70000000E+00  1.30000000E+00  1.30000000E+00
  1.30000000E+00  1.30000000E+00  1.70000000E+00  1.70000000E+00  1.30000000E+00
  1.30000000E+00  1.30000000E+00  1.70000000E+00  1.30000000E+00  1.30000000E+00
  1.30000000E+00  1.30000000E+00  1.80000000E+00  1.70000000E+00  1.70000000E+00
  1.70000000E+00  1.70000000E+00  1.70000000E+00  1.70000000E+00  1.70000000E+00
  1.70000000E+00  1.80000000E+00  1.70000000E+00  1.30000000E+00  1.70000000E+00
  1.70000000E+00  1.30000000E+00  1.70000000E+00  1.70000000E+00  1.70000000E+00
  1.30000000E+00  1.70000000E+00  1.30000000E+00  1.30000000E+00  1.30000000E+00
  1.70000000E+00  1.70000000E+00  1.70000000E+00  1.70000000E+00  1.30000000E+00
  1.70000000E+00  1.30000000E+00  1.70000000E+00  1.30000000E+00  1.30000000E+00
  1.70000000E+00  1.30000000E+00  1.30000000E+00  1.70000000E+00  1.30000000E+00
  1.30000000E+00  1.30000000E+00  1.70000000E+00  1.30000000E+00  1.30000000E+00
  1.70000000E+00  1.30000000E+00  1.30000000E+00  1.70000000E+00  1.30000000E+00
  1.30000000E+00  1.70000000E+00  1.30000000E+00  1.30000000E+00  1.30000000E+00
  1.30000000E+00  1.70000000E+00  1.70000000E+00  1.30000000E+00  1.30000000E+00
  1.30000000E+00  1.70000000E+00  1.30000000E+00  1.30000000E+00  1.30000000E+00
  1.30000000E+00  1.80000000E+00  1.70000000E+00  1.70000000E+00  1.70000000E+00
  1.70000000E+00  1.70000000E+00  1.70000000E+00  1.70000000E+00  1.70000000E+00
  1.80000000E+00  1.70000000E+00  1.30000000E+00  1.70000000E+00  1.70000000E+00
  1.30000000E+00  1.70000000E+00  1.70000000E+00  1.70000000E+00  1.30000000E+00
  1.70000000E+00  1.30000000E+00  1.30000000E+00  1.30000000E+00  1.70000000E+00
  1.70000000E+00  1.70000000E+00  1.70000000E+00  1.30000000E+00  1.70000000E+00
  1.30000000E+00  1.70000000E+00  1.30000000E+00  1.30000000E+00  1.70000000E+00
  1.30000000E+00  1.30000000E+00  1.70000000E+00  1.30000000E+00  1.30000000E+00
  1.30000000E+00  1.70000000E+00  1.30000000E+00  1.30000000E+00  1.70000000E+00
  1.30000000E+00  1.30000000E+00  1.70000000E+00  1.30000000E+00  1.30000000E+00
  1.70000000E+00  1.30000000E+00  1.30000000E+00  1.30000000E+00  1.30000000E+00
  1.70000000E+00  1.70000000E+00  1.30000000E+00  1.30000000E+00  1.30000000E+00
  1.70000000E+00  1.30000000E+00  1.30000000E+00  1.30000000E+00  1.30000000E+00
  1.80000000E+00  1.70000000E+00  1.70000000E+00  1.70000000E+00  1.70000000E+00
  1.70000000E+00  1.70000000E+00  1.70000000E+00  1.70000000E+00  1.80000000E+00
  1.70000000E+00  1.30000000E+00  1.70000000E+00  1.70000000E+00  1.30000000E+00
  1.70000000E+00  1.70000000E+00  1.70000000E+00  1.30000000E+00  1.70000000E+00
  1.30000000E+00  1.30000000E+00  1.30000000E+00  1.70000000E+00  1.70000000E+00
  1.70000000E+00  1.70000000E+00  1.30000000E+00  1.70000000E+00  1.30000000E+00
  1.70000000E+00  1.30000000E+00  1.30000000E+00  1.70000000E+00  1.30000000E+00
  1.30000000E+00  1.70000000E+00  1.30000000E+00  1.30000000E+00  1.30000000E+00
  1.70000000E+00  1.30000000E+00  1.30000000E+00  1.70000000E+00  1.30000000E+00
  1.30000000E+00  1.70000000E+00  1.30000000E+00  1.30000000E+00  1.70000000E+00
  1.30000000E+00  1.30000000E+00  1.30000000E+00  1.30000000E+00  1.70000000E+00
  1.70000000E+00  1.30000000E+00  1.30000000E+00  1.30000000E+00  1.70000000E+00
  1.30000000E+00  1.30000000E+00  1.30000000E+00  1.30000000E+00  1.80000000E+00
  1.70000000E+00  1.70000000E+00  1.70000000E+00  1.70000000E+00  1.70000000E+00
  1.70000000E+00  1.70000000E+00  1.70000000E+00  1.80000000E+00  1.70000000E+00
  1.30000000E+00  1.70000000E+00  1.70000000E+00  1.30000000E+00  1.70000000E+00
  1.70000000E+00  1.70000000E+00  1.30000000E+00  1.70000000E+00  1.30000000E+00
  1.30000000E+00  1.30000000E+00  1.70000000E+00  1.70000000E+00  1.70000000E+00
  1.70000000E+00  1.30000000E+00  1.70000000E+00  1.30000000E+00  1.70000000E+00
  1.30000000E+00  1.30000000E+00  1.70000000E+00  1.30000000E+00  1.30000000E+00
  1.70000000E+00  1.30000000E+00  1.30000000E+00  1.30000000E+00  1.70000000E+00
  1.30000000E+00  1.30000000E+00  1.70000000E+00  1.30000000E+00  1.30000000E+00
  1.70000000E+00  1.30000000E+00  1.30000000E+00  1.70000000E+00  1.30000000E+00
  1.30000000E+00  1.30000000E+00  1.30000000E+00  1.70000000E+00  1.70000000E+00
  1.30000000E+00  1.30000000E+00  1.30000000E+00  1.70000000E+00  1.30000000E+00
  1.30000000E+00  1.30000000E+00  1.30000000E+00  1.80000000E+00  1.70000000E+00
  1.70000000E+00  1.70000000E+00  1.70000000E+00  1.70000000E+00  1.70000000E+00
  1.70000000E+00  1.70000000E+00  1.80000000E+00  1.70000000E+00  1.30000000E+00
  1.70000000E+00  1.70000000E+00  1.30000000E+00  1.70000000E+00  1.70000000E+00
  1.70000000E+00  1.30000000E+00  1.70000000E+00  1.30000000E+00  1.30000000E+00
  1.30000000E+00  1.70000000E+00  1.70000000E+00  1.70000000E+00  1.70000000E+00
  1.30000000E+00  1.70000000E+00  1.30000000E+00  1.70000000E+00  1.30000000E+00
  1.30000000E+00  1.70000000E+00  1.30000000E+00  1.30000000E+00  1.70000000E+00
  1.30000000E+00  1.30000000E+00  1.30000000E+00  1.70000000E+00  1.30000000E+00
  1.30000000E+00  1.70000000E+00  1.30000000E+00  1.30000000E+00  1.70000000E+00
  1.30000000E+00  1.30000000E+00  1.70000000E+00  1.30000000E+00  1.30000000E+00
  1.30000000E+00  1.30000000E+00  1.70000000E+00  1.70000000E+00  1.30000000E+00
  1.30000000E+00  1.30000000E+00  1.70000000E+00  1.30000000E+00  1.30000000E+00
  1.30000000E+00  1.30000000E+00  1.80000000E+00  1.70000000E+00  1.70000000E+00
  1.70000000E+00  1.70000000E+00  1.70000000E+00  1.70000000E+00  1.70000000E+00
  1.70000000E+00  1.80000000E+00  1.70000000E+00  1.30000000E+00  1.70000000E+00
  1.70000000E+00  1.30000000E+00  1.70000000E+00  1.70000000E+00  1.70000000E+00
  1.30000000E+00  1.70000000E+00  1.30000000E+00  1.30000000E+00  1.30000000E+00
  1.70000000E+00  1.70000000E+00  1.70000000E+00  1.70000000E+00  1.30000000E+00
  1.70000000E+00  1.30000000E+00  1.70000000E+00  1.30000000E+00  1.30000000E+00
  1.70000000E+00  1.30000000E+00  1.30000000E+00  1.70000000E+00  1.30000000E+00
  1.30000000E+00  1.30000000E+00  1.70000000E+00  1.30000000E+00  1.30000000E+00
  1.70000000E+00  1.30000000E+00  1.30000000E+00  1.70000000E+00  1.30000000E+00
  1.30000000E+00  1.70000000E+00  1.30000000E+00  1.30000000E+00  1.30000000E+00
  1.30000000E+00  1.70000000E+00  1.70000000E+00  1.30000000E+00  1.30000000E+00
  1.30000000E+00  1.70000000E+00  1.30000000E+00  1.30000000E+00  1.30000000E+00
  1.30000000E+00  1.80000000E+00  1.70000000E+00  1.70000000E+00  1.70000000E+00
  1.70000000E+00  1.70000000E+00  1.70000000E+00  1.70000000E+00  1.70000000E+00
  1.80000000E+00  1.70000000E+00  1.30000000E+00  1.70000000E+00  1.70000000E+00
  1.30000000E+00  1.70000000E+00  1.70000000E+00  1.70000000E+00  1.30000000E+00
  1.70000000E+00  1.30000000E+00  1.30000000E+00  1.30000000E+00  1.70000000E+00
  1.70000000E+00  1.70000000E+00  1.70000000E+00  1.30000000E+00  1.70000000E+00
  1.30000000E+00  1.70000000E+00  1.30000000E+00  1.30000000E+00  1.70000000E+00
  1.30000000E+00  1.30000000E+00  1.70000000E+00  1.30000000E+00  1.30000000E+00
  1.30000000E+00  1.70000000E+00  1.30000000E+00  1.30000000E+00  1.70000000E+00
  1.30000000E+00  1.30000000E+00  1.70000000E+00  1.30000000E+00  1.30000000E+00
  1.70000000E+00  1.30000000E+00  1.30000000E+00  1.30000000E+00  1.30000000E+00
  1.70000000E+00  1.70000000E+00  1.30000000E+00  1.30000000E+00  1.30000000E+00
  1.70000000E+00  1.30000000E+00  1.30000000E+00  1.30000000E+00  1.30000000E+00
  1.80000000E+00  1.70000000E+00  1.70000000E+00  1.70000000E+00  1.70000000E+00
  1.70000000E+00  1.70000000E+00  1.70000000E+00  1.70000000E+00  1.80000000E+00
  1.70000000E+00  1.30000000E+00  1.70000000E+00  1.70000000E+00  1.30000000E+00
  1.70000000E+00  1.70000000E+00  1.70000000E+00  1.30000000E+00  1.70000000E+00
  1.30000000E+00  1.30000000E+00  1.30000000E+00  1.70000000E+00  1.70000000E+00
  1.70000000E+00  1.70000000E+00  1.30000000E+00  1.70000000E+00  1.30000000E+00
  1.70000000E+00  1.30000000E+00  1.30000000E+00  1.70000000E+00  1.30000000E+00
  1.30000000E+00  1.70000000E+00  1.30000000E+00  1.30000000E+00  1.30000000E+00
  1.70000000E+00  1.30000000E+00  1.30000000E+00  1.70000000E+00  1.30000000E+00
  1.30000000E+00  1.70000000E+00  1.30000000E+00  1.30000000E+00  1.70000000E+00
  1.30000000E+00  1.30000000E+00  1.30000000E+00  1.30000000E+00  1.70000000E+00
  1.70000000E+00  1.30000000E+00  1.30000000E+00  1.30000000E+00  1.70000000E+00
  1.30000000E+00  1.30000000E+00  1.30000000E+00  1.30000000E+00  1.80000000E+00
  1.70000000E+00  1.70000000E+00  1.70000000E+00  1.70000000E+00  1.70000000E+00
  1.70000000E+00  1.70000000E+00  1.70000000E+00  1.80000000E+00  1.70000000E+00
  1.30000000E+00  1.70000000E+00  1.70000000E+00  1.30000000E+00  1.70000000E+00
  1.70000000E+00  1.70000000E+00  1.30000000E+00  1.70000000E+00  1.30000000E+00
  1.30000000E+00  1.30000000E+00  1.70000000E+00  1.70000000E+00  1.70000000E+00
  1.70000000E+00  1.30000000E+00  1.70000000E+00  1.30000000E+00  1.70000000E+00
  1.30000000E+00  1.30000000E+00  1.70000000E+00  1.30000000E+00  1.30000000E+00
  1.70000000E+00  1.30000000E+00  1.30000000E+00  1.30000000E+00  1.70000000E+00
  1.30000000E+00  1.30000000E+00  1.70000000E+00  1.30000000E+00  1.30000000E+00
  1.70000000E+00  1.30000000E+00  1.30000000E+00  1.70000000E+00  1.30000000E+00
  1.30000000E+00  1.30000000E+00  1.30000000E+00  1.70000000E+00  1.70000000E+00
  1.30000000E+00  1.30000000E+00  1.30000000E+00  1.70000000E+00  1.30000000E+00
  1.30000000E+00  1.30000000E+00  1.30000000E+00  1.80000000E+00  1.70000000E+00
  1.70000000E+00  1.70000000E+00  1.70000000E+00  1.70000000E+00  1.70000000E+00
  1.70000000E+00  1.70000000E+00  1.80000000E+00  1.70000000E+00  1.30000000E+00
  1.70000000E+00  1.70000000E+00  1.30000000E+00  1.70000000E+00  1.70000000E+00
  1.70000000E+00  1.30000000E+00  1.70000000E+00  1.30000000E+00  1.30000000E+00
  1.30000000E+00  1.70000000E+00  1.70000000E+00  1.70000000E+00  1.70000000E+00
  1.30000000E+00  1.70000000E+00  1.30000000E+00  1.70000000E+00  1.30000000E+00
  1.30000000E+00  1.70000000E+00  1.30000000E+00  1.30000000E+00  1.70000000E+00
  1.30000000E+00  1.30000000E+00  1.30000000E+00  1.70000000E+00  1.30000000E+00
  1.30000000E+00  1.70000000E+00  1.30000000E+00  1.30000000E+00  1.70000000E+00
  1.30000000E+00  1.30000000E+00  1.70000000E+00  1.30000000E+00  1.30000000E+00
  1.30000000E+00  1.30000000E+00  1.70000000E+00  1.70000000E+00  1.30000000E+00
  1.30000000E+00  1.30000000E+00  1.70000000E+00  1.30000000E+00  1.30000000E+00
  1.30000000E+00  1.30000000E+00  1.80000000E+00  1.70000000E+00  1.70000000E+00
  1.70000000E+00  1.70000000E+00  1.70000000E+00  1.70000000E+00  1.70000000E+00
  1.70000000E+00  1.80000000E+00  1.70000000E+00  1.30000000E+00  1.70000000E+00
  1.70000000E+00  1.30000000E+00  1.70000000E+00  1.70000000E+00  1.70000000E+00
  1.30000000E+00  1.70000000E+00  1.30000000E+00  1.30000000E+00  1.30000000E+00
  1.70000000E+00  1.70000000E+00  1.70000000E+00  1.70000000E+00  1.30000000E+00
  1.70000000E+00  1.30000000E+00  1.70000000E+00  1.30000000E+00  1.30000000E+00
  1.70000000E+00  1.30000000E+00  1.30000000E+00  1.70000000E+00  1.30000000E+00
  1.30000000E+00  1.30000000E+00  1.70000000E+00  1.30000000E+00  1.30000000E+00
  1.70000000E+00  1.30000000E+00  1.30000000E+00  1.70000000E+00  1.30000000E+00
  1.30000000E+00  1.70000000E+00  1.30000000E+00  1.30000000E+00  1.30000000E+00
  1.30000000E+00  1.70000000E+00  1.70000000E+00  1.30000000E+00  1.30000000E+00
  1.30000000E+00  1.70000000E+00  1.30000000E+00  1.30000000E+00  1.30000000E+00
  1.30000000E+00  1.80000000E+00  1.70000000E+00  1.70000000E+00  1.70000000E+00
  1.70000000E+00  1.70000000E+00  1.70000000E+00  1.70000000E+00  1.70000000E+00
  1.80000000E+00  1.70000000E+00  1.30000000E+00  1.70000000E+00  1.70000000E+00
  1.30000000E+00  1.70000000E+00  1.70000000E+00  1.70000000E+00  1.30000000E+00
  1.70000000E+00  1.30000000E+00  1.30000000E+00  1.30000000E+00  1.70000000E+00
  1.70000000E+00  1.70000000E+00  1.70000000E+00  1.30000000E+00  1.70000000E+00
  1.30000000E+00  1.70000000E+00  1.30000000E+00  1.30000000E+00  1.70000000E+00
  1.30000000E+00  1.30000000E+00  1.70000000E+00  1.30000000E+00  1.30000000E+00
  1.30000000E+00  1.70000000E+00  1.30000000E+00  1.30000000E+00  1.70000000E+00
  1.30000000E+00  1.30000000E+00  1.70000000E+00  1.30000000E+00  1.30000000E+00
  1.70000000E+00  1.30000000E+00  1.30000000E+00  1.30000000E+00  1.30000000E+00
  1.70000000E+00  1.70000000E+00  1.30000000E+00  1.30000000E+00  1.30000000E+00
  1.70000000E+00  1.30000000E+00  1.30000000E+00  1.30000000E+00  1.30000000E+00
  1.80000000E+00  1.70000000E+00  1.70000000E+00  1.70000000E+00  1.70000000E+00
  1.70000000E+00  1.70000000E+00  1.70000000E+00  1.70000000E+00  1.80000000E+00
  1.70000000E+00  1.30000000E+00  1.70000000E+00  1.70000000E+00  1.30000000E+00
  1.70000000E+00  1.70000000E+00  1.70000000E+00  1.30000000E+00  1.70000000E+00
  1.30000000E+00  1.30000000E+00  1.30000000E+00  1.70000000E+00  1.70000000E+00
  1.70000000E+00  1.70000000E+00  1.30000000E+00  1.70000000E+00  1.30000000E+00
  1.70000000E+00  1.30000000E+00  1.30000000E+00  1.70000000E+00  1.30000000E+00
  1.30000000E+00  1.70000000E+00  1.30000000E+00  1.30000000E+00  1.30000000E+00
  1.70000000E+00  1.30000000E+00  1.30000000E+00  1.70000000E+00  1.30000000E+00
  1.30000000E+00  1.70000000E+00  1.30000000E+00  1.30000000E+00  1.70000000E+00
  1.30000000E+00  1.30000000E+00  1.30000000E+00  1.30000000E+00  1.70000000E+00
  1.70000000E+00  1.30000000E+00  1.30000000E+00  1.30000000E+00  1.70000000E+00
  1.30000000E+00  1.30000000E+00  1.30000000E+00  1.30000000E+00  1.80000000E+00
  1.70000000E+00  1.70000000E+00  1.70000000E+00  1.70000000E+00  1.70000000E+00
  1.70000000E+00  1.70000000E+00  1.70000000E+00  1.80000000E+00  1.70000000E+00
  1.30000000E+00  1.70000000E+00  1.70000000E+00  1.30000000E+00  1.70000000E+00
  1.70000000E+00  1.70000000E+00  1.30000000E+00  1.70000000E+00  1.30000000E+00
  1.30000000E+00  1.30000000E+00  1.70000000E+00  1.70000000E+00  1.70000000E+00
  1.70000000E+00  1.30000000E+00  1.70000000E+00  1.30000000E+00  1.70000000E+00
  1.30000000E+00  1.30000000E+00  1.70000000E+00  1.30000000E+00  1.30000000E+00
  1.70000000E+00  1.30000000E+00  1.30000000E+00  1.30000000E+00  1.70000000E+00
  1.30000000E+00  1.30000000E+00  1.70000000E+00  1.30000000E+00  1.30000000E+00
  1.70000000E+00  1.30000000E+00  1.30000000E+00  1.70000000E+00  1.30000000E+00
  1.30000000E+00  1.30000000E+00  1.30000000E+00  1.70000000E+00  1.70000000E+00
  1.30000000E+00  1.30000000E+00  1.30000000E+00  1.70000000E+00  1.30000000E+00
  1.30000000E+00  1.30000000E+00  1.30000000E+00  1.80000000E+00  1.70000000E+00
  1.70000000E+00  1.70000000E+00  1.70000000E+00  1.70000000E+00  1.70000000E+00
  1.70000000E+00  1.70000000E+00  1.80000000E+00  1.70000000E+00  1.30000000E+00
  1.70000000E+00  1.70000000E+00  1.30000000E+00  1.70000000E+00  1.70000000E+00
  1.70000000E+00  1.30000000E+00  1.70000000E+00  1.30000000E+00  1.30000000E+00
  1.30000000E+00  1.70000000E+00  1.70000000E+00  1.70000000E+00  1.70000000E+00
  1.30000000E+00  1.70000000E+00  1.30000000E+00  1.70000000E+00  1.30000000E+00
  1.30000000E+00  1.70000000E+00  1.30000000E+00  1.30000000E+00  1.70000000E+00
  1.30000000E+00  1.30000000E+00  1.30000000E+00  1.70000000E+00  1.30000000E+00
  1.30000000E+00  1.70000000E+00  1.30000000E+00  1.30000000E+00  1.70000000E+00
  1.30000000E+00  1.30000000E+00  1.70000000E+00  1.30000000E+00  1.30000000E+00
  1.30000000E+00  1.30000000E+00  1.70000000E+00  1.70000000E+00  1.30000000E+00
  1.30000000E+00  1.30000000E+00  1.70000000E+00  1.30000000E+00  1.30000000E+00
  1.30000000E+00  1.30000000E+00  1.80000000E+00  1.70000000E+00  1.70000000E+00
  1.70000000E+00  1.70000000E+00  1.70000000E+00  1.70000000E+00  1.70000000E+00
  1.70000000E+00  1.80000000E+00  1.70000000E+00  1.30000000E+00  1.70000000E+00
  1.70000000E+00  1.30000000E+00  1.70000000E+00  1.70000000E+00  1.70000000E+00
  1.30000000E+00  1.70000000E+00  1.30000000E+00  1.30000000E+00  1.30000000E+00
  1.70000000E+00  1.70000000E+00  1.70000000E+00  1.70000000E+00  1.30000000E+00
  1.70000000E+00  1.30000000E+00  1.70000000E+00  1.30000000E+00  1.30000000E+00
  1.70000000E+00  1.30000000E+00  1.30000000E+00  1.70000000E+00  1.30000000E+00
  1.30000000E+00  1.30000000E+00  1.70000000E+00  1.30000000E+00  1.30000000E+00
  1.70000000E+00  1.30000000E+00  1.30000000E+00  1.70000000E+00  1.30000000E+00
  1.30000000E+00  1.70000000E+00  1.30000000E+00  1.30000000E+00  1.30000000E+00
  1.30000000E+00  1.70000000E+00  1.70000000E+00  1.30000000E+00  1.30000000E+00
  1.30000000E+00  1.70000000E+00  1.30000000E+00  1.30000000E+00  1.30000000E+00
  1.30000000E+00  1.80000000E+00  1.70000000E+00  1.70000000E+00  1.70000000E+00
  1.70000000E+00  1.70000000E+00  1.70000000E+00  1.70000000E+00  1.70000000E+00
  1.80000000E+00  1.70000000E+00  1.30000000E+00  1.70000000E+00  1.70000000E+00
  1.30000000E+00  1.70000000E+00  1.70000000E+00  1.70000000E+00  1.30000000E+00
  1.70000000E+00  1.30000000E+00  1.30000000E+00  1.30000000E+00  1.70000000E+00
  1.70000000E+00  1.70000000E+00  1.70000000E+00  1.30000000E+00  1.70000000E+00
  1.30000000E+00  1.70000000E+00  1.30000000E+00  1.30000000E+00  1.70000000E+00
  1.30000000E+00  1.30000000E+00  1.70000000E+00  1.30000000E+00  1.30000000E+00
  1.30000000E+00  1.70000000E+00  1.30000000E+00  1.30000000E+00  1.70000000E+00
  1.30000000E+00  1.30000000E+00  1.70000000E+00  1.30000000E+00  1.30000000E+00
  1.70000000E+00  1.30000000E+00  1.30000000E+00  1.30000000E+00  1.30000000E+00
  1.70000000E+00  1.70000000E+00  1.30000000E+00  1.30000000E+00  1.30000000E+00
  1.70000000E+00  1.30000000E+00  1.30000000E+00  1.30000000E+00  1.30000000E+00
  1.80000000E+00  1.70000000E+00  1.70000000E+00  1.70000000E+00  1.70000000E+00
  1.70000000E+00  1.70000000E+00  1.70000000E+00  1.70000000E+00  1.80000000E+00
  1.70000000E+00  1.30000000E+00  1.70000000E+00  1.70000000E+00  1.30000000E+00
  1.70000000E+00  1.70000000E+00  1.70000000E+00  1.30000000E+00  1.70000000E+00
  1.30000000E+00  1.30000000E+00  1.30000000E+00  1.70000000E+00  1.70000000E+00
  1.70000000E+00  1.70000000E+00  1.30000000E+00  1.70000000E+00  1.30000000E+00
  1.70000000E+00  1.30000000E+00  1.30000000E+00  1.70000000E+00  1.30000000E+00
  1.30000000E+00  1.70000000E+00  1.30000000E+00  1.30000000E+00  1.30000000E+00
  1.70000000E+00  1.30000000E+00  1.30000000E+00  1.70000000E+00  1.30000000E+00
  1.30000000E+00  1.70000000E+00  1.30000000E+00  1.30000000E+00  1.70000000E+00
  1.30000000E+00  1.30000000E+00  1.30000000E+00  1.30000000E+00  1.70000000E+00
  1.70000000E+00  1.30000000E+00  1.30000000E+00  1.30000000E+00  1.70000000E+00
  1.30000000E+00  1.30000000E+00  1.30000000E+00  1.30000000E+00  1.80000000E+00
  1.70000000E+00  1.70000000E+00  1.70000000E+00  1.70000000E+00  1.70000000E+00
  1.70000000E+00  1.70000000E+00  1.70000000E+00  1.80000000E+00  1.70000000E+00
  1.30000000E+00  1.70000000E+00  1.70000000E+00  1.30000000E+00  1.70000000E+00
  1.70000000E+00  1.70000000E+00  1.30000000E+00  1.70000000E+00  1.30000000E+00
  1.30000000E+00  1.30000000E+00  1.70000000E+00  1.70000000E+00  1.70000000E+00
  1.70000000E+00  1.30000000E+00  1.70000000E+00  1.30000000E+00  1.70000000E+00
  1.30000000E+00  1.30000000E+00  1.70000000E+00  1.30000000E+00  1.30000000E+00
  1.70000000E+00  1.30000000E+00  1.30000000E+00  1.30000000E+00  1.70000000E+00
  1.30000000E+00  1.30000000E+00  1.70000000E+00  1.30000000E+00  1.30000000E+00
  1.70000000E+00  1.30000000E+00  1.30000000E+00  1.70000000E+00  1.30000000E+00
  1.30000000E+00  1.30000000E+00  1.30000000E+00  1.70000000E+00  1.70000000E+00
  1.30000000E+00  1.30000000E+00  1.30000000E+00  1.70000000E+00  1.30000000E+00
  1.30000000E+00  1.30000000E+00  1.30000000E+00  1.80000000E+00  1.70000000E+00
  1.70000000E+00  1.70000000E+00  1.70000000E+00  1.70000000E+00  1.70000000E+00
  1.70000000E+00  1.70000000E+00  1.80000000E+00  1.70000000E+00  1.30000000E+00
  1.70000000E+00  1.70000000E+00  1.30000000E+00  1.70000000E+00  1.70000000E+00
  1.70000000E+00  1.30000000E+00  1.70000000E+00  1.30000000E+00  1.30000000E+00
  1.30000000E+00  1.70000000E+00  1.70000000E+00  1.70000000E+00  1.70000000E+00
  1.30000000E+00  1.70000000E+00  1.30000000E+00  1.70000000E+00  1.30000000E+00
  1.30000000E+00  1.70000000E+00  1.30000000E+00  1.30000000E+00  1.70000000E+00
  1.30000000E+00  1.30000000E+00  1.30000000E+00  1.70000000E+00  1.30000000E+00
  1.30000000E+00  1.70000000E+00  1.30000000E+00  1.30000000E+00  1.70000000E+00
  1.30000000E+00  1.30000000E+00  1.70000000E+00  1.30000000E+00  1.30000000E+00
  1.30000000E+00  1.30000000E+00  1.70000000E+00  1.70000000E+00  1.30000000E+00
  1.30000000E+00  1.30000000E+00  1.70000000E+00  1.30000000E+00  1.30000000E+00
  1.30000000E+00  1.30000000E+00  1.80000000E+00  1.70000000E+00  1.70000000E+00
  1.70000000E+00  1.70000000E+00  1.70000000E+00  1.70000000E+00  1.70000000E+00
  1.70000000E+00  1.80000000E+00  1.70000000E+00  1.30000000E+00  1.70000000E+00
  1.70000000E+00  1.30000000E+00  1.70000000E+00  1.70000000E+00  1.70000000E+00
  1.30000000E+00  1.70000000E+00  1.30000000E+00  1.30000000E+00  1.30000000E+00
  1.70000000E+00  1.70000000E+00  1.70000000E+00  1.70000000E+00  1.30000000E+00
  1.70000000E+00  1.30000000E+00  1.70000000E+00  1.30000000E+00  1.30000000E+00
  1.70000000E+00  1.30000000E+00  1.30000000E+00  1.70000000E+00  1.30000000E+00
  1.30000000E+00  1.30000000E+00  1.70000000E+00  1.30000000E+00  1.30000000E+00
  1.70000000E+00  1.30000000E+00  1.30000000E+00  1.70000000E+00  1.30000000E+00
  1.30000000E+00  1.70000000E+00  1.30000000E+00  1.30000000E+00  1.30000000E+00
  1.30000000E+00  1.70000000E+00  1.70000000E+00  1.30000000E+00  1.30000000E+00
  1.30000000E+00  1.70000000E+00  1.30000000E+00  1.30000000E+00  1.30000000E+00
  1.30000000E+00  1.80000000E+00  1.70000000E+00  1.70000000E+00  1.70000000E+00
  1.70000000E+00  1.70000000E+00  1.70000000E+00  1.70000000E+00  1.70000000E+00
  1.80000000E+00  1.70000000E+00  1.30000000E+00  1.70000000E+00  1.70000000E+00
  1.30000000E+00  1.70000000E+00  1.70000000E+00  1.70000000E+00  1.30000000E+00
  1.70000000E+00  1.30000000E+00  1.30000000E+00  1.30000000E+00  1.70000000E+00
  1.70000000E+00  1.70000000E+00  1.70000000E+00  1.30000000E+00  1.70000000E+00
  1.30000000E+00  1.70000000E+00  1.30000000E+00  1.30000000E+00  1.70000000E+00
  1.30000000E+00  1.30000000E+00  1.70000000E+00  1.30000000E+00  1.30000000E+00
  1.30000000E+00  1.70000000E+00  1.30000000E+00  1.30000000E+00  1.70000000E+00
  1.30000000E+00  1.30000000E+00  1.70000000E+00  1.30000000E+00  1.30000000E+00
  1.70000000E+00  1.30000000E+00  1.30000000E+00  1.30000000E+00  1.30000000E+00
  1.70000000E+00  1.70000000E+00  1.30000000E+00  1.30000000E+00  1.30000000E+00
  1.70000000E+00  1.30000000E+00  1.30000000E+00  1.30000000E+00  1.30000000E+00
  1.80000000E+00  1.70000000E+00  1.70000000E+00  1.70000000E+00  1.70000000E+00
  1.70000000E+00  1.70000000E+00  1.70000000E+00  1.70000000E+00  1.80000000E+00
  1.70000000E+00  1.30000000E+00  1.70000000E+00  1.70000000E+00  1.30000000E+00
  1.70000000E+00  1.70000000E+00  1.70000000E+00  1.30000000E+00  1.70000000E+00
  1.30000000E+00  1.30000000E+00  1.30000000E+00  1.70000000E+00  1.70000000E+00
  1.70000000E+00  1.70000000E+00  1.30000000E+00  1.70000000E+00  1.30000000E+00
  1.70000000E+00  1.30000000E+00  1.30000000E+00  1.70000000E+00  1.30000000E+00
  1.30000000E+00  1.70000000E+00  1.30000000E+00  1.30000000E+00  1.30000000E+00
  1.70000000E+00  1.30000000E+00  1.30000000E+00  1.70000000E+00  1.30000000E+00
  1.30000000E+00  1.70000000E+00  1.30000000E+00  1.30000000E+00  1.70000000E+00
  1.30000000E+00  1.30000000E+00  1.30000000E+00  1.30000000E+00  1.70000000E+00
  1.70000000E+00  1.30000000E+00  1.30000000E+00  1.30000000E+00  1.70000000E+00
  1.30000000E+00  1.30000000E+00  1.30000000E+00  1.30000000E+00  1.80000000E+00
  1.70000000E+00  1.70000000E+00  1.70000000E+00  1.70000000E+00  1.70000000E+00
  1.70000000E+00  1.70000000E+00  1.70000000E+00  1.80000000E+00  1.70000000E+00
  1.30000000E+00  1.70000000E+00  1.70000000E+00  1.30000000E+00  1.70000000E+00
  1.70000000E+00  1.70000000E+00  1.30000000E+00  1.70000000E+00  1.30000000E+00
  1.30000000E+00  1.30000000E+00  1.70000000E+00  1.70000000E+00  1.70000000E+00
  1.70000000E+00  1.30000000E+00  1.70000000E+00  1.30000000E+00  1.70000000E+00
  1.30000000E+00  1.30000000E+00  1.70000000E+00  1.30000000E+00  1.30000000E+00
  1.70000000E+00  1.30000000E+00  1.30000000E+00  1.30000000E+00  1.70000000E+00
  1.30000000E+00  1.30000000E+00  1.70000000E+00  1.30000000E+00  1.30000000E+00
  1.70000000E+00  1.30000000E+00  1.30000000E+00  1.70000000E+00  1.30000000E+00
  1.30000000E+00  1.30000000E+00  1.30000000E+00  1.70000000E+00  1.70000000E+00
  1.30000000E+00  1.30000000E+00  1.30000000E+00  1.70000000E+00  1.30000000E+00
  1.30000000E+00  1.30000000E+00  1.30000000E+00  1.80000000E+00  1.70000000E+00
  1.70000000E+00  1.70000000E+00  1.70000000E+00  1.70000000E+00  1.70000000E+00
  1.70000000E+00  1.70000000E+00  1.80000000E+00  1.70000000E+00  1.30000000E+00
  1.70000000E+00  1.70000000E+00  1.30000000E+00  1.70000000E+00  1.70000000E+00
  1.70000000E+00  1.30000000E+00  1.70000000E+00  1.30000000E+00  1.30000000E+00
  1.30000000E+00  1.70000000E+00  1.70000000E+00  1.70000000E+00  1.70000000E+00
  1.30000000E+00  1.70000000E+00  1.30000000E+00  1.70000000E+00  1.30000000E+00
  1.30000000E+00  1.70000000E+00  1.30000000E+00  1.30000000E+00  1.70000000E+00
  1.30000000E+00  1.30000000E+00  1.30000000E+00  1.70000000E+00  1.30000000E+00
  1.30000000E+00  1.70000000E+00  1.30000000E+00  1.30000000E+00  1.70000000E+00
  1.30000000E+00  1.30000000E+00  1.70000000E+00  1.30000000E+00  1.30000000E+00
  1.30000000E+00  1.30000000E+00  1.70000000E+00  1.70000000E+00  1.30000000E+00
  1.30000000E+00  1.30000000E+00  1.70000000E+00  1.30000000E+00  1.30000000E+00
  1.30000000E+00  1.30000000E+00  1.80000000E+00  1.70000000E+00  1.70000000E+00
  1.70000000E+00  1.70000000E+00  1.70000000E+00  1.70000000E+00  1.70000000E+00
  1.70000000E+00  1.80000000E+00  1.70000000E+00  1.30000000E+00  1.70000000E+00
  1.70000000E+00  1.30000000E+00  1.70000000E+00  1.70000000E+00  1.70000000E+00
  1.30000000E+00  1.70000000E+00  1.30000000E+00  1.30000000E+00  1.30000000E+00
  1.70000000E+00  1.70000000E+00  1.70000000E+00  1.70000000E+00  1.30000000E+00
  1.70000000E+00  1.30000000E+00  1.70000000E+00  1.30000000E+00  1.30000000E+00
  1.70000000E+00  1.30000000E+00  1.30000000E+00  1.70000000E+00  1.30000000E+00
  1.30000000E+00  1.30000000E+00  1.70000000E+00  1.30000000E+00  1.30000000E+00
  1.70000000E+00  1.30000000E+00  1.30000000E+00  1.70000000E+00  1.30000000E+00
  1.30000000E+00  1.70000000E+00  1.30000000E+00  1.30000000E+00  1.30000000E+00
  1.30000000E+00  1.70000000E+00  1.70000000E+00  1.30000000E+00  1.30000000E+00
  1.30000000E+00  1.70000000E+00  1.30000000E+00  1.30000000E+00  1.30000000E+00
  1.30000000E+00  1.80000000E+00  1.70000000E+00  1.70000000E+00  1.70000000E+00
  1.70000000E+00  1.70000000E+00  1.70000000E+00  1.70000000E+00  1.70000000E+00
  1.80000000E+00  1.70000000E+00  1.30000000E+00  1.70000000E+00  1.70000000E+00
  1.30000000E+00  1.70000000E+00  1.70000000E+00  1.70000000E+00  1.30000000E+00
  1.70000000E+00  1.30000000E+00  1.30000000E+00  1.30000000E+00  1.70000000E+00
  1.70000000E+00  1.70000000E+00  1.70000000E+00  1.30000000E+00  1.70000000E+00
  1.30000000E+00  1.70000000E+00  1.30000000E+00  1.30000000E+00  1.70000000E+00
  1.30000000E+00  1.30000000E+00  1.70000000E+00  1.30000000E+00  1.30000000E+00
  1.30000000E+00  1.70000000E+00  1.30000000E+00  1.30000000E+00  1.70000000E+00
  1.30000000E+00  1.30000000E+00  1.70000000E+00  1.30000000E+00  1.30000000E+00
  1.70000000E+00  1.30000000E+00  1.30000000E+00  1.30000000E+00  1.30000000E+00
  1.70000000E+00  1.70000000E+00  1.30000000E+00  1.30000000E+00  1.30000000E+00
  1.70000000E+00  1.30000000E+00  1.30000000E+00  1.30000000E+00  1.30000000E+00
  1.80000000E+00  1.70000000E+00  1.70000000E+00  1.70000000E+00  1.70000000E+00
  1.70000000E+00  1.70000000E+00  1.70000000E+00  1.70000000E+00  1.80000000E+00
  1.70000000E+00  1.30000000E+00  1.70000000E+00  1.70000000E+00  1.30000000E+00
  1.70000000E+00  1.70000000E+00  1.70000000E+00  1.30000000E+00  1.70000000E+00
  1.30000000E+00  1.30000000E+00  1.30000000E+00  1.70000000E+00  1.70000000E+00
  1.70000000E+00  1.70000000E+00  1.30000000E+00  1.70000000E+00  1.30000000E+00
  1.70000000E+00  1.30000000E+00  1.30000000E+00  1.70000000E+00  1.30000000E+00
  1.30000000E+00  1.70000000E+00  1.30000000E+00  1.30000000E+00  1.30000000E+00
  1.70000000E+00  1.30000000E+00  1.30000000E+00  1.70000000E+00  1.30000000E+00
  1.30000000E+00  1.70000000E+00  1.30000000E+00  1.30000000E+00  1.70000000E+00
  1.30000000E+00  1.30000000E+00  1.30000000E+00  1.30000000E+00  1.70000000E+00
  1.70000000E+00  1.30000000E+00  1.30000000E+00  1.30000000E+00  1.70000000E+00
  1.30000000E+00  1.30000000E+00  1.30000000E+00  1.30000000E+00  1.80000000E+00
  1.70000000E+00  1.70000000E+00  1.70000000E+00  1.70000000E+00  1.70000000E+00
  1.70000000E+00  1.70000000E+00  1.70000000E+00  1.80000000E+00  1.70000000E+00
  1.30000000E+00  1.70000000E+00  1.70000000E+00  1.30000000E+00  1.70000000E+00
  1.70000000E+00  1.70000000E+00  1.30000000E+00  1.70000000E+00  1.30000000E+00
  1.30000000E+00  1.30000000E+00  1.70000000E+00  1.70000000E+00  1.70000000E+00
  1.70000000E+00  1.30000000E+00  1.70000000E+00  1.30000000E+00  1.70000000E+00
  1.30000000E+00  1.30000000E+00  1.70000000E+00  1.30000000E+00  1.30000000E+00
  1.70000000E+00  1.30000000E+00  1.30000000E+00  1.30000000E+00  1.70000000E+00
  1.30000000E+00  1.30000000E+00  1.70000000E+00  1.30000000E+00  1.30000000E+00
  1.70000000E+00  1.30000000E+00  1.30000000E+00  1.70000000E+00  1.30000000E+00
  1.30000000E+00  1.30000000E+00  1.30000000E+00  1.70000000E+00  1.70000000E+00
  1.30000000E+00  1.30000000E+00  1.30000000E+00  1.70000000E+00  1.30000000E+00
  1.30000000E+00  1.30000000E+00  1.30000000E+00  1.80000000E+00  1.70000000E+00
  1.70000000E+00  1.70000000E+00  1.70000000E+00  1.70000000E+00  1.70000000E+00
  1.70000000E+00  1.70000000E+00  1.80000000E+00  1.70000000E+00  1.30000000E+00
  1.70000000E+00  1.70000000E+00  1.30000000E+00  1.70000000E+00  1.70000000E+00
  1.70000000E+00  1.30000000E+00  1.70000000E+00  1.30000000E+00  1.30000000E+00
  1.30000000E+00  1.70000000E+00  1.70000000E+00  1.70000000E+00  1.70000000E+00
  1.30000000E+00  1.70000000E+00  1.30000000E+00  1.70000000E+00  1.30000000E+00
  1.30000000E+00  1.70000000E+00  1.30000000E+00  1.30000000E+00  1.70000000E+00
  1.30000000E+00  1.30000000E+00  1.30000000E+00  1.70000000E+00  1.30000000E+00
  1.30000000E+00  1.70000000E+00  1.30000000E+00  1.30000000E+00  1.70000000E+00
  1.30000000E+00  1.30000000E+00  1.70000000E+00  1.30000000E+00  1.30000000E+00
  1.30000000E+00  1.30000000E+00  1.70000000E+00  1.70000000E+00  1.30000000E+00
  1.30000000E+00  1.30000000E+00  1.70000000E+00  1.30000000E+00  1.30000000E+00
  1.30000000E+00  1.30000000E+00  1.80000000E+00  1.70000000E+00  1.70000000E+00
  1.70000000E+00  1.70000000E+00  1.70000000E+00  1.70000000E+00  1.70000000E+00
  1.70000000E+00  1.80000000E+00  1.70000000E+00  1.30000000E+00  1.70000000E+00
  1.70000000E+00  1.30000000E+00  1.70000000E+00  1.70000000E+00  1.70000000E+00
  1.30000000E+00  1.70000000E+00  1.30000000E+00  1.30000000E+00  1.30000000E+00
  1.70000000E+00  1.70000000E+00  1.70000000E+00  1.70000000E+00  1.30000000E+00
  1.70000000E+00  1.30000000E+00  1.70000000E+00  1.30000000E+00  1.30000000E+00
  1.70000000E+00  1.30000000E+00  1.30000000E+00  1.70000000E+00  1.30000000E+00
  1.30000000E+00  1.30000000E+00  1.70000000E+00  1.30000000E+00  1.30000000E+00
  1.70000000E+00  1.30000000E+00  1.30000000E+00  1.70000000E+00  1.30000000E+00
  1.30000000E+00  1.70000000E+00  1.30000000E+00  1.30000000E+00  1.30000000E+00
  1.30000000E+00  1.70000000E+00  1.70000000E+00  1.30000000E+00  1.30000000E+00
  1.30000000E+00  1.70000000E+00  1.30000000E+00  1.30000000E+00  1.30000000E+00
  1.30000000E+00  1.80000000E+00  1.70000000E+00  1.70000000E+00  1.70000000E+00
  1.70000000E+00  1.70000000E+00  1.70000000E+00  1.70000000E+00  1.70000000E+00
  1.80000000E+00  1.70000000E+00  1.30000000E+00  1.70000000E+00  1.70000000E+00
  1.30000000E+00  1.70000000E+00  1.70000000E+00  1.70000000E+00  1.30000000E+00
  1.70000000E+00  1.30000000E+00  1.30000000E+00  1.30000000E+00  1.70000000E+00
  1.70000000E+00  1.70000000E+00  1.70000000E+00  1.30000000E+00  1.70000000E+00
  1.30000000E+00  1.70000000E+00  1.30000000E+00  1.30000000E+00  1.70000000E+00
  1.30000000E+00  1.30000000E+00  1.70000000E+00  1.30000000E+00  1.30000000E+00
  1.30000000E+00  1.70000000E+00  1.30000000E+00  1.30000000E+00  1.70000000E+00
  1.30000000E+00  1.30000000E+00  1.70000000E+00  1.30000000E+00  1.30000000E+00
  1.70000000E+00  1.30000000E+00  1.30000000E+00  1.30000000E+00  1.30000000E+00
  1.70000000E+00  1.70000000E+00  1.30000000E+00  1.30000000E+00  1.30000000E+00
  1.70000000E+00  1.30000000E+00  1.30000000E+00  1.30000000E+00  1.30000000E+00
  1.80000000E+00  1.70000000E+00  1.70000000E+00  1.70000000E+00  1.70000000E+00
  1.70000000E+00  1.70000000E+00  1.70000000E+00  1.70000000E+00  1.80000000E+00
  1.70000000E+00  1.30000000E+00  1.70000000E+00  1.70000000E+00  1.30000000E+00
  1.70000000E+00  1.70000000E+00  1.70000000E+00  1.30000000E+00  1.70000000E+00
  1.30000000E+00  1.30000000E+00  1.30000000E+00  1.70000000E+00  1.70000000E+00
  1.70000000E+00  1.70000000E+00  1.30000000E+00  1.70000000E+00  1.30000000E+00
  1.70000000E+00  1.30000000E+00  1.30000000E+00  1.70000000E+00  1.30000000E+00
  1.30000000E+00  1.70000000E+00  1.30000000E+00  1.30000000E+00  1.30000000E+00
  1.70000000E+00  1.30000000E+00  1.30000000E+00  1.70000000E+00  1.30000000E+00
  1.30000000E+00  1.70000000E+00  1.30000000E+00  1.30000000E+00  1.70000000E+00
  1.30000000E+00  1.30000000E+00  1.30000000E+00  1.30000000E+00  1.70000000E+00
  1.70000000E+00  1.30000000E+00  1.30000000E+00  1.30000000E+00  1.70000000E+00
  1.30000000E+00  1.30000000E+00  1.30000000E+00  1.30000000E+00  1.80000000E+00
  1.70000000E+00  1.70000000E+00  1.70000000E+00  1.70000000E+00  1.70000000E+00
  1.70000000E+00  1.70000000E+00  1.70000000E+00  1.80000000E+00  1.70000000E+00
  1.30000000E+00  1.70000000E+00  1.70000000E+00  1.30000000E+00  1.70000000E+00
  1.70000000E+00  1.70000000E+00  1.30000000E+00  1.70000000E+00  1.30000000E+00
  1.30000000E+00  1.30000000E+00  1.70000000E+00  1.70000000E+00  1.70000000E+00
  1.70000000E+00  1.30000000E+00  1.70000000E+00  1.30000000E+00  1.70000000E+00
  1.30000000E+00  1.30000000E+00  1.70000000E+00  1.30000000E+00  1.30000000E+00
  1.70000000E+00  1.30000000E+00  1.30000000E+00  1.30000000E+00  1.70000000E+00
  1.30000000E+00  1.30000000E+00  1.70000000E+00  1.30000000E+00  1.30000000E+00
  1.70000000E+00  1.30000000E+00  1.30000000E+00  1.70000000E+00  1.30000000E+00
  1.30000000E+00  1.30000000E+00  1.30000000E+00  1.70000000E+00  1.70000000E+00
  1.30000000E+00  1.30000000E+00  1.30000000E+00  1.70000000E+00  1.30000000E+00
  1.30000000E+00  1.30000000E+00  1.30000000E+00  1.80000000E+00  1.70000000E+00
  1.70000000E+00  1.70000000E+00  1.70000000E+00  1.70000000E+00  1.70000000E+00
  1.70000000E+00  1.70000000E+00  1.80000000E+00  1.70000000E+00  1.30000000E+00
  1.70000000E+00  1.70000000E+00  1.30000000E+00  1.70000000E+00  1.70000000E+00
  1.70000000E+00  1.30000000E+00  1.70000000E+00  1.30000000E+00  1.30000000E+00
  1.30000000E+00  1.70000000E+00  1.70000000E+00  1.70000000E+00  1.70000000E+00
  1.30000000E+00  1.70000000E+00  1.30000000E+00  1.70000000E+00  1.30000000E+00
  1.30000000E+00  1.70000000E+00  1.30000000E+00  1.30000000E+00  1.70000000E+00
  1.30000000E+00  1.30000000E+00  1.30000000E+00  1.70000000E+00  1.30000000E+00
  1.30000000E+00  1.70000000E+00  1.30000000E+00  1.30000000E+00  1.70000000E+00
  1.30000000E+00  1.30000000E+00  1.70000000E+00  1.30000000E+00  1.30000000E+00
  1.30000000E+00  1.30000000E+00  1.70000000E+00  1.70000000E+00  1.30000000E+00
  1.30000000E+00  1.30000000E+00  1.70000000E+00  1.30000000E+00  1.30000000E+00
  1.30000000E+00  1.30000000E+00  1.80000000E+00  1.70000000E+00  1.70000000E+00
  1.70000000E+00  1.70000000E+00  1.70000000E+00  1.70000000E+00  1.70000000E+00
  1.70000000E+00  1.80000000E+00  1.70000000E+00  1.30000000E+00  1.70000000E+00
  1.70000000E+00  1.30000000E+00  1.70000000E+00  1.70000000E+00  1.70000000E+00
  1.30000000E+00  1.70000000E+00  1.30000000E+00  1.30000000E+00  1.30000000E+00
  1.70000000E+00  1.70000000E+00  1.70000000E+00  1.70000000E+00  1.30000000E+00
  1.70000000E+00  1.30000000E+00  1.70000000E+00  1.30000000E+00  1.30000000E+00
  1.70000000E+00  1.30000000E+00  1.30000000E+00  1.70000000E+00  1.30000000E+00
  1.30000000E+00  1.30000000E+00  1.70000000E+00  1.30000000E+00  1.30000000E+00
  1.70000000E+00  1.30000000E+00  1.30000000E+00  1.70000000E+00  1.30000000E+00
  1.30000000E+00  1.70000000E+00  1.30000000E+00  1.30000000E+00  1.30000000E+00
  1.30000000E+00  1.70000000E+00  1.70000000E+00  1.30000000E+00  1.30000000E+00
  1.30000000E+00  1.70000000E+00  1.30000000E+00  1.30000000E+00  1.30000000E+00
  1.30000000E+00  1.80000000E+00  1.70000000E+00  1.70000000E+00  1.70000000E+00
  1.70000000E+00  1.70000000E+00  1.70000000E+00  1.70000000E+00  1.70000000E+00
  1.80000000E+00  1.70000000E+00  1.30000000E+00  1.70000000E+00  1.70000000E+00
  1.30000000E+00  1.70000000E+00  1.70000000E+00  1.70000000E+00  1.30000000E+00
  1.70000000E+00  1.30000000E+00  1.30000000E+00  1.30000000E+00  1.70000000E+00
  1.70000000E+00  1.70000000E+00  1.70000000E+00  1.30000000E+00  1.70000000E+00
  1.30000000E+00  1.70000000E+00  1.30000000E+00  1.30000000E+00  1.70000000E+00
  1.30000000E+00  1.30000000E+00  1.70000000E+00  1.30000000E+00  1.30000000E+00
  1.30000000E+00  1.70000000E+00  1.30000000E+00  1.30000000E+00  1.70000000E+00
  1.30000000E+00  1.30000000E+00  1.70000000E+00  1.30000000E+00  1.30000000E+00
  1.70000000E+00  1.30000000E+00  1.30000000E+00  1.30000000E+00  1.30000000E+00
  1.70000000E+00  1.70000000E+00  1.30000000E+00  1.30000000E+00  1.30000000E+00
  1.70000000E+00  1.30000000E+00  1.30000000E+00  1.30000000E+00  1.30000000E+00
  1.80000000E+00  1.70000000E+00  1.70000000E+00  1.70000000E+00  1.70000000E+00
  1.70000000E+00  1.70000000E+00  1.70000000E+00  1.70000000E+00  1.80000000E+00
  1.70000000E+00  1.30000000E+00  1.70000000E+00  1.70000000E+00  1.30000000E+00
  1.70000000E+00  1.70000000E+00  1.70000000E+00  1.30000000E+00  1.70000000E+00
  1.30000000E+00  1.30000000E+00  1.30000000E+00  1.70000000E+00  1.70000000E+00
  1.70000000E+00  1.70000000E+00  1.30000000E+00  1.70000000E+00  1.30000000E+00
  1.70000000E+00  1.30000000E+00  1.30000000E+00  1.70000000E+00  1.30000000E+00
  1.30000000E+00  1.70000000E+00  1.30000000E+00  1.30000000E+00  1.30000000E+00
  1.70000000E+00  1.30000000E+00  1.30000000E+00  1.70000000E+00  1.30000000E+00
  1.30000000E+00  1.70000000E+00  1.30000000E+00  1.30000000E+00  1.70000000E+00
  1.30000000E+00  1.30000000E+00  1.30000000E+00  1.30000000E+00  1.70000000E+00
  1.70000000E+00  1.30000000E+00  1.30000000E+00  1.30000000E+00  1.70000000E+00
  1.30000000E+00  1.30000000E+00  1.30000000E+00  1.30000000E+00  1.80000000E+00
  1.70000000E+00  1.70000000E+00  1.70000000E+00  1.70000000E+00  1.70000000E+00
  1.70000000E+00  1.70000000E+00  1.70000000E+00  1.80000000E+00  1.70000000E+00
  1.30000000E+00  1.70000000E+00  1.70000000E+00  1.30000000E+00  1.70000000E+00
  1.70000000E+00  1.70000000E+00  1.30000000E+00  1.70000000E+00  1.30000000E+00
  1.30000000E+00  1.30000000E+00  1.70000000E+00  1.70000000E+00  1.70000000E+00
  1.70000000E+00  1.30000000E+00  1.70000000E+00  1.30000000E+00  1.70000000E+00
  1.30000000E+00  1.30000000E+00  1.70000000E+00  1.30000000E+00  1.30000000E+00
  1.70000000E+00  1.30000000E+00  1.30000000E+00  1.30000000E+00  1.70000000E+00
  1.30000000E+00  1.30000000E+00  1.70000000E+00  1.30000000E+00  1.30000000E+00
  1.70000000E+00  1.30000000E+00  1.30000000E+00  1.70000000E+00  1.30000000E+00
  1.30000000E+00  1.30000000E+00  1.30000000E+00  1.70000000E+00  1.70000000E+00
  1.30000000E+00  1.30000000E+00  1.30000000E+00  1.70000000E+00  1.30000000E+00
  1.30000000E+00  1.30000000E+00  1.30000000E+00  1.80000000E+00  1.70000000E+00
  1.70000000E+00  1.70000000E+00  1.70000000E+00  1.70000000E+00  1.70000000E+00
  1.70000000E+00  1.70000000E+00  1.80000000E+00  1.70000000E+00  1.30000000E+00
  1.70000000E+00  1.70000000E+00  1.30000000E+00  1.70000000E+00  1.70000000E+00
  1.70000000E+00  1.30000000E+00  1.70000000E+00  1.30000000E+00  1.30000000E+00
  1.30000000E+00  1.70000000E+00  1.70000000E+00  1.70000000E+00  1.70000000E+00
  1.30000000E+00  1.70000000E+00  1.30000000E+00  1.70000000E+00  1.30000000E+00
  1.30000000E+00  1.70000000E+00  1.30000000E+00  1.30000000E+00  1.70000000E+00
  1.30000000E+00  1.30000000E+00  1.30000000E+00  1.70000000E+00  1.30000000E+00
  1.30000000E+00  1.70000000E+00  1.30000000E+00  1.30000000E+00  1.70000000E+00
  1.30000000E+00  1.30000000E+00  1.70000000E+00  1.30000000E+00  1.30000000E+00
  1.30000000E+00  1.30000000E+00  1.70000000E+00  1.70000000E+00  1.30000000E+00
  1.30000000E+00  1.30000000E+00  1.70000000E+00  1.30000000E+00  1.30000000E+00
  1.30000000E+00  1.30000000E+00  1.80000000E+00  1.70000000E+00  1.70000000E+00
  1.70000000E+00  1.70000000E+00  1.70000000E+00  1.70000000E+00  1.70000000E+00
  1.70000000E+00  1.80000000E+00  1.70000000E+00  1.30000000E+00  1.70000000E+00
  1.70000000E+00  1.30000000E+00  1.70000000E+00  1.70000000E+00  1.70000000E+00
  1.30000000E+00  1.70000000E+00  1.30000000E+00  1.30000000E+00  1.30000000E+00
  1.70000000E+00  1.70000000E+00  1.70000000E+00  1.70000000E+00  1.30000000E+00
  1.70000000E+00  1.30000000E+00  1.70000000E+00  1.30000000E+00  1.30000000E+00
  1.70000000E+00  1.30000000E+00  1.30000000E+00  1.70000000E+00  1.30000000E+00
  1.30000000E+00  1.30000000E+00  1.70000000E+00  1.30000000E+00  1.30000000E+00
  1.70000000E+00  1.30000000E+00  1.30000000E+00  1.70000000E+00  1.30000000E+00
  1.30000000E+00  1.70000000E+00  1.30000000E+00  1.30000000E+00  1.30000000E+00
  1.30000000E+00  1.70000000E+00  1.70000000E+00  1.30000000E+00  1.30000000E+00
  1.30000000E+00  1.70000000E+00  1.30000000E+00  1.30000000E+00  1.30000000E+00
  1.30000000E+00  1.80000000E+00  1.70000000E+00  1.70000000E+00  1.70000000E+00
  1.70000000E+00  1.70000000E+00  1.70000000E+00  1.70000000E+00  1.70000000E+00
  1.80000000E+00  1.70000000E+00  1.30000000E+00  1.70000000E+00  1.70000000E+00
  1.30000000E+00  1.70000000E+00  1.70000000E+00  1.70000000E+00  1.30000000E+00
  1.70000000E+00  1.30000000E+00  1.30000000E+00  1.30000000E+00  1.70000000E+00
  1.70000000E+00  1.70000000E+00  1.70000000E+00  1.30000000E+00  1.70000000E+00
  1.30000000E+00  1.70000000E+00  1.30000000E+00  1.30000000E+00  1.70000000E+00
  1.30000000E+00  1.30000000E+00  1.70000000E+00  1.30000000E+00  1.30000000E+00
  1.30000000E+00  1.70000000E+00  1.30000000E+00  1.30000000E+00  1.70000000E+00
  1.30000000E+00  1.30000000E+00  1.70000000E+00  1.30000000E+00  1.30000000E+00
  1.70000000E+00  1.30000000E+00  1.30000000E+00  1.30000000E+00  1.30000000E+00
  1.70000000E+00  1.70000000E+00  1.30000000E+00  1.30000000E+00  1.30000000E+00
  1.70000000E+00  1.30000000E+00  1.30000000E+00  1.30000000E+00  1.30000000E+00
  1.80000000E+00  1.70000000E+00  1.70000000E+00  1.70000000E+00  1.70000000E+00
  1.70000000E+00  1.70000000E+00  1.70000000E+00  1.70000000E+00  1.80000000E+00
  1.70000000E+00  1.30000000E+00  1.70000000E+00  1.70000000E+00  1.30000000E+00
  1.70000000E+00  1.70000000E+00  1.70000000E+00  1.30000000E+00  1.70000000E+00
  1.30000000E+00  1.30000000E+00  1.30000000E+00  1.70000000E+00  1.70000000E+00
  1.70000000E+00  1.70000000E+00  1.30000000E+00  1.70000000E+00  1.30000000E+00
  1.70000000E+00  1.30000000E+00  1.30000000E+00  1.70000000E+00  1.30000000E+00
  1.30000000E+00  1.70000000E+00  1.30000000E+00  1.30000000E+00  1.30000000E+00
  1.70000000E+00  1.30000000E+00  1.30000000E+00  1.70000000E+00  1.30000000E+00
  1.30000000E+00  1.70000000E+00  1.30000000E+00  1.30000000E+00  1.70000000E+00
  1.30000000E+00  1.30000000E+00  1.30000000E+00  1.30000000E+00  1.70000000E+00
  1.70000000E+00  1.30000000E+00  1.30000000E+00  1.30000000E+00  1.70000000E+00
  1.30000000E+00  1.30000000E+00  1.30000000E+00  1.30000000E+00  1.80000000E+00
  1.70000000E+00  1.70000000E+00  1.70000000E+00  1.70000000E+00  1.70000000E+00
  1.70000000E+00  1.70000000E+00  1.70000000E+00  1.80000000E+00  1.70000000E+00
  1.30000000E+00  1.70000000E+00  1.70000000E+00  1.30000000E+00  1.70000000E+00
  1.70000000E+00  1.70000000E+00  1.30000000E+00  1.70000000E+00  1.30000000E+00
  1.30000000E+00  1.30000000E+00  1.70000000E+00  1.70000000E+00  1.70000000E+00
  1.70000000E+00  1.30000000E+00  1.70000000E+00  1.30000000E+00  1.70000000E+00
  1.30000000E+00  1.30000000E+00  1.70000000E+00  1.30000000E+00  1.30000000E+00
  1.70000000E+00  1.30000000E+00  1.30000000E+00  1.30000000E+00  1.70000000E+00
  1.30000000E+00  1.30000000E+00  1.70000000E+00  1.30000000E+00  1.30000000E+00
  1.70000000E+00  1.30000000E+00  1.30000000E+00  1.70000000E+00  1.30000000E+00
  1.30000000E+00  1.30000000E+00  1.30000000E+00  1.70000000E+00  1.70000000E+00
  1.30000000E+00  1.30000000E+00  1.30000000E+00  1.70000000E+00  1.30000000E+00
  1.30000000E+00  1.30000000E+00  1.30000000E+00  1.80000000E+00  1.70000000E+00
  1.70000000E+00  1.70000000E+00  1.70000000E+00  1.70000000E+00  1.70000000E+00
  1.70000000E+00  1.70000000E+00  1.80000000E+00  1.70000000E+00  1.30000000E+00
  1.70000000E+00  1.70000000E+00  1.30000000E+00  1.70000000E+00  1.70000000E+00
  1.70000000E+00  1.30000000E+00  1.70000000E+00  1.30000000E+00  1.30000000E+00
  1.30000000E+00  1.70000000E+00  1.70000000E+00  1.70000000E+00  1.70000000E+00
  1.30000000E+00  1.70000000E+00  1.30000000E+00  1.70000000E+00  1.30000000E+00
  1.30000000E+00  1.70000000E+00  1.30000000E+00  1.30000000E+00  1.70000000E+00
  1.30000000E+00  1.30000000E+00  1.30000000E+00  1.70000000E+00  1.30000000E+00
  1.30000000E+00  1.70000000E+00  1.30000000E+00  1.30000000E+00  1.70000000E+00
  1.30000000E+00  1.30000000E+00  1.70000000E+00  1.30000000E+00  1.30000000E+00
  1.30000000E+00  1.30000000E+00  1.70000000E+00  1.70000000E+00  1.30000000E+00
  1.30000000E+00  1.30000000E+00  1.70000000E+00  1.30000000E+00  1.30000000E+00
  1.30000000E+00  1.30000000E+00  1.80000000E+00  1.70000000E+00  1.70000000E+00
  1.70000000E+00  1.70000000E+00  1.70000000E+00  1.70000000E+00  1.70000000E+00
  1.70000000E+00  1.80000000E+00  1.70000000E+00  1.30000000E+00  1.70000000E+00
  1.70000000E+00  1.30000000E+00  1.70000000E+00  1.70000000E+00  1.70000000E+00
  1.30000000E+00  1.70000000E+00  1.30000000E+00  1.30000000E+00  1.30000000E+00
  1.70000000E+00  1.70000000E+00  1.70000000E+00  1.70000000E+00  1.30000000E+00
  1.70000000E+00  1.30000000E+00  1.70000000E+00  1.30000000E+00  1.30000000E+00
  1.70000000E+00  1.30000000E+00  1.30000000E+00  1.70000000E+00  1.30000000E+00
  1.30000000E+00  1.30000000E+00  1.70000000E+00  1.30000000E+00  1.30000000E+00
  1.70000000E+00  1.30000000E+00  1.30000000E+00  1.70000000E+00  1.30000000E+00
  1.30000000E+00  1.70000000E+00  1.30000000E+00  1.30000000E+00  1.30000000E+00
  1.30000000E+00  1.70000000E+00  1.70000000E+00  1.30000000E+00  1.30000000E+00
  1.30000000E+00  1.70000000E+00  1.30000000E+00  1.30000000E+00  1.30000000E+00
  1.30000000E+00  1.80000000E+00  1.70000000E+00  1.70000000E+00  1.70000000E+00
  1.70000000E+00  1.70000000E+00  1.70000000E+00  1.70000000E+00  1.70000000E+00
  1.80000000E+00  1.70000000E+00  1.30000000E+00  1.70000000E+00  1.70000000E+00
  1.30000000E+00  1.70000000E+00  1.70000000E+00  1.70000000E+00  1.30000000E+00
  1.70000000E+00  1.30000000E+00  1.30000000E+00  1.30000000E+00  1.70000000E+00
  1.70000000E+00  1.70000000E+00  1.70000000E+00  1.30000000E+00  1.70000000E+00
  1.30000000E+00  1.70000000E+00  1.30000000E+00  1.30000000E+00  1.70000000E+00
  1.30000000E+00  1.30000000E+00  1.70000000E+00  1.30000000E+00  1.30000000E+00
  1.30000000E+00  1.70000000E+00  1.30000000E+00  1.30000000E+00  1.70000000E+00
  1.30000000E+00  1.30000000E+00  1.70000000E+00  1.30000000E+00  1.30000000E+00
  1.70000000E+00  1.30000000E+00  1.30000000E+00  1.30000000E+00  1.30000000E+00
  1.70000000E+00  1.70000000E+00  1.30000000E+00  1.30000000E+00  1.30000000E+00
  1.70000000E+00  1.30000000E+00  1.30000000E+00  1.30000000E+00  1.30000000E+00
  1.80000000E+00  1.70000000E+00  1.70000000E+00  1.70000000E+00  1.70000000E+00
  1.70000000E+00  1.70000000E+00  1.70000000E+00  1.70000000E+00  1.80000000E+00
  1.70000000E+00  1.30000000E+00  1.70000000E+00  1.70000000E+00  1.30000000E+00
  1.70000000E+00  1.70000000E+00  1.70000000E+00  1.30000000E+00  1.70000000E+00
  1.30000000E+00  1.30000000E+00  1.30000000E+00  1.70000000E+00  1.70000000E+00
  1.70000000E+00  1.70000000E+00  1.30000000E+00  1.70000000E+00  1.30000000E+00
  1.70000000E+00  1.30000000E+00  1.30000000E+00  1.70000000E+00  1.30000000E+00
  1.30000000E+00  1.70000000E+00  1.30000000E+00  1.30000000E+00  1.30000000E+00
  1.70000000E+00  1.30000000E+00  1.30000000E+00  1.70000000E+00  1.30000000E+00
  1.30000000E+00  1.70000000E+00  1.30000000E+00  1.30000000E+00  1.70000000E+00
  1.30000000E+00  1.30000000E+00  1.30000000E+00  1.30000000E+00  1.70000000E+00
  1.70000000E+00  1.30000000E+00  1.30000000E+00  1.30000000E+00  1.70000000E+00
  1.30000000E+00  1.30000000E+00  1.30000000E+00  1.30000000E+00  1.80000000E+00
  1.70000000E+00  1.70000000E+00  1.70000000E+00  1.70000000E+00  1.70000000E+00
  1.70000000E+00  1.70000000E+00  1.70000000E+00  1.80000000E+00  1.70000000E+00
  1.30000000E+00  1.70000000E+00  1.70000000E+00  1.30000000E+00  1.70000000E+00
  1.70000000E+00  1.70000000E+00  1.30000000E+00  1.70000000E+00  1.30000000E+00
  1.30000000E+00  1.30000000E+00  1.70000000E+00  1.70000000E+00  1.70000000E+00
  1.70000000E+00  1.30000000E+00  1.70000000E+00  1.30000000E+00  1.70000000E+00
  1.30000000E+00  1.30000000E+00  1.70000000E+00  1.30000000E+00  1.30000000E+00
  1.70000000E+00  1.30000000E+00  1.30000000E+00  1.30000000E+00  1.70000000E+00
  1.30000000E+00  1.30000000E+00  1.70000000E+00  1.30000000E+00  1.30000000E+00
  1.70000000E+00  1.30000000E+00  1.30000000E+00  1.70000000E+00  1.30000000E+00
  1.30000000E+00  1.30000000E+00  1.30000000E+00  1.70000000E+00  1.70000000E+00
  1.30000000E+00  1.30000000E+00  1.30000000E+00  1.70000000E+00  1.30000000E+00
  1.30000000E+00  1.30000000E+00  1.30000000E+00  1.80000000E+00  1.70000000E+00
  1.70000000E+00  1.70000000E+00  1.70000000E+00  1.70000000E+00  1.70000000E+00
  1.70000000E+00  1.70000000E+00  1.80000000E+00  1.70000000E+00  1.30000000E+00
  1.70000000E+00  1.70000000E+00  1.30000000E+00  1.70000000E+00  1.70000000E+00
  1.70000000E+00  1.30000000E+00  1.70000000E+00  1.30000000E+00  1.30000000E+00
  1.30000000E+00  1.70000000E+00  1.70000000E+00  1.70000000E+00  1.70000000E+00
  1.30000000E+00  1.70000000E+00  1.30000000E+00  1.70000000E+00  1.30000000E+00
  1.30000000E+00  1.70000000E+00  1.30000000E+00  1.30000000E+00  1.70000000E+00
  1.30000000E+00  1.30000000E+00  1.30000000E+00  1.70000000E+00  1.30000000E+00
  1.30000000E+00  1.70000000E+00  1.30000000E+00  1.30000000E+00  1.70000000E+00
  1.30000000E+00  1.30000000E+00  1.70000000E+00  1.30000000E+00  1.30000000E+00
  1.30000000E+00  1.30000000E+00  1.70000000E+00  1.70000000E+00  1.30000000E+00
  1.30000000E+00  1.30000000E+00  1.70000000E+00  1.30000000E+00  1.30000000E+00
  1.30000000E+00  1.30000000E+00  1.80000000E+00  1.70000000E+00  1.70000000E+00
  1.70000000E+00  1.70000000E+00  1.70000000E+00  1.70000000E+00  1.70000000E+00
  1.70000000E+00  1.80000000E+00  1.70000000E+00  1.30000000E+00  1.70000000E+00
  1.70000000E+00  1.30000000E+00  1.70000000E+00  1.70000000E+00  1.70000000E+00
  1.30000000E+00  1.70000000E+00  1.30000000E+00  1.30000000E+00  1.30000000E+00
  1.70000000E+00  1.70000000E+00  1.70000000E+00  1.70000000E+00  1.30000000E+00
  1.70000000E+00  1.30000000E+00  1.70000000E+00  1.30000000E+00  1.30000000E+00
  1.70000000E+00  1.30000000E+00  1.30000000E+00  1.70000000E+00  1.30000000E+00
  1.30000000E+00  1.30000000E+00  1.70000000E+00  1.30000000E+00  1.30000000E+00
  1.70000000E+00  1.30000000E+00  1.30000000E+00  1.70000000E+00  1.30000000E+00
  1.30000000E+00  1.70000000E+00  1.30000000E+00  1.30000000E+00  1.30000000E+00
  1.30000000E+00  1.70000000E+00  1.70000000E+00  1.30000000E+00  1.30000000E+00
  1.30000000E+00  1.70000000E+00  1.30000000E+00  1.30000000E+00  1.30000000E+00
  1.30000000E+00  1.80000000E+00  1.70000000E+00  1.70000000E+00  1.70000000E+00
  1.70000000E+00  1.70000000E+00  1.70000000E+00  1.70000000E+00  1.70000000E+00
  1.80000000E+00  1.70000000E+00  1.30000000E+00  1.70000000E+00  1.70000000E+00
  1.30000000E+00  1.70000000E+00  1.70000000E+00  1.70000000E+00  1.30000000E+00
  1.70000000E+00  1.30000000E+00  1.30000000E+00  1.30000000E+00  1.70000000E+00
  1.70000000E+00  1.70000000E+00  1.70000000E+00  1.30000000E+00  1.70000000E+00
  1.30000000E+00  1.70000000E+00  1.30000000E+00  1.30000000E+00  1.70000000E+00
  1.30000000E+00  1.30000000E+00  1.70000000E+00  1.30000000E+00  1.30000000E+00
  1.30000000E+00  1.70000000E+00  1.30000000E+00  1.30000000E+00  1.70000000E+00
  1.30000000E+00  1.30000000E+00  1.70000000E+00  1.30000000E+00  1.30000000E+00
  1.70000000E+00  1.30000000E+00  1.30000000E+00  1.30000000E+00  1.30000000E+00
  1.70000000E+00  1.70000000E+00  1.30000000E+00  1.30000000E+00  1.30000000E+00
  1.70000000E+00  1.30000000E+00  1.30000000E+00  1.30000000E+00  1.30000000E+00
  1.80000000E+00  1.70000000E+00  1.70000000E+00  1.70000000E+00  1.70000000E+00
  1.70000000E+00  1.70000000E+00  1.70000000E+00  1.70000000E+00  1.80000000E+00
  1.70000000E+00  1.30000000E+00  1.70000000E+00  1.70000000E+00  1.30000000E+00
  1.70000000E+00  1.70000000E+00  1.70000000E+00  1.30000000E+00  1.70000000E+00
  1.30000000E+00  1.30000000E+00  1.30000000E+00  1.70000000E+00  1.70000000E+00
  1.70000000E+00  1.70000000E+00  1.30000000E+00  1.70000000E+00  1.30000000E+00
  1.70000000E+00  1.30000000E+00  1.30000000E+00  1.70000000E+00  1.30000000E+00
  1.30000000E+00  1.70000000E+00  1.30000000E+00  1.30000000E+00  1.30000000E+00
  1.70000000E+00  1.30000000E+00  1.30000000E+00  1.70000000E+00  1.30000000E+00
  1.30000000E+00  1.70000000E+00  1.30000000E+00  1.30000000E+00  1.70000000E+00
  1.30000000E+00  1.30000000E+00  1.30000000E+00  1.30000000E+00  1.70000000E+00
  1.70000000E+00  1.30000000E+00  1.30000000E+00  1.30000000E+00  1.70000000E+00
  1.30000000E+00  1.30000000E+00  1.30000000E+00  1.30000000E+00  1.80000000E+00
  1.70000000E+00  1.70000000E+00  1.70000000E+00  1.70000000E+00  1.70000000E+00
  1.70000000E+00  1.70000000E+00  1.70000000E+00  1.80000000E+00  1.70000000E+00
  1.30000000E+00  1.70000000E+00  1.70000000E+00  1.30000000E+00  1.70000000E+00
  1.70000000E+00  1.70000000E+00  1.30000000E+00  1.70000000E+00  1.30000000E+00
  1.30000000E+00  1.30000000E+00  1.70000000E+00  1.70000000E+00  1.70000000E+00
  1.70000000E+00  1.30000000E+00  1.70000000E+00  1.30000000E+00  1.70000000E+00
  1.30000000E+00  1.30000000E+00  1.70000000E+00  1.30000000E+00  1.30000000E+00
  1.70000000E+00  1.30000000E+00  1.30000000E+00  1.30000000E+00  1.70000000E+00
  1.30000000E+00  1.30000000E+00  1.70000000E+00  1.30000000E+00  1.30000000E+00
  1.70000000E+00  1.30000000E+00  1.30000000E+00  1.70000000E+00  1.30000000E+00
  1.30000000E+00  1.30000000E+00  1.30000000E+00  1.70000000E+00  1.70000000E+00
  1.30000000E+00  1.30000000E+00  1.30000000E+00  1.70000000E+00  1.30000000E+00
  1.30000000E+00  1.30000000E+00  1.30000000E+00  1.80000000E+00  1.70000000E+00
  1.70000000E+00  1.70000000E+00  1.70000000E+00  1.70000000E+00  1.70000000E+00
  1.70000000E+00  1.70000000E+00  1.80000000E+00  1.70000000E+00  1.30000000E+00
  1.70000000E+00  1.70000000E+00  1.30000000E+00  1.70000000E+00  1.70000000E+00
  1.70000000E+00  1.30000000E+00  1.70000000E+00  1.30000000E+00  1.30000000E+00
  1.30000000E+00  1.70000000E+00  1.70000000E+00  1.70000000E+00  1.70000000E+00
  1.30000000E+00  1.70000000E+00  1.30000000E+00  1.70000000E+00  1.30000000E+00
  1.30000000E+00  1.70000000E+00  1.30000000E+00  1.30000000E+00  1.70000000E+00
  1.30000000E+00  1.30000000E+00  1.30000000E+00  1.70000000E+00  1.30000000E+00
  1.30000000E+00  1.70000000E+00  1.30000000E+00  1.30000000E+00  1.70000000E+00
  1.30000000E+00  1.30000000E+00  1.70000000E+00  1.30000000E+00  1.30000000E+00
  1.30000000E+00  1.30000000E+00  1.70000000E+00  1.70000000E+00  1.30000000E+00
  1.30000000E+00  1.30000000E+00  1.70000000E+00  1.30000000E+00  1.30000000E+00
  1.30000000E+00  1.30000000E+00  1.80000000E+00  1.70000000E+00  1.70000000E+00
  1.70000000E+00  1.70000000E+00  1.70000000E+00  1.70000000E+00  1.70000000E+00
  1.70000000E+00  1.80000000E+00  1.70000000E+00  1.30000000E+00  1.70000000E+00
  1.70000000E+00  1.30000000E+00  1.70000000E+00  1.70000000E+00  1.70000000E+00
  1.30000000E+00  1.70000000E+00  1.30000000E+00  1.30000000E+00  1.30000000E+00
  1.70000000E+00  1.70000000E+00  1.70000000E+00  1.70000000E+00  1.30000000E+00
  1.70000000E+00  1.30000000E+00  1.70000000E+00  1.30000000E+00  1.30000000E+00
  1.70000000E+00  1.30000000E+00  1.30000000E+00  1.70000000E+00  1.30000000E+00
  1.30000000E+00  1.30000000E+00  1.70000000E+00  1.30000000E+00  1.30000000E+00
  1.70000000E+00  1.30000000E+00  1.30000000E+00  1.70000000E+00  1.30000000E+00
  1.30000000E+00  1.70000000E+00  1.30000000E+00  1.30000000E+00  1.30000000E+00
  1.30000000E+00  1.70000000E+00  1.70000000E+00  1.30000000E+00  1.30000000E+00
  1.30000000E+00  1.70000000E+00  1.30000000E+00  1.30000000E+00  1.30000000E+00
  1.30000000E+00  1.80000000E+00  1.70000000E+00  1.70000000E+00  1.70000000E+00
  1.70000000E+00  1.70000000E+00  1.70000000E+00  1.70000000E+00  1.70000000E+00
  1.80000000E+00  1.70000000E+00  1.30000000E+00  1.70000000E+00  1.70000000E+00
  1.30000000E+00  1.70000000E+00  1.70000000E+00  1.70000000E+00  1.30000000E+00
  1.70000000E+00  1.30000000E+00  1.30000000E+00  1.30000000E+00  1.70000000E+00
  1.70000000E+00  1.70000000E+00  1.70000000E+00  1.30000000E+00  1.70000000E+00
  1.30000000E+00  1.70000000E+00  1.30000000E+00  1.30000000E+00  1.70000000E+00
  1.30000000E+00  1.30000000E+00  1.70000000E+00  1.30000000E+00  1.30000000E+00
  1.30000000E+00  1.70000000E+00  1.30000000E+00  1.30000000E+00  1.70000000E+00
  1.30000000E+00  1.30000000E+00  1.70000000E+00  1.30000000E+00  1.30000000E+00
  1.70000000E+00  1.30000000E+00  1.30000000E+00  1.30000000E+00  1.30000000E+00
  1.70000000E+00  1.70000000E+00  1.30000000E+00  1.30000000E+00  1.30000000E+00
  1.70000000E+00  1.30000000E+00  1.30000000E+00  1.30000000E+00  1.30000000E+00
  1.80000000E+00  1.70000000E+00  1.70000000E+00  1.70000000E+00  1.70000000E+00
  1.70000000E+00  1.70000000E+00  1.70000000E+00  1.70000000E+00  1.80000000E+00
  1.70000000E+00  1.30000000E+00  1.70000000E+00  1.70000000E+00  1.30000000E+00
  1.70000000E+00  1.70000000E+00  1.70000000E+00  1.30000000E+00  1.70000000E+00
  1.30000000E+00  1.30000000E+00  1.30000000E+00  1.70000000E+00  1.70000000E+00
  1.70000000E+00  1.70000000E+00  1.30000000E+00  1.70000000E+00  1.30000000E+00
  1.70000000E+00  1.30000000E+00  1.30000000E+00  1.70000000E+00  1.30000000E+00
  1.30000000E+00  1.70000000E+00  1.30000000E+00  1.30000000E+00  1.30000000E+00
  1.70000000E+00  1.30000000E+00  1.30000000E+00  1.70000000E+00  1.30000000E+00
  1.30000000E+00  1.70000000E+00  1.30000000E+00  1.30000000E+00  1.70000000E+00
  1.30000000E+00  1.30000000E+00  1.30000000E+00  1.30000000E+00  1.70000000E+00
  1.70000000E+00  1.30000000E+00  1.30000000E+00  1.30000000E+00  1.70000000E+00
  1.30000000E+00  1.30000000E+00  1.30000000E+00  1.30000000E+00  1.80000000E+00
  1.70000000E+00  1.70000000E+00  1.70000000E+00  1.70000000E+00  1.70000000E+00
  1.70000000E+00  1.70000000E+00  1.70000000E+00  1.80000000E+00  1.70000000E+00
  1.30000000E+00  1.70000000E+00  1.70000000E+00  1.30000000E+00  1.70000000E+00
  1.70000000E+00  1.70000000E+00  1.30000000E+00  1.70000000E+00  1.30000000E+00
  1.30000000E+00  1.30000000E+00  1.70000000E+00  1.70000000E+00  1.70000000E+00
  1.70000000E+00  1.30000000E+00  1.70000000E+00  1.30000000E+00  1.70000000E+00
  1.30000000E+00  1.30000000E+00  1.70000000E+00  1.30000000E+00  1.30000000E+00
  1.70000000E+00  1.30000000E+00  1.30000000E+00  1.30000000E+00  1.70000000E+00
  1.30000000E+00  1.30000000E+00  1.70000000E+00  1.30000000E+00  1.30000000E+00
  1.70000000E+00  1.30000000E+00  1.30000000E+00  1.70000000E+00  1.30000000E+00
  1.30000000E+00  1.30000000E+00  1.30000000E+00  1.70000000E+00  1.70000000E+00
  1.30000000E+00  1.30000000E+00  1.30000000E+00  1.70000000E+00  1.30000000E+00
  1.30000000E+00  1.30000000E+00  1.30000000E+00  1.80000000E+00  1.70000000E+00
  1.70000000E+00  1.70000000E+00  1.70000000E+00  1.70000000E+00  1.70000000E+00
  1.70000000E+00  1.70000000E+00  1.80000000E+00  1.70000000E+00  1.30000000E+00
  1.70000000E+00  1.70000000E+00  1.30000000E+00  1.70000000E+00  1.70000000E+00
  1.70000000E+00  1.30000000E+00  1.70000000E+00  1.30000000E+00  1.30000000E+00
  1.30000000E+00  1.70000000E+00  1.70000000E+00  1.70000000E+00  1.70000000E+00
  1.30000000E+00  1.70000000E+00  1.30000000E+00  1.70000000E+00  1.30000000E+00
  1.30000000E+00  1.70000000E+00  1.30000000E+00  1.30000000E+00  1.70000000E+00
  1.30000000E+00  1.30000000E+00  1.30000000E+00  1.70000000E+00  1.30000000E+00
  1.30000000E+00  1.70000000E+00  1.30000000E+00  1.30000000E+00  1.70000000E+00
  1.30000000E+00  1.30000000E+00  1.70000000E+00  1.30000000E+00  1.30000000E+00
  1.30000000E+00  1.30000000E+00  1.70000000E+00  1.70000000E+00  1.30000000E+00
  1.30000000E+00  1.30000000E+00  1.70000000E+00  1.30000000E+00  1.30000000E+00
  1.30000000E+00  1.30000000E+00  1.80000000E+00  1.70000000E+00  1.70000000E+00
  1.70000000E+00  1.70000000E+00  1.70000000E+00  1.70000000E+00  1.70000000E+00
  1.70000000E+00  1.80000000E+00  1.70000000E+00  1.30000000E+00  1.70000000E+00
  1.70000000E+00  1.30000000E+00  1.70000000E+00  1.70000000E+00  1.70000000E+00
  1.30000000E+00  1.70000000E+00  1.30000000E+00  1.30000000E+00  1.30000000E+00
  1.70000000E+00  1.70000000E+00  1.70000000E+00  1.70000000E+00  1.30000000E+00
  1.70000000E+00  1.30000000E+00  1.70000000E+00  1.30000000E+00  1.30000000E+00
  1.70000000E+00  1.30000000E+00  1.30000000E+00  1.70000000E+00  1.30000000E+00
  1.30000000E+00  1.30000000E+00  1.70000000E+00  1.30000000E+00  1.30000000E+00
  1.70000000E+00  1.30000000E+00  1.30000000E+00  1.70000000E+00  1.30000000E+00
  1.30000000E+00  1.70000000E+00  1.30000000E+00  1.30000000E+00  1.30000000E+00
  1.30000000E+00  1.70000000E+00  1.70000000E+00  1.30000000E+00  1.30000000E+00
  1.30000000E+00  1.70000000E+00  1.30000000E+00  1.30000000E+00  1.30000000E+00
  1.30000000E+00  1.80000000E+00  1.70000000E+00  1.70000000E+00  1.70000000E+00
  1.70000000E+00  1.70000000E+00  1.70000000E+00  1.70000000E+00  1.70000000E+00
  1.80000000E+00  1.70000000E+00  1.30000000E+00  1.70000000E+00  1.70000000E+00
  1.30000000E+00  1.70000000E+00  1.70000000E+00  1.70000000E+00  1.30000000E+00
  1.70000000E+00  1.30000000E+00  1.30000000E+00  1.30000000E+00  1.70000000E+00
  1.70000000E+00  1.70000000E+00  1.70000000E+00  1.30000000E+00  1.70000000E+00
  1.30000000E+00  1.70000000E+00  1.30000000E+00  1.30000000E+00  1.70000000E+00
  1.30000000E+00  1.30000000E+00  1.70000000E+00  1.30000000E+00  1.30000000E+00
  1.30000000E+00  1.70000000E+00  1.30000000E+00  1.30000000E+00  1.70000000E+00
  1.30000000E+00  1.30000000E+00  1.70000000E+00  1.30000000E+00  1.30000000E+00
  1.70000000E+00  1.30000000E+00  1.30000000E+00  1.30000000E+00  1.30000000E+00
  1.70000000E+00  1.70000000E+00  1.30000000E+00  1.30000000E+00  1.30000000E+00
  1.70000000E+00  1.30000000E+00  1.30000000E+00  1.30000000E+00  1.30000000E+00
  1.80000000E+00  1.70000000E+00  1.70000000E+00  1.70000000E+00  1.70000000E+00
  1.70000000E+00  1.70000000E+00  1.70000000E+00  1.70000000E+00  1.80000000E+00
  1.70000000E+00  1.30000000E+00  1.70000000E+00  1.70000000E+00  1.30000000E+00
  1.70000000E+00  1.70000000E+00  1.70000000E+00  1.30000000E+00  1.70000000E+00
  1.30000000E+00  1.30000000E+00  1.30000000E+00  1.70000000E+00  1.70000000E+00
  1.70000000E+00  1.70000000E+00  1.30000000E+00  1.70000000E+00  1.30000000E+00
  1.70000000E+00  1.30000000E+00  1.30000000E+00  1.70000000E+00  1.30000000E+00
  1.30000000E+00  1.70000000E+00  1.30000000E+00  1.30000000E+00  1.30000000E+00
  1.70000000E+00  1.30000000E+00  1.30000000E+00  1.70000000E+00  1.30000000E+00
  1.30000000E+00  1.70000000E+00  1.30000000E+00  1.30000000E+00  1.70000000E+00
  1.30000000E+00  1.30000000E+00  1.30000000E+00  1.30000000E+00  1.70000000E+00
  1.70000000E+00  1.30000000E+00  1.30000000E+00  1.30000000E+00  1.70000000E+00
  1.30000000E+00  1.30000000E+00  1.30000000E+00  1.30000000E+00  1.80000000E+00
  1.70000000E+00  1.70000000E+00  1.70000000E+00  1.70000000E+00  1.70000000E+00
  1.70000000E+00  1.70000000E+00  1.70000000E+00  1.80000000E+00  1.70000000E+00
  1.30000000E+00  1.70000000E+00  1.70000000E+00  1.30000000E+00  1.70000000E+00
  1.70000000E+00  1.70000000E+00  1.30000000E+00  1.70000000E+00  1.30000000E+00
  1.30000000E+00  1.30000000E+00  1.70000000E+00  1.70000000E+00  1.70000000E+00
  1.70000000E+00  1.30000000E+00  1.70000000E+00  1.30000000E+00  1.70000000E+00
  1.30000000E+00  1.30000000E+00  1.70000000E+00  1.30000000E+00  1.30000000E+00
  1.70000000E+00  1.30000000E+00  1.30000000E+00  1.30000000E+00  1.70000000E+00
  1.30000000E+00  1.30000000E+00  1.70000000E+00  1.30000000E+00  1.30000000E+00
  1.70000000E+00  1.30000000E+00  1.30000000E+00  1.70000000E+00  1.30000000E+00
  1.30000000E+00  1.30000000E+00  1.30000000E+00  1.70000000E+00  1.70000000E+00
  1.30000000E+00  1.30000000E+00  1.30000000E+00  1.70000000E+00  1.30000000E+00
  1.30000000E+00  1.30000000E+00  1.30000000E+00  1.80000000E+00  1.70000000E+00
  1.70000000E+00  1.70000000E+00  1.70000000E+00  1.70000000E+00  1.70000000E+00
  1.70000000E+00  1.70000000E+00  1.80000000E+00  1.70000000E+00  1.30000000E+00
  1.70000000E+00  1.70000000E+00  1.30000000E+00  1.70000000E+00  1.70000000E+00
  1.70000000E+00  1.30000000E+00  1.70000000E+00  1.30000000E+00  1.30000000E+00
  1.30000000E+00  1.70000000E+00  1.70000000E+00  1.70000000E+00  1.70000000E+00
  1.30000000E+00  1.70000000E+00  1.30000000E+00  1.70000000E+00  1.30000000E+00
  1.30000000E+00  1.70000000E+00  1.30000000E+00  1.30000000E+00  1.70000000E+00
  1.30000000E+00  1.30000000E+00  1.30000000E+00  1.70000000E+00  1.30000000E+00
  1.30000000E+00  1.70000000E+00  1.30000000E+00  1.30000000E+00  1.70000000E+00
  1.30000000E+00  1.30000000E+00  1.70000000E+00  1.30000000E+00  1.30000000E+00
  1.30000000E+00  1.30000000E+00  1.70000000E+00  1.70000000E+00  1.30000000E+00
  1.30000000E+00  1.30000000E+00  1.70000000E+00  1.30000000E+00  1.30000000E+00
  1.30000000E+00  1.30000000E+00  1.80000000E+00  1.70000000E+00  1.70000000E+00
  1.70000000E+00  1.70000000E+00  1.70000000E+00  1.70000000E+00  1.70000000E+00
  1.70000000E+00  1.80000000E+00  1.70000000E+00  1.30000000E+00  1.70000000E+00
  1.70000000E+00  1.30000000E+00  1.70000000E+00  1.70000000E+00  1.70000000E+00
  1.30000000E+00  1.70000000E+00  1.30000000E+00  1.30000000E+00  1.30000000E+00
  1.70000000E+00  1.70000000E+00  1.70000000E+00  1.70000000E+00  1.30000000E+00
  1.70000000E+00  1.30000000E+00  1.70000000E+00  1.30000000E+00  1.30000000E+00
  1.70000000E+00  1.30000000E+00  1.30000000E+00  1.70000000E+00  1.30000000E+00
  1.30000000E+00  1.30000000E+00  1.70000000E+00  1.30000000E+00  1.30000000E+00
  1.70000000E+00  1.30000000E+00  1.30000000E+00  1.70000000E+00  1.30000000E+00
  1.30000000E+00  1.70000000E+00  1.30000000E+00  1.30000000E+00  1.30000000E+00
  1.30000000E+00  1.70000000E+00  1.70000000E+00  1.30000000E+00  1.30000000E+00
  1.30000000E+00  1.70000000E+00  1.30000000E+00  1.30000000E+00  1.30000000E+00
  1.30000000E+00  1.80000000E+00  1.70000000E+00  1.70000000E+00  1.70000000E+00
  1.70000000E+00  1.70000000E+00  1.70000000E+00  1.70000000E+00  1.70000000E+00
  1.80000000E+00  1.70000000E+00  1.30000000E+00  1.70000000E+00  1.70000000E+00
  1.30000000E+00  1.70000000E+00  1.70000000E+00  1.70000000E+00  1.30000000E+00
  1.70000000E+00  1.30000000E+00  1.30000000E+00  1.30000000E+00  1.70000000E+00
  1.70000000E+00  1.70000000E+00  1.70000000E+00  1.30000000E+00  1.70000000E+00
  1.30000000E+00  1.70000000E+00  1.30000000E+00  1.30000000E+00  1.70000000E+00
  1.30000000E+00  1.30000000E+00  1.70000000E+00  1.30000000E+00  1.30000000E+00
  1.30000000E+00  1.70000000E+00  1.30000000E+00  1.30000000E+00  1.70000000E+00
  1.30000000E+00  1.30000000E+00  1.70000000E+00  1.30000000E+00  1.30000000E+00
  1.70000000E+00  1.30000000E+00  1.30000000E+00  1.30000000E+00  1.30000000E+00
  1.70000000E+00  1.70000000E+00  1.30000000E+00  1.30000000E+00  1.30000000E+00
  1.70000000E+00  1.30000000E+00  1.30000000E+00  1.30000000E+00  1.30000000E+00
  1.80000000E+00  1.70000000E+00  1.70000000E+00  1.70000000E+00  1.70000000E+00
  1.70000000E+00  1.70000000E+00  1.70000000E+00  1.70000000E+00  1.80000000E+00
  1.70000000E+00  1.30000000E+00  1.70000000E+00  1.70000000E+00  1.30000000E+00
  1.70000000E+00  1.70000000E+00  1.70000000E+00  1.30000000E+00  1.70000000E+00
  1.30000000E+00  1.30000000E+00  1.30000000E+00  1.70000000E+00  1.70000000E+00
  1.70000000E+00  1.70000000E+00  1.30000000E+00  1.70000000E+00  1.30000000E+00
  1.70000000E+00  1.30000000E+00  1.30000000E+00  1.70000000E+00  1.30000000E+00
  1.30000000E+00  1.70000000E+00  1.30000000E+00  1.30000000E+00  1.30000000E+00
  1.70000000E+00  1.30000000E+00  1.30000000E+00  1.70000000E+00  1.30000000E+00
  1.30000000E+00  1.70000000E+00  1.30000000E+00  1.30000000E+00  1.70000000E+00
  1.30000000E+00  1.30000000E+00  1.30000000E+00  1.30000000E+00  1.70000000E+00
  1.70000000E+00  1.30000000E+00  1.30000000E+00  1.30000000E+00  1.70000000E+00
  1.30000000E+00  1.30000000E+00  1.30000000E+00  1.30000000E+00  1.80000000E+00
  1.70000000E+00  1.70000000E+00  1.70000000E+00  1.70000000E+00  1.70000000E+00
  1.70000000E+00  1.70000000E+00  1.70000000E+00  1.80000000E+00  1.70000000E+00
  1.30000000E+00  1.70000000E+00  1.70000000E+00  1.30000000E+00  1.70000000E+00
  1.70000000E+00  1.70000000E+00  1.30000000E+00  1.70000000E+00  1.30000000E+00
  1.30000000E+00  1.30000000E+00  1.70000000E+00  1.70000000E+00  1.70000000E+00
  1.70000000E+00  1.30000000E+00  1.70000000E+00  1.30000000E+00  1.70000000E+00
  1.30000000E+00  1.30000000E+00  1.70000000E+00  1.30000000E+00  1.30000000E+00
  1.70000000E+00  1.30000000E+00  1.30000000E+00  1.30000000E+00  1.70000000E+00
  1.30000000E+00  1.30000000E+00  1.70000000E+00  1.30000000E+00  1.30000000E+00
  1.70000000E+00  1.30000000E+00  1.30000000E+00  1.70000000E+00  1.30000000E+00
  1.30000000E+00  1.30000000E+00  1.30000000E+00  1.70000000E+00  1.70000000E+00
  1.30000000E+00  1.30000000E+00  1.30000000E+00  1.70000000E+00  1.30000000E+00
  1.30000000E+00  1.30000000E+00  1.30000000E+00  1.80000000E+00  1.70000000E+00
  1.70000000E+00  1.70000000E+00  1.70000000E+00  1.70000000E+00  1.70000000E+00
  1.70000000E+00  1.70000000E+00  1.80000000E+00  1.70000000E+00  1.30000000E+00
  1.70000000E+00  1.70000000E+00  1.30000000E+00  1.70000000E+00  1.70000000E+00
  1.70000000E+00  1.30000000E+00  1.70000000E+00  1.30000000E+00  1.30000000E+00
  1.30000000E+00  1.70000000E+00  1.70000000E+00  1.70000000E+00  1.70000000E+00
  1.30000000E+00  1.70000000E+00  1.30000000E+00  1.70000000E+00  1.30000000E+00
  1.30000000E+00  1.70000000E+00  1.30000000E+00  1.30000000E+00  1.70000000E+00
  1.30000000E+00  1.30000000E+00  1.30000000E+00  1.70000000E+00  1.30000000E+00
  1.30000000E+00  1.70000000E+00  1.30000000E+00  1.30000000E+00  1.70000000E+00
  1.30000000E+00  1.30000000E+00  1.70000000E+00  1.30000000E+00  1.30000000E+00
  1.30000000E+00  1.30000000E+00  1.70000000E+00  1.70000000E+00  1.30000000E+00
  1.30000000E+00  1.30000000E+00  1.70000000E+00  1.30000000E+00  1.30000000E+00
  1.30000000E+00  1.30000000E+00  1.80000000E+00  1.70000000E+00  1.70000000E+00
  1.70000000E+00  1.70000000E+00  1.70000000E+00  1.70000000E+00  1.70000000E+00
  1.70000000E+00  1.80000000E+00  1.70000000E+00  1.30000000E+00  1.70000000E+00
  1.70000000E+00  1.30000000E+00  1.70000000E+00  1.70000000E+00  1.70000000E+00
  1.30000000E+00  1.70000000E+00  1.30000000E+00  1.30000000E+00  1.30000000E+00
  1.70000000E+00  1.70000000E+00  1.70000000E+00  1.70000000E+00  1.30000000E+00
  1.70000000E+00  1.30000000E+00  1.70000000E+00  1.30000000E+00  1.30000000E+00
  1.70000000E+00  1.30000000E+00  1.30000000E+00  1.70000000E+00  1.30000000E+00
  1.30000000E+00  1.30000000E+00  1.70000000E+00  1.30000000E+00  1.30000000E+00
  1.70000000E+00  1.30000000E+00  1.30000000E+00  1.70000000E+00  1.30000000E+00
  1.30000000E+00  1.70000000E+00  1.30000000E+00  1.30000000E+00  1.30000000E+00
  1.30000000E+00  1.70000000E+00  1.70000000E+00  1.30000000E+00  1.30000000E+00
  1.30000000E+00  1.70000000E+00  1.30000000E+00  1.30000000E+00  1.30000000E+00
  1.30000000E+00  1.80000000E+00  1.70000000E+00  1.70000000E+00  1.70000000E+00
  1.70000000E+00  1.70000000E+00  1.70000000E+00  1.70000000E+00  1.70000000E+00
  1.80000000E+00  1.70000000E+00  1.30000000E+00  1.70000000E+00  1.70000000E+00
  1.30000000E+00  1.70000000E+00  1.70000000E+00  1.70000000E+00  1.30000000E+00
  1.70000000E+00  1.30000000E+00  1.30000000E+00  1.30000000E+00  1.70000000E+00
  1.70000000E+00  1.70000000E+00  1.70000000E+00  1.30000000E+00  1.70000000E+00
  1.30000000E+00  1.70000000E+00  1.30000000E+00  1.30000000E+00  1.70000000E+00
  1.30000000E+00  1.30000000E+00  1.70000000E+00  1.30000000E+00  1.30000000E+00
  1.30000000E+00  1.70000000E+00  1.30000000E+00  1.30000000E+00  1.70000000E+00
  1.30000000E+00  1.30000000E+00  1.70000000E+00  1.30000000E+00  1.30000000E+00
  1.70000000E+00  1.30000000E+00  1.30000000E+00  1.30000000E+00  1.30000000E+00
  1.70000000E+00  1.70000000E+00  1.30000000E+00  1.30000000E+00  1.30000000E+00
  1.70000000E+00  1.30000000E+00  1.30000000E+00  1.30000000E+00  1.30000000E+00
  1.80000000E+00  1.70000000E+00  1.70000000E+00  1.70000000E+00  1.70000000E+00
  1.70000000E+00  1.70000000E+00  1.70000000E+00  1.70000000E+00  1.80000000E+00
  1.70000000E+00  1.30000000E+00  1.70000000E+00  1.70000000E+00  1.30000000E+00
  1.70000000E+00  1.70000000E+00  1.70000000E+00  1.30000000E+00  1.70000000E+00
  1.30000000E+00  1.30000000E+00  1.30000000E+00  1.70000000E+00  1.70000000E+00
  1.70000000E+00  1.70000000E+00  1.30000000E+00  1.70000000E+00  1.30000000E+00
  1.70000000E+00  1.30000000E+00  1.30000000E+00  1.70000000E+00  1.30000000E+00
  1.30000000E+00  1.70000000E+00  1.30000000E+00  1.30000000E+00  1.30000000E+00
  1.70000000E+00  1.30000000E+00  1.30000000E+00  1.70000000E+00  1.30000000E+00
  1.30000000E+00  1.70000000E+00  1.30000000E+00  1.30000000E+00  1.70000000E+00
  1.30000000E+00  1.30000000E+00  1.30000000E+00  1.30000000E+00  1.70000000E+00
  1.70000000E+00  1.30000000E+00  1.30000000E+00  1.30000000E+00  1.70000000E+00
  1.30000000E+00  1.30000000E+00  1.30000000E+00  1.30000000E+00  1.80000000E+00
  1.70000000E+00  1.70000000E+00  1.70000000E+00  1.70000000E+00  1.70000000E+00
  1.70000000E+00  1.70000000E+00  1.70000000E+00  1.80000000E+00  1.70000000E+00
  1.30000000E+00  1.70000000E+00  1.70000000E+00  1.30000000E+00  1.70000000E+00
  1.70000000E+00  1.70000000E+00  1.30000000E+00  1.70000000E+00  1.30000000E+00
  1.30000000E+00  1.30000000E+00  1.70000000E+00  1.70000000E+00  1.70000000E+00
  1.70000000E+00  1.30000000E+00  1.70000000E+00  1.30000000E+00  1.70000000E+00
  1.30000000E+00  1.30000000E+00  1.70000000E+00  1.30000000E+00  1.30000000E+00
  1.70000000E+00  1.30000000E+00  1.30000000E+00  1.30000000E+00  1.70000000E+00
  1.30000000E+00  1.30000000E+00  1.70000000E+00  1.30000000E+00  1.30000000E+00
  1.70000000E+00  1.30000000E+00  1.30000000E+00  1.70000000E+00  1.30000000E+00
  1.30000000E+00  1.30000000E+00  1.30000000E+00  1.70000000E+00  1.70000000E+00
  1.30000000E+00  1.30000000E+00  1.30000000E+00  1.70000000E+00  1.30000000E+00
  1.30000000E+00  1.30000000E+00  1.30000000E+00  1.80000000E+00  1.70000000E+00
  1.70000000E+00  1.70000000E+00  1.70000000E+00  1.70000000E+00  1.70000000E+00
  1.70000000E+00  1.70000000E+00  1.80000000E+00  1.70000000E+00  1.30000000E+00
  1.70000000E+00  1.70000000E+00  1.30000000E+00  1.70000000E+00  1.70000000E+00
  1.70000000E+00  1.30000000E+00  1.70000000E+00  1.30000000E+00  1.30000000E+00
  1.30000000E+00  1.70000000E+00  1.70000000E+00  1.70000000E+00  1.70000000E+00
  1.30000000E+00  1.70000000E+00  1.30000000E+00  1.70000000E+00  1.30000000E+00
  1.30000000E+00  1.70000000E+00  1.30000000E+00  1.30000000E+00  1.70000000E+00
  1.30000000E+00  1.30000000E+00  1.30000000E+00  1.70000000E+00  1.30000000E+00
  1.30000000E+00  1.70000000E+00  1.30000000E+00  1.30000000E+00  1.70000000E+00
  1.30000000E+00  1.30000000E+00  1.70000000E+00  1.30000000E+00  1.30000000E+00
  1.30000000E+00  1.30000000E+00  1.70000000E+00  1.70000000E+00  1.30000000E+00
  1.30000000E+00  1.30000000E+00  1.70000000E+00  1.30000000E+00  1.30000000E+00
  1.30000000E+00  1.30000000E+00  1.80000000E+00  1.70000000E+00  1.70000000E+00
  1.70000000E+00  1.70000000E+00  1.70000000E+00  1.70000000E+00  1.70000000E+00
  1.70000000E+00  1.80000000E+00  1.70000000E+00  1.30000000E+00  1.70000000E+00
  1.70000000E+00  1.30000000E+00  1.70000000E+00  1.70000000E+00  1.70000000E+00
  1.30000000E+00  1.70000000E+00  1.30000000E+00  1.30000000E+00  1.30000000E+00
  1.70000000E+00  1.70000000E+00  1.70000000E+00  1.70000000E+00  1.30000000E+00
  1.70000000E+00  1.30000000E+00  1.70000000E+00  1.30000000E+00  1.30000000E+00
  1.70000000E+00  1.30000000E+00  1.30000000E+00  1.70000000E+00  1.30000000E+00
  1.30000000E+00  1.30000000E+00  1.70000000E+00  1.30000000E+00  1.30000000E+00
  1.70000000E+00  1.30000000E+00  1.30000000E+00  1.70000000E+00  1.30000000E+00
  1.30000000E+00  1.70000000E+00  1.30000000E+00  1.30000000E+00  1.30000000E+00
  1.30000000E+00  1.70000000E+00  1.70000000E+00  1.30000000E+00  1.30000000E+00
  1.30000000E+00  1.70000000E+00  1.30000000E+00  1.30000000E+00  1.30000000E+00
  1.30000000E+00  1.80000000E+00  1.70000000E+00  1.70000000E+00  1.70000000E+00
  1.70000000E+00  1.70000000E+00  1.70000000E+00  1.70000000E+00  1.70000000E+00
  1.80000000E+00  1.70000000E+00  1.30000000E+00  1.70000000E+00  1.70000000E+00
  1.30000000E+00  1.70000000E+00  1.70000000E+00  1.70000000E+00  1.30000000E+00
  1.70000000E+00  1.30000000E+00  1.30000000E+00  1.30000000E+00  1.70000000E+00
  1.70000000E+00  1.70000000E+00  1.70000000E+00  1.30000000E+00  1.70000000E+00
  1.30000000E+00  1.70000000E+00  1.30000000E+00  1.30000000E+00  1.70000000E+00
  1.30000000E+00  1.30000000E+00  1.70000000E+00  1.30000000E+00  1.30000000E+00
  1.30000000E+00  1.70000000E+00  1.30000000E+00  1.30000000E+00  1.70000000E+00
  1.30000000E+00  1.30000000E+00  1.70000000E+00  1.30000000E+00  1.30000000E+00
  1.70000000E+00  1.30000000E+00  1.30000000E+00  1.30000000E+00  1.30000000E+00
  1.70000000E+00  1.70000000E+00  1.30000000E+00  1.30000000E+00  1.30000000E+00
  1.70000000E+00  1.30000000E+00  1.30000000E+00  1.30000000E+00  1.30000000E+00
  1.80000000E+00  1.70000000E+00  1.70000000E+00  1.70000000E+00  1.70000000E+00
  1.70000000E+00  1.70000000E+00  1.70000000E+00  1.70000000E+00  1.80000000E+00
  1.70000000E+00  1.30000000E+00  1.70000000E+00  1.70000000E+00  1.30000000E+00
  1.70000000E+00  1.70000000E+00  1.70000000E+00  1.30000000E+00  1.70000000E+00
  1.30000000E+00  1.30000000E+00  1.30000000E+00  1.70000000E+00  1.70000000E+00
  1.70000000E+00  1.70000000E+00  1.30000000E+00  1.70000000E+00  1.30000000E+00
  1.70000000E+00  1.30000000E+00  1.30000000E+00  1.70000000E+00  1.30000000E+00
  1.30000000E+00  1.70000000E+00  1.30000000E+00  1.30000000E+00  1.30000000E+00
  1.70000000E+00  1.30000000E+00  1.30000000E+00  1.70000000E+00  1.30000000E+00
  1.30000000E+00  1.70000000E+00  1.30000000E+00  1.30000000E+00  1.70000000E+00
  1.30000000E+00  1.30000000E+00  1.30000000E+00  1.30000000E+00  1.70000000E+00
  1.70000000E+00  1.30000000E+00  1.30000000E+00  1.30000000E+00  1.70000000E+00
  1.30000000E+00  1.30000000E+00  1.30000000E+00  1.30000000E+00  1.80000000E+00
  1.70000000E+00  1.70000000E+00  1.70000000E+00  1.70000000E+00  1.70000000E+00
  1.70000000E+00  1.70000000E+00  1.70000000E+00  1.80000000E+00  1.70000000E+00
  1.30000000E+00  1.70000000E+00  1.70000000E+00  1.30000000E+00  1.70000000E+00
  1.70000000E+00  1.70000000E+00  1.30000000E+00  1.70000000E+00  1.30000000E+00
  1.30000000E+00  1.30000000E+00  1.70000000E+00  1.70000000E+00  1.70000000E+00
  1.70000000E+00  1.30000000E+00  1.70000000E+00  1.30000000E+00  1.70000000E+00
  1.30000000E+00  1.30000000E+00  1.70000000E+00  1.30000000E+00  1.30000000E+00
  1.70000000E+00  1.30000000E+00  1.30000000E+00  1.30000000E+00  1.70000000E+00
  1.30000000E+00  1.30000000E+00  1.70000000E+00  1.30000000E+00  1.30000000E+00
  1.70000000E+00  1.30000000E+00  1.30000000E+00  1.70000000E+00  1.30000000E+00
  1.30000000E+00  1.30000000E+00  1.30000000E+00  1.70000000E+00  1.70000000E+00
  1.30000000E+00  1.30000000E+00  1.30000000E+00  1.70000000E+00  1.30000000E+00
  1.30000000E+00  1.30000000E+00  1.30000000E+00  1.80000000E+00  1.70000000E+00
  1.70000000E+00  1.70000000E+00  1.70000000E+00  1.70000000E+00  1.70000000E+00
  1.70000000E+00  1.70000000E+00  1.80000000E+00  1.70000000E+00  1.30000000E+00
  1.70000000E+00  1.70000000E+00  1.30000000E+00  1.70000000E+00  1.70000000E+00
  1.70000000E+00  1.30000000E+00  1.70000000E+00  1.30000000E+00  1.30000000E+00
  1.30000000E+00  1.70000000E+00  1.70000000E+00  1.70000000E+00  1.70000000E+00
  1.30000000E+00  1.70000000E+00  1.30000000E+00  1.70000000E+00  1.30000000E+00
  1.30000000E+00  1.70000000E+00  1.30000000E+00  1.30000000E+00  1.70000000E+00
  1.30000000E+00  1.30000000E+00  1.30000000E+00  1.70000000E+00  1.30000000E+00
  1.30000000E+00  1.70000000E+00  1.30000000E+00  1.30000000E+00  1.70000000E+00
  1.30000000E+00  1.30000000E+00  1.70000000E+00  1.30000000E+00  1.30000000E+00
  1.30000000E+00  1.30000000E+00  1.70000000E+00  1.70000000E+00  1.30000000E+00
  1.30000000E+00  1.30000000E+00  1.70000000E+00  1.30000000E+00  1.30000000E+00
  1.30000000E+00  1.30000000E+00  1.80000000E+00  1.70000000E+00  1.70000000E+00
  1.70000000E+00  1.70000000E+00  1.70000000E+00  1.70000000E+00  1.70000000E+00
  1.70000000E+00  1.80000000E+00  1.70000000E+00  1.30000000E+00  1.70000000E+00
  1.70000000E+00  1.30000000E+00  1.70000000E+00  1.70000000E+00  1.70000000E+00
  1.30000000E+00  1.70000000E+00  1.30000000E+00  1.30000000E+00  1.30000000E+00
  1.70000000E+00  1.70000000E+00  1.70000000E+00  1.70000000E+00  1.30000000E+00
  1.70000000E+00  1.30000000E+00  1.70000000E+00  1.30000000E+00  1.30000000E+00
  1.70000000E+00  1.30000000E+00  1.30000000E+00  1.70000000E+00  1.30000000E+00
  1.30000000E+00  1.30000000E+00  1.70000000E+00  1.30000000E+00  1.30000000E+00
  1.70000000E+00  1.30000000E+00  1.30000000E+00  1.70000000E+00  1.30000000E+00
  1.30000000E+00  1.70000000E+00  1.30000000E+00  1.30000000E+00  1.30000000E+00
  1.30000000E+00  1.70000000E+00  1.70000000E+00  1.30000000E+00  1.30000000E+00
  1.30000000E+00  1.70000000E+00  1.30000000E+00  1.30000000E+00  1.30000000E+00
  1.30000000E+00  1.80000000E+00  1.70000000E+00  1.70000000E+00  1.70000000E+00
  1.70000000E+00  1.70000000E+00  1.70000000E+00  1.70000000E+00  1.70000000E+00
  1.80000000E+00  1.70000000E+00  1.30000000E+00  1.70000000E+00  1.70000000E+00
  1.30000000E+00  1.70000000E+00  1.70000000E+00  1.70000000E+00  1.30000000E+00
  1.70000000E+00  1.30000000E+00  1.30000000E+00  1.30000000E+00  1.70000000E+00
  1.70000000E+00  1.70000000E+00  1.70000000E+00  1.30000000E+00  1.70000000E+00
  1.30000000E+00  1.70000000E+00  1.30000000E+00  1.30000000E+00  1.70000000E+00
  1.30000000E+00  1.30000000E+00  1.70000000E+00  1.30000000E+00  1.30000000E+00
  1.30000000E+00  1.70000000E+00  1.30000000E+00  1.30000000E+00  1.70000000E+00
  1.30000000E+00  1.30000000E+00  1.70000000E+00  1.30000000E+00  1.30000000E+00
  1.70000000E+00  1.30000000E+00  1.30000000E+00  1.30000000E+00  1.30000000E+00
  1.70000000E+00  1.70000000E+00  1.30000000E+00  1.30000000E+00  1.30000000E+00
  1.70000000E+00  1.30000000E+00  1.30000000E+00  1.30000000E+00  1.30000000E+00
  1.80000000E+00  1.70000000E+00  1.70000000E+00  1.70000000E+00  1.70000000E+00
  1.70000000E+00  1.70000000E+00  1.70000000E+00  1.70000000E+00  1.80000000E+00
  1.70000000E+00  1.30000000E+00  1.70000000E+00  1.70000000E+00  1.30000000E+00
  1.70000000E+00  1.70000000E+00  1.70000000E+00  1.30000000E+00  1.70000000E+00
  1.30000000E+00  1.30000000E+00  1.30000000E+00  1.70000000E+00  1.70000000E+00
  1.70000000E+00  1.70000000E+00  1.30000000E+00  1.70000000E+00  1.30000000E+00
  1.70000000E+00  1.30000000E+00  1.30000000E+00  1.70000000E+00  1.30000000E+00
  1.30000000E+00  1.70000000E+00  1.30000000E+00  1.30000000E+00  1.30000000E+00
  1.70000000E+00  1.30000000E+00  1.30000000E+00  1.70000000E+00  1.30000000E+00
  1.30000000E+00  1.70000000E+00  1.30000000E+00  1.30000000E+00  1.70000000E+00
  1.30000000E+00  1.30000000E+00  1.30000000E+00  1.30000000E+00  1.70000000E+00
  1.70000000E+00  1.30000000E+00  1.30000000E+00  1.30000000E+00  1.70000000E+00
  1.30000000E+00  1.30000000E+00  1.30000000E+00  1.30000000E+00  1.80000000E+00
  1.70000000E+00  1.70000000E+00  1.70000000E+00  1.70000000E+00  1.70000000E+00
  1.70000000E+00  1.70000000E+00  1.70000000E+00  1.80000000E+00  1.70000000E+00
  1.30000000E+00  1.70000000E+00  1.70000000E+00  1.30000000E+00  1.70000000E+00
  1.70000000E+00  1.70000000E+00  1.30000000E+00  1.70000000E+00  1.30000000E+00
  1.30000000E+00  1.30000000E+00  1.70000000E+00  1.70000000E+00  1.70000000E+00
  1.70000000E+00  1.30000000E+00  1.70000000E+00  1.30000000E+00  1.70000000E+00
  1.30000000E+00  1.30000000E+00  1.70000000E+00  1.30000000E+00  1.30000000E+00
  1.70000000E+00  1.30000000E+00  1.30000000E+00  1.30000000E+00  1.70000000E+00
  1.30000000E+00  1.30000000E+00  1.70000000E+00  1.30000000E+00  1.30000000E+00
  1.70000000E+00  1.30000000E+00  1.30000000E+00  1.70000000E+00  1.30000000E+00
  1.30000000E+00  1.30000000E+00  1.30000000E+00  1.70000000E+00  1.70000000E+00
  1.30000000E+00  1.30000000E+00  1.30000000E+00  1.70000000E+00  1.30000000E+00
  1.30000000E+00  1.30000000E+00  1.30000000E+00  1.80000000E+00  1.70000000E+00
  1.70000000E+00  1.70000000E+00  1.70000000E+00  1.70000000E+00  1.70000000E+00
  1.70000000E+00  1.70000000E+00  1.80000000E+00  1.70000000E+00  1.30000000E+00
  1.70000000E+00  1.70000000E+00  1.30000000E+00  1.70000000E+00  1.70000000E+00
  1.70000000E+00  1.30000000E+00  1.70000000E+00  1.30000000E+00  1.30000000E+00
  1.30000000E+00  1.70000000E+00  1.70000000E+00  1.70000000E+00  1.70000000E+00
  1.30000000E+00  1.70000000E+00  1.30000000E+00  1.70000000E+00  1.30000000E+00
  1.30000000E+00  1.70000000E+00  1.30000000E+00  1.30000000E+00  1.70000000E+00
  1.30000000E+00  1.30000000E+00  1.30000000E+00  1.70000000E+00  1.30000000E+00
  1.30000000E+00  1.70000000E+00  1.30000000E+00  1.30000000E+00  1.70000000E+00
  1.30000000E+00  1.30000000E+00  1.70000000E+00  1.30000000E+00  1.30000000E+00
  1.30000000E+00  1.30000000E+00  1.70000000E+00  1.70000000E+00  1.30000000E+00
  1.30000000E+00  1.30000000E+00  1.70000000E+00  1.30000000E+00  1.30000000E+00
  1.30000000E+00  1.30000000E+00  1.80000000E+00  1.70000000E+00  1.70000000E+00
  1.70000000E+00  1.70000000E+00  1.70000000E+00  1.70000000E+00  1.70000000E+00
  1.70000000E+00  1.80000000E+00  1.70000000E+00  1.30000000E+00  1.70000000E+00
  1.70000000E+00  1.30000000E+00  1.70000000E+00  1.70000000E+00  1.70000000E+00
  1.30000000E+00  1.70000000E+00  1.30000000E+00  1.30000000E+00  1.30000000E+00
  1.70000000E+00  1.70000000E+00  1.70000000E+00  1.70000000E+00  1.30000000E+00
  1.70000000E+00  1.30000000E+00  1.70000000E+00  1.30000000E+00  1.30000000E+00
  1.70000000E+00  1.30000000E+00  1.30000000E+00  1.70000000E+00  1.30000000E+00
  1.30000000E+00  1.30000000E+00  1.70000000E+00  1.30000000E+00  1.30000000E+00
  1.70000000E+00  1.30000000E+00  1.30000000E+00  1.70000000E+00  1.30000000E+00
  1.30000000E+00  1.70000000E+00  1.30000000E+00  1.30000000E+00  1.30000000E+00
  1.30000000E+00  1.70000000E+00  1.70000000E+00  1.30000000E+00  1.30000000E+00
  1.30000000E+00  1.70000000E+00  1.30000000E+00  1.30000000E+00  1.30000000E+00
  1.30000000E+00  1.80000000E+00  1.70000000E+00  1.70000000E+00  1.70000000E+00
  1.70000000E+00  1.70000000E+00  1.70000000E+00  1.70000000E+00  1.70000000E+00
  1.80000000E+00  1.70000000E+00  1.30000000E+00  1.70000000E+00  1.70000000E+00
  1.30000000E+00  1.70000000E+00  1.70000000E+00  1.70000000E+00  1.30000000E+00
  1.70000000E+00  1.30000000E+00  1.30000000E+00  1.30000000E+00  1.70000000E+00
  1.70000000E+00  1.70000000E+00  1.70000000E+00  1.30000000E+00  1.70000000E+00
  1.30000000E+00  1.70000000E+00  1.30000000E+00  1.30000000E+00  1.70000000E+00
  1.30000000E+00  1.30000000E+00  1.70000000E+00  1.30000000E+00  1.30000000E+00
  1.30000000E+00  1.70000000E+00  1.30000000E+00  1.30000000E+00  1.70000000E+00
  1.30000000E+00  1.30000000E+00  1.70000000E+00  1.30000000E+00  1.30000000E+00
  1.70000000E+00  1.30000000E+00  1.30000000E+00  1.30000000E+00  1.30000000E+00
  1.70000000E+00  1.70000000E+00  1.30000000E+00  1.30000000E+00  1.30000000E+00
  1.70000000E+00  1.30000000E+00  1.30000000E+00  1.30000000E+00  1.30000000E+00
  1.80000000E+00  1.70000000E+00  1.70000000E+00  1.70000000E+00  1.70000000E+00
  1.70000000E+00  1.70000000E+00  1.70000000E+00  1.70000000E+00  1.80000000E+00
  1.70000000E+00  1.30000000E+00  1.70000000E+00  1.70000000E+00  1.30000000E+00
  1.70000000E+00  1.70000000E+00  1.70000000E+00  1.30000000E+00  1.70000000E+00
  1.30000000E+00  1.30000000E+00  1.30000000E+00  1.70000000E+00  1.70000000E+00
  1.70000000E+00  1.70000000E+00  1.30000000E+00  1.70000000E+00  1.30000000E+00
  1.70000000E+00  1.30000000E+00  1.30000000E+00  1.70000000E+00  1.30000000E+00
  1.30000000E+00  1.70000000E+00  1.30000000E+00  1.30000000E+00  1.30000000E+00
  1.70000000E+00  1.30000000E+00  1.30000000E+00  1.70000000E+00  1.30000000E+00
  1.30000000E+00  1.70000000E+00  1.30000000E+00  1.30000000E+00  1.70000000E+00
  1.30000000E+00  1.30000000E+00  1.30000000E+00  1.30000000E+00  1.70000000E+00
  1.70000000E+00  1.30000000E+00  1.30000000E+00  1.30000000E+00  1.70000000E+00
  1.30000000E+00  1.30000000E+00  1.30000000E+00  1.30000000E+00  1.80000000E+00
  1.70000000E+00  1.70000000E+00  1.70000000E+00  1.70000000E+00  1.70000000E+00
  1.70000000E+00  1.70000000E+00  1.70000000E+00  1.80000000E+00  1.70000000E+00
  1.30000000E+00  1.70000000E+00  1.70000000E+00  1.30000000E+00  1.70000000E+00
  1.70000000E+00  1.70000000E+00  1.30000000E+00  1.70000000E+00  1.30000000E+00
  1.30000000E+00  1.30000000E+00  1.70000000E+00  1.70000000E+00  1.70000000E+00
  1.70000000E+00  1.30000000E+00  1.70000000E+00  1.30000000E+00  1.70000000E+00
  1.30000000E+00  1.30000000E+00  1.70000000E+00  1.30000000E+00  1.30000000E+00
  1.70000000E+00  1.30000000E+00  1.30000000E+00  1.30000000E+00  1.70000000E+00
  1.30000000E+00  1.30000000E+00  1.70000000E+00  1.30000000E+00  1.30000000E+00
  1.70000000E+00  1.30000000E+00  1.30000000E+00  1.70000000E+00  1.30000000E+00
  1.30000000E+00  1.30000000E+00  1.30000000E+00  1.70000000E+00  1.70000000E+00
  1.30000000E+00  1.30000000E+00  1.30000000E+00  1.70000000E+00  1.30000000E+00
  1.30000000E+00  1.30000000E+00  1.30000000E+00  1.80000000E+00  1.70000000E+00
  1.70000000E+00  1.70000000E+00  1.70000000E+00  1.70000000E+00  1.70000000E+00
  1.70000000E+00  1.70000000E+00  1.80000000E+00  1.70000000E+00  1.30000000E+00
  1.70000000E+00  1.70000000E+00  1.30000000E+00  1.70000000E+00  1.70000000E+00
  1.70000000E+00  1.30000000E+00  1.70000000E+00  1.30000000E+00  1.30000000E+00
  1.30000000E+00  1.70000000E+00  1.70000000E+00  1.70000000E+00  1.70000000E+00
  1.30000000E+00  1.70000000E+00  1.30000000E+00  1.70000000E+00  1.30000000E+00
  1.30000000E+00  1.70000000E+00  1.30000000E+00  1.30000000E+00  1.70000000E+00
  1.30000000E+00  1.30000000E+00  1.30000000E+00  1.70000000E+00  1.30000000E+00
  1.30000000E+00  1.70000000E+00  1.30000000E+00  1.30000000E+00  1.70000000E+00
  1.30000000E+00  1.30000000E+00  1.70000000E+00  1.30000000E+00  1.30000000E+00
  1.30000000E+00  1.30000000E+00  1.70000000E+00  1.70000000E+00  1.30000000E+00
  1.30000000E+00  1.30000000E+00  1.70000000E+00  1.30000000E+00  1.30000000E+00
  1.30000000E+00  1.30000000E+00  1.80000000E+00  1.70000000E+00  1.70000000E+00
  1.70000000E+00  1.70000000E+00  1.70000000E+00  1.70000000E+00  1.70000000E+00
  1.70000000E+00  1.80000000E+00  1.70000000E+00  1.30000000E+00  1.70000000E+00
  1.70000000E+00  1.30000000E+00  1.70000000E+00  1.70000000E+00  1.70000000E+00
  1.30000000E+00  1.70000000E+00  1.30000000E+00  1.30000000E+00  1.30000000E+00
  1.70000000E+00  1.70000000E+00  1.70000000E+00  1.70000000E+00  1.30000000E+00
  1.70000000E+00  1.30000000E+00  1.70000000E+00  1.30000000E+00  1.30000000E+00
  1.70000000E+00  1.30000000E+00  1.30000000E+00  1.70000000E+00  1.30000000E+00
  1.30000000E+00  1.30000000E+00  1.70000000E+00  1.30000000E+00  1.30000000E+00
  1.70000000E+00  1.30000000E+00  1.30000000E+00  1.70000000E+00  1.30000000E+00
  1.30000000E+00  1.70000000E+00  1.30000000E+00  1.30000000E+00  1.30000000E+00
  1.30000000E+00  1.70000000E+00  1.70000000E+00  1.30000000E+00  1.30000000E+00
  1.30000000E+00  1.70000000E+00  1.30000000E+00  1.30000000E+00  1.30000000E+00
  1.30000000E+00  1.80000000E+00  1.70000000E+00  1.70000000E+00  1.70000000E+00
  1.70000000E+00  1.70000000E+00  1.70000000E+00  1.70000000E+00  1.70000000E+00
  1.80000000E+00  1.70000000E+00  1.30000000E+00  1.70000000E+00  1.70000000E+00
  1.30000000E+00  1.70000000E+00  1.70000000E+00  1.70000000E+00  1.30000000E+00
  1.70000000E+00  1.30000000E+00  1.30000000E+00  1.30000000E+00  1.70000000E+00
  1.70000000E+00  1.70000000E+00  1.70000000E+00  1.30000000E+00  1.70000000E+00
  1.30000000E+00  1.70000000E+00  1.30000000E+00  1.30000000E+00  1.70000000E+00
  1.30000000E+00  1.30000000E+00  1.70000000E+00  1.30000000E+00  1.30000000E+00
  1.30000000E+00  1.70000000E+00  1.30000000E+00  1.30000000E+00  1.70000000E+00
  1.30000000E+00  1.30000000E+00  1.70000000E+00  1.30000000E+00  1.30000000E+00
  1.70000000E+00  1.30000000E+00  1.30000000E+00  1.30000000E+00  1.30000000E+00
  1.70000000E+00  1.70000000E+00  1.30000000E+00  1.30000000E+00  1.30000000E+00
  1.70000000E+00  1.30000000E+00  1.30000000E+00  1.30000000E+00  1.30000000E+00
  1.80000000E+00  1.70000000E+00  1.70000000E+00  1.70000000E+00  1.70000000E+00
  1.70000000E+00  1.70000000E+00  1.70000000E+00  1.70000000E+00  1.80000000E+00
  1.70000000E+00  1.30000000E+00  1.70000000E+00  1.70000000E+00  1.30000000E+00
  1.70000000E+00  1.70000000E+00  1.70000000E+00  1.30000000E+00  1.70000000E+00
  1.30000000E+00  1.30000000E+00  1.30000000E+00  1.70000000E+00  1.70000000E+00
  1.70000000E+00  1.70000000E+00  1.30000000E+00  1.70000000E+00  1.30000000E+00
  1.70000000E+00  1.30000000E+00  1.30000000E+00  1.70000000E+00  1.30000000E+00
  1.30000000E+00  1.70000000E+00  1.30000000E+00  1.30000000E+00  1.30000000E+00
  1.70000000E+00  1.30000000E+00  1.30000000E+00  1.70000000E+00  1.30000000E+00
  1.30000000E+00  1.70000000E+00  1.30000000E+00  1.30000000E+00  1.70000000E+00
  1.30000000E+00  1.30000000E+00  1.30000000E+00  1.30000000E+00  1.70000000E+00
  1.70000000E+00  1.30000000E+00  1.30000000E+00  1.30000000E+00  1.70000000E+00
  1.30000000E+00  1.30000000E+00  1.30000000E+00  1.30000000E+00  1.80000000E+00
  1.70000000E+00  1.70000000E+00  1.70000000E+00  1.70000000E+00  1.70000000E+00
  1.70000000E+00  1.70000000E+00  1.70000000E+00  1.80000000E+00  1.70000000E+00
  1.30000000E+00  1.70000000E+00  1.70000000E+00  1.30000000E+00  1.70000000E+00
  1.70000000E+00  1.70000000E+00  1.30000000E+00  1.70000000E+00  1.30000000E+00
  1.30000000E+00  1.30000000E+00  1.70000000E+00  1.70000000E+00  1.70000000E+00
  1.70000000E+00  1.30000000E+00  1.70000000E+00  1.30000000E+00  1.70000000E+00
  1.30000000E+00  1.30000000E+00  1.70000000E+00  1.30000000E+00  1.30000000E+00
  1.70000000E+00  1.30000000E+00  1.30000000E+00  1.30000000E+00  1.70000000E+00
  1.30000000E+00  1.30000000E+00  1.70000000E+00  1.30000000E+00  1.30000000E+00
  1.70000000E+00  1.30000000E+00  1.30000000E+00  1.70000000E+00  1.30000000E+00
  1.30000000E+00  1.30000000E+00  1.30000000E+00  1.70000000E+00  1.70000000E+00
  1.30000000E+00  1.30000000E+00  1.30000000E+00  1.70000000E+00  1.30000000E+00
  1.30000000E+00  1.30000000E+00  1.30000000E+00  1.80000000E+00  1.70000000E+00
  1.70000000E+00  1.70000000E+00  1.70000000E+00  1.70000000E+00  1.70000000E+00
  1.70000000E+00  1.70000000E+00  1.80000000E+00  1.70000000E+00  1.30000000E+00
  1.70000000E+00  1.70000000E+00  1.30000000E+00  1.70000000E+00  1.70000000E+00
  1.70000000E+00  1.30000000E+00  1.70000000E+00  1.30000000E+00  1.30000000E+00
  1.30000000E+00  1.70000000E+00  1.70000000E+00  1.70000000E+00  1.70000000E+00
  1.30000000E+00  1.70000000E+00  1.30000000E+00  1.70000000E+00  1.30000000E+00
  1.30000000E+00  1.70000000E+00  1.30000000E+00  1.30000000E+00  1.70000000E+00
  1.30000000E+00  1.30000000E+00  1.30000000E+00  1.70000000E+00  1.30000000E+00
  1.30000000E+00  1.70000000E+00  1.30000000E+00  1.30000000E+00  1.70000000E+00
  1.30000000E+00  1.30000000E+00  1.70000000E+00  1.30000000E+00  1.30000000E+00
  1.30000000E+00  1.30000000E+00  1.70000000E+00  1.70000000E+00  1.30000000E+00
  1.30000000E+00  1.30000000E+00  1.70000000E+00  1.30000000E+00  1.30000000E+00
  1.30000000E+00  1.30000000E+00  1.80000000E+00  1.70000000E+00  1.70000000E+00
  1.70000000E+00  1.70000000E+00  1.70000000E+00  1.70000000E+00  1.70000000E+00
  1.70000000E+00  1.80000000E+00  1.70000000E+00  1.30000000E+00  1.70000000E+00
  1.70000000E+00  1.30000000E+00  1.70000000E+00  1.70000000E+00  1.70000000E+00
  1.30000000E+00  1.70000000E+00  1.30000000E+00  1.30000000E+00  1.30000000E+00
  1.70000000E+00  1.70000000E+00  1.70000000E+00  1.70000000E+00  1.30000000E+00
  1.70000000E+00  1.30000000E+00  1.70000000E+00  1.30000000E+00  1.30000000E+00
  1.70000000E+00  1.30000000E+00  1.30000000E+00  1.70000000E+00  1.30000000E+00
  1.30000000E+00  1.30000000E+00  1.70000000E+00  1.30000000E+00  1.30000000E+00
  1.70000000E+00  1.30000000E+00  1.30000000E+00  1.70000000E+00  1.30000000E+00
  1.30000000E+00  1.70000000E+00  1.30000000E+00  1.30000000E+00  1.30000000E+00
  1.30000000E+00  1.70000000E+00  1.70000000E+00  1.30000000E+00  1.30000000E+00
  1.30000000E+00  1.70000000E+00  1.30000000E+00  1.30000000E+00  1.30000000E+00
  1.30000000E+00  1.80000000E+00  1.70000000E+00  1.70000000E+00  1.70000000E+00
  1.70000000E+00  1.70000000E+00  1.70000000E+00  1.70000000E+00  1.70000000E+00
  1.80000000E+00  1.70000000E+00  1.30000000E+00  1.70000000E+00  1.70000000E+00
  1.30000000E+00  1.70000000E+00  1.70000000E+00  1.70000000E+00  1.30000000E+00
  1.70000000E+00  1.30000000E+00  1.30000000E+00  1.30000000E+00  1.70000000E+00
  1.70000000E+00  1.70000000E+00  1.70000000E+00  1.30000000E+00  1.70000000E+00
  1.30000000E+00  1.70000000E+00  1.30000000E+00  1.30000000E+00  1.70000000E+00
  1.30000000E+00  1.30000000E+00  1.70000000E+00  1.30000000E+00  1.30000000E+00
  1.30000000E+00  1.70000000E+00  1.30000000E+00  1.30000000E+00  1.70000000E+00
  1.30000000E+00  1.30000000E+00  1.70000000E+00  1.30000000E+00  1.30000000E+00
  1.70000000E+00  1.30000000E+00  1.30000000E+00  1.30000000E+00  1.30000000E+00
  1.70000000E+00  1.70000000E+00  1.30000000E+00  1.30000000E+00  1.30000000E+00
  1.70000000E+00  1.30000000E+00  1.30000000E+00  1.30000000E+00  1.30000000E+00
  1.80000000E+00  1.70000000E+00  1.70000000E+00  1.70000000E+00  1.70000000E+00
  1.70000000E+00  1.70000000E+00  1.70000000E+00  1.70000000E+00  1.80000000E+00
  1.70000000E+00  1.30000000E+00  1.70000000E+00  1.70000000E+00  1.30000000E+00
  1.70000000E+00  1.70000000E+00  1.70000000E+00  1.30000000E+00  1.70000000E+00
  1.30000000E+00  1.30000000E+00  1.30000000E+00  1.70000000E+00  1.70000000E+00
  1.70000000E+00  1.70000000E+00  1.30000000E+00  1.70000000E+00  1.30000000E+00
  1.70000000E+00  1.30000000E+00  1.30000000E+00  1.70000000E+00  1.30000000E+00
  1.30000000E+00  1.70000000E+00  1.30000000E+00  1.30000000E+00  1.30000000E+00
  1.70000000E+00  1.30000000E+00  1.30000000E+00  1.70000000E+00  1.30000000E+00
  1.30000000E+00  1.70000000E+00  1.30000000E+00  1.30000000E+00  1.70000000E+00
  1.30000000E+00  1.30000000E+00  1.30000000E+00  1.30000000E+00  1.70000000E+00
  1.70000000E+00  1.30000000E+00  1.30000000E+00  1.30000000E+00  1.70000000E+00
  1.30000000E+00  1.30000000E+00  1.30000000E+00  1.30000000E+00  1.80000000E+00
  1.70000000E+00  1.70000000E+00  1.70000000E+00  1.70000000E+00  1.70000000E+00
  1.70000000E+00  1.70000000E+00  1.70000000E+00  1.80000000E+00  1.70000000E+00
  1.30000000E+00  1.70000000E+00  1.70000000E+00  1.30000000E+00  1.70000000E+00
  1.70000000E+00  1.70000000E+00  1.30000000E+00  1.70000000E+00  1.30000000E+00
  1.30000000E+00  1.30000000E+00  1.70000000E+00  1.70000000E+00  1.70000000E+00
  1.70000000E+00  1.30000000E+00  1.70000000E+00  1.30000000E+00  1.70000000E+00
  1.30000000E+00  1.30000000E+00  1.70000000E+00  1.30000000E+00  1.30000000E+00
  1.70000000E+00  1.30000000E+00  1.30000000E+00  1.30000000E+00  1.70000000E+00
  1.30000000E+00  1.30000000E+00  1.70000000E+00  1.30000000E+00  1.30000000E+00
  1.70000000E+00  1.30000000E+00  1.30000000E+00  1.70000000E+00  1.30000000E+00
  1.30000000E+00  1.30000000E+00  1.30000000E+00  1.70000000E+00  1.70000000E+00
  1.30000000E+00  1.30000000E+00  1.30000000E+00  1.70000000E+00  1.30000000E+00
  1.30000000E+00  1.30000000E+00  1.30000000E+00  1.80000000E+00  1.70000000E+00
  1.70000000E+00  1.70000000E+00  1.70000000E+00  1.70000000E+00  1.70000000E+00
  1.70000000E+00  1.70000000E+00  1.80000000E+00  1.70000000E+00  1.30000000E+00
  1.70000000E+00  1.70000000E+00  1.30000000E+00  1.70000000E+00  1.70000000E+00
  1.70000000E+00  1.30000000E+00  1.70000000E+00  1.30000000E+00  1.30000000E+00
  1.30000000E+00  1.70000000E+00  1.70000000E+00  1.70000000E+00  1.70000000E+00
  1.30000000E+00  1.70000000E+00  1.30000000E+00  1.70000000E+00  1.30000000E+00
  1.30000000E+00  1.70000000E+00  1.30000000E+00  1.30000000E+00  1.70000000E+00
  1.30000000E+00  1.30000000E+00  1.30000000E+00  1.70000000E+00  1.30000000E+00
  1.30000000E+00  1.70000000E+00  1.30000000E+00  1.30000000E+00  1.70000000E+00
  1.30000000E+00  1.30000000E+00  1.70000000E+00  1.30000000E+00  1.30000000E+00
  1.30000000E+00  1.30000000E+00  1.70000000E+00  1.70000000E+00  1.30000000E+00
  1.30000000E+00  1.30000000E+00  1.70000000E+00  1.30000000E+00  1.30000000E+00
  1.30000000E+00  1.30000000E+00  1.80000000E+00  1.70000000E+00  1.70000000E+00
  1.70000000E+00  1.70000000E+00  1.70000000E+00  1.70000000E+00  1.70000000E+00
  1.70000000E+00  1.80000000E+00  1.70000000E+00  1.30000000E+00  1.70000000E+00
  1.70000000E+00  1.30000000E+00  1.70000000E+00  1.70000000E+00  1.70000000E+00
  1.30000000E+00  1.70000000E+00  1.30000000E+00  1.30000000E+00  1.30000000E+00
  1.70000000E+00  1.70000000E+00  1.70000000E+00  1.70000000E+00  1.30000000E+00
  1.70000000E+00  1.30000000E+00  1.70000000E+00  1.30000000E+00  1.30000000E+00
  1.70000000E+00  1.30000000E+00  1.30000000E+00  1.70000000E+00  1.30000000E+00
  1.30000000E+00  1.30000000E+00  1.70000000E+00  1.30000000E+00  1.30000000E+00
  1.70000000E+00  1.30000000E+00  1.30000000E+00  1.70000000E+00  1.30000000E+00
  1.30000000E+00  1.70000000E+00  1.30000000E+00  1.30000000E+00  1.30000000E+00
  1.30000000E+00  1.70000000E+00  1.70000000E+00  1.30000000E+00  1.30000000E+00
  1.30000000E+00  1.70000000E+00  1.30000000E+00  1.30000000E+00  1.30000000E+00
  1.30000000E+00  1.80000000E+00  1.70000000E+00  1.70000000E+00  1.70000000E+00
  1.70000000E+00  1.70000000E+00  1.70000000E+00  1.70000000E+00  1.70000000E+00
  1.80000000E+00  1.70000000E+00  1.30000000E+00  1.70000000E+00  1.70000000E+00
  1.30000000E+00  1.70000000E+00  1.70000000E+00  1.70000000E+00  1.30000000E+00
  1.70000000E+00  1.30000000E+00  1.30000000E+00  1.30000000E+00  1.70000000E+00
  1.70000000E+00  1.70000000E+00  1.70000000E+00  1.30000000E+00  1.70000000E+00
  1.30000000E+00  1.70000000E+00  1.30000000E+00  1.30000000E+00  1.70000000E+00
  1.30000000E+00  1.30000000E+00  1.70000000E+00  1.30000000E+00  1.30000000E+00
  1.30000000E+00  1.70000000E+00  1.30000000E+00  1.30000000E+00  1.70000000E+00
  1.30000000E+00  1.30000000E+00  1.70000000E+00  1.30000000E+00  1.30000000E+00
  1.70000000E+00  1.30000000E+00  1.30000000E+00  1.30000000E+00  1.30000000E+00
  1.70000000E+00  1.70000000E+00  1.30000000E+00  1.30000000E+00  1.30000000E+00
  1.70000000E+00  1.30000000E+00  1.30000000E+00  1.30000000E+00  1.30000000E+00
  1.80000000E+00  1.70000000E+00  1.70000000E+00  1.70000000E+00  1.70000000E+00
  1.70000000E+00  1.70000000E+00  1.70000000E+00  1.70000000E+00  1.80000000E+00
  1.70000000E+00  1.30000000E+00  1.70000000E+00  1.70000000E+00  1.30000000E+00
  1.70000000E+00  1.70000000E+00  1.70000000E+00  1.30000000E+00  1.70000000E+00
  1.30000000E+00  1.30000000E+00  1.30000000E+00  1.70000000E+00  1.70000000E+00
  1.70000000E+00  1.70000000E+00  1.30000000E+00  1.70000000E+00  1.30000000E+00
  1.70000000E+00  1.30000000E+00  1.30000000E+00  1.70000000E+00  1.30000000E+00
  1.30000000E+00  1.70000000E+00  1.30000000E+00  1.30000000E+00  1.30000000E+00
  1.70000000E+00  1.30000000E+00  1.30000000E+00  1.70000000E+00  1.30000000E+00
  1.30000000E+00  1.70000000E+00  1.30000000E+00  1.30000000E+00  1.70000000E+00
  1.30000000E+00  1.30000000E+00  1.30000000E+00  1.30000000E+00  1.70000000E+00
  1.70000000E+00  1.30000000E+00  1.30000000E+00  1.30000000E+00  1.70000000E+00
  1.30000000E+00  1.30000000E+00  1.30000000E+00  1.30000000E+00  1.80000000E+00
  1.70000000E+00  1.70000000E+00  1.70000000E+00  1.70000000E+00  1.70000000E+00
  1.70000000E+00  1.70000000E+00  1.70000000E+00  1.80000000E+00  1.70000000E+00
  1.30000000E+00  1.70000000E+00  1.70000000E+00  1.30000000E+00  1.70000000E+00
  1.70000000E+00  1.70000000E+00  1.30000000E+00  1.70000000E+00  1.30000000E+00
  1.30000000E+00  1.30000000E+00  1.70000000E+00  1.70000000E+00  1.70000000E+00
  1.70000000E+00  1.30000000E+00  1.70000000E+00  1.30000000E+00  1.70000000E+00
  1.30000000E+00  1.30000000E+00  1.70000000E+00  1.30000000E+00  1.30000000E+00
  1.70000000E+00  1.30000000E+00  1.30000000E+00  1.30000000E+00  1.70000000E+00
  1.30000000E+00  1.30000000E+00  1.70000000E+00  1.30000000E+00  1.30000000E+00
  1.70000000E+00  1.30000000E+00  1.30000000E+00  1.70000000E+00  1.30000000E+00
  1.30000000E+00  1.30000000E+00  1.30000000E+00  1.70000000E+00  1.70000000E+00
  1.30000000E+00  1.30000000E+00  1.30000000E+00  1.70000000E+00  1.30000000E+00
  1.30000000E+00  1.30000000E+00  1.30000000E+00  1.80000000E+00  1.70000000E+00
  1.70000000E+00  1.70000000E+00  1.70000000E+00  1.70000000E+00  1.70000000E+00
  1.70000000E+00  1.70000000E+00  1.80000000E+00  1.70000000E+00  1.30000000E+00
  1.70000000E+00  1.70000000E+00  1.30000000E+00  1.70000000E+00  1.70000000E+00
  1.70000000E+00  1.30000000E+00  1.70000000E+00  1.30000000E+00  1.30000000E+00
  1.30000000E+00  1.70000000E+00  1.70000000E+00  1.70000000E+00  1.70000000E+00
  1.30000000E+00  1.70000000E+00  1.30000000E+00  1.70000000E+00  1.30000000E+00
  1.30000000E+00  1.70000000E+00  1.30000000E+00  1.30000000E+00  1.70000000E+00
  1.30000000E+00  1.30000000E+00  1.30000000E+00  1.70000000E+00  1.30000000E+00
  1.30000000E+00  1.70000000E+00  1.30000000E+00  1.30000000E+00  1.70000000E+00
  1.30000000E+00  1.30000000E+00  1.70000000E+00  1.30000000E+00  1.30000000E+00
  1.30000000E+00  1.30000000E+00  1.70000000E+00  1.70000000E+00  1.30000000E+00
  1.30000000E+00  1.30000000E+00  1.70000000E+00  1.30000000E+00  1.30000000E+00
  1.30000000E+00  1.30000000E+00  1.80000000E+00  1.70000000E+00  1.70000000E+00
  1.70000000E+00  1.70000000E+00  1.70000000E+00  1.70000000E+00  1.70000000E+00
  1.70000000E+00  1.80000000E+00  1.70000000E+00  1.30000000E+00  1.70000000E+00
  1.70000000E+00  1.30000000E+00  1.70000000E+00  1.70000000E+00  1.70000000E+00
  1.30000000E+00  1.70000000E+00  1.30000000E+00  1.30000000E+00  1.30000000E+00
  1.70000000E+00  1.70000000E+00  1.70000000E+00  1.70000000E+00  1.30000000E+00
  1.70000000E+00  1.30000000E+00  1.70000000E+00  1.30000000E+00  1.30000000E+00
  1.70000000E+00  1.30000000E+00  1.30000000E+00  1.70000000E+00  1.30000000E+00
  1.30000000E+00  1.30000000E+00  1.70000000E+00  1.30000000E+00  1.30000000E+00
  1.70000000E+00  1.30000000E+00  1.30000000E+00  1.70000000E+00  1.30000000E+00
  1.30000000E+00  1.70000000E+00  1.30000000E+00  1.30000000E+00  1.30000000E+00
  1.30000000E+00  1.70000000E+00  1.70000000E+00  1.30000000E+00  1.30000000E+00
  1.30000000E+00  1.70000000E+00  1.30000000E+00  1.30000000E+00  1.30000000E+00
  1.30000000E+00  1.80000000E+00  1.70000000E+00  1.70000000E+00  1.70000000E+00
  1.70000000E+00  1.70000000E+00  1.70000000E+00  1.70000000E+00  1.70000000E+00
  1.80000000E+00  1.70000000E+00  1.30000000E+00  1.70000000E+00  1.70000000E+00
  1.30000000E+00  1.70000000E+00  1.70000000E+00  1.70000000E+00  1.30000000E+00
  1.70000000E+00  1.30000000E+00  1.30000000E+00  1.30000000E+00  1.70000000E+00
  1.70000000E+00  1.70000000E+00  1.70000000E+00  1.30000000E+00  1.70000000E+00
  1.30000000E+00  1.70000000E+00  1.30000000E+00  1.30000000E+00  1.70000000E+00
  1.30000000E+00  1.30000000E+00  1.70000000E+00  1.30000000E+00  1.30000000E+00
  1.30000000E+00  1.70000000E+00  1.30000000E+00  1.30000000E+00  1.70000000E+00
  1.30000000E+00  1.30000000E+00  1.70000000E+00  1.30000000E+00  1.30000000E+00
  1.70000000E+00  1.30000000E+00  1.30000000E+00  1.30000000E+00  1.30000000E+00
  1.70000000E+00  1.70000000E+00  1.30000000E+00  1.30000000E+00  1.30000000E+00
  1.70000000E+00  1.30000000E+00  1.30000000E+00  1.30000000E+00  1.30000000E+00
  1.80000000E+00  1.70000000E+00  1.70000000E+00  1.70000000E+00  1.70000000E+00
  1.70000000E+00  1.70000000E+00  1.70000000E+00  1.70000000E+00  1.80000000E+00
  1.70000000E+00  1.30000000E+00  1.70000000E+00  1.70000000E+00  1.30000000E+00
  1.70000000E+00  1.70000000E+00  1.70000000E+00  1.30000000E+00  1.70000000E+00
  1.30000000E+00  1.30000000E+00  1.30000000E+00  1.70000000E+00  1.70000000E+00
  1.70000000E+00  1.70000000E+00  1.30000000E+00  1.70000000E+00  1.30000000E+00
  1.70000000E+00  1.30000000E+00  1.30000000E+00  1.70000000E+00  1.30000000E+00
  1.30000000E+00  1.70000000E+00  1.30000000E+00  1.30000000E+00  1.30000000E+00
  1.70000000E+00  1.30000000E+00  1.30000000E+00  1.70000000E+00  1.30000000E+00
  1.30000000E+00  1.70000000E+00  1.30000000E+00  1.30000000E+00  1.70000000E+00
  1.30000000E+00  1.30000000E+00  1.30000000E+00  1.30000000E+00  1.70000000E+00
  1.70000000E+00  1.30000000E+00  1.30000000E+00  1.30000000E+00  1.70000000E+00
  1.30000000E+00  1.30000000E+00  1.30000000E+00  1.30000000E+00  1.80000000E+00
  1.70000000E+00  1.70000000E+00  1.70000000E+00  1.70000000E+00  1.70000000E+00
  1.70000000E+00  1.70000000E+00  1.70000000E+00  1.80000000E+00  1.70000000E+00
  1.30000000E+00  1.70000000E+00  1.70000000E+00  1.30000000E+00  1.70000000E+00
  1.70000000E+00  1.70000000E+00  1.30000000E+00  1.70000000E+00  1.30000000E+00
  1.30000000E+00  1.30000000E+00  1.70000000E+00  1.70000000E+00  1.70000000E+00
  1.70000000E+00  1.30000000E+00  1.70000000E+00  1.30000000E+00  1.70000000E+00
  1.30000000E+00  1.30000000E+00  1.70000000E+00  1.30000000E+00  1.30000000E+00
  1.70000000E+00  1.30000000E+00  1.30000000E+00  1.30000000E+00  1.70000000E+00
  1.30000000E+00  1.30000000E+00  1.70000000E+00  1.30000000E+00  1.30000000E+00
  1.70000000E+00  1.30000000E+00  1.30000000E+00  1.70000000E+00  1.30000000E+00
  1.30000000E+00  1.30000000E+00  1.30000000E+00  1.70000000E+00  1.70000000E+00
  1.30000000E+00  1.30000000E+00  1.30000000E+00  1.70000000E+00  1.30000000E+00
  1.30000000E+00  1.30000000E+00  1.30000000E+00  1.80000000E+00  1.70000000E+00
  1.70000000E+00  1.70000000E+00  1.70000000E+00  1.70000000E+00  1.70000000E+00
  1.70000000E+00  1.70000000E+00  1.80000000E+00  1.70000000E+00  1.30000000E+00
  1.70000000E+00  1.70000000E+00  1.30000000E+00  1.70000000E+00  1.70000000E+00
  1.70000000E+00  1.30000000E+00  1.70000000E+00  1.30000000E+00  1.30000000E+00
  1.30000000E+00  1.70000000E+00  1.70000000E+00  1.70000000E+00  1.70000000E+00
  1.30000000E+00  1.70000000E+00  1.30000000E+00  1.70000000E+00  1.30000000E+00
  1.30000000E+00  1.70000000E+00  1.30000000E+00  1.30000000E+00  1.70000000E+00
  1.30000000E+00  1.30000000E+00  1.30000000E+00  1.70000000E+00  1.30000000E+00
  1.30000000E+00  1.70000000E+00  1.30000000E+00  1.30000000E+00  1.70000000E+00
  1.30000000E+00  1.30000000E+00  1.70000000E+00  1.30000000E+00  1.30000000E+00
  1.30000000E+00  1.30000000E+00  1.70000000E+00  1.70000000E+00  1.30000000E+00
  1.30000000E+00  1.30000000E+00  1.70000000E+00  1.30000000E+00  1.30000000E+00
  1.30000000E+00  1.30000000E+00  1.80000000E+00  1.70000000E+00  1.70000000E+00
  1.70000000E+00  1.70000000E+00  1.70000000E+00  1.70000000E+00  1.70000000E+00
  1.70000000E+00  1.80000000E+00  1.70000000E+00  1.30000000E+00  1.70000000E+00
  1.70000000E+00  1.30000000E+00  1.70000000E+00  1.70000000E+00  1.70000000E+00
  1.30000000E+00  1.70000000E+00  1.30000000E+00  1.30000000E+00  1.30000000E+00
  1.70000000E+00  1.70000000E+00  1.70000000E+00  1.70000000E+00  1.30000000E+00
  1.70000000E+00  1.30000000E+00  1.70000000E+00  1.30000000E+00  1.30000000E+00
  1.70000000E+00  1.30000000E+00  1.30000000E+00  1.70000000E+00  1.30000000E+00
  1.30000000E+00  1.30000000E+00  1.70000000E+00  1.30000000E+00  1.30000000E+00
  1.70000000E+00  1.30000000E+00  1.30000000E+00  1.70000000E+00  1.30000000E+00
  1.30000000E+00  1.70000000E+00  1.30000000E+00  1.30000000E+00  1.30000000E+00
  1.30000000E+00  1.70000000E+00  1.70000000E+00  1.30000000E+00  1.30000000E+00
  1.30000000E+00  1.70000000E+00  1.30000000E+00  1.30000000E+00  1.30000000E+00
  1.30000000E+00  1.80000000E+00  1.70000000E+00  1.70000000E+00  1.70000000E+00
  1.70000000E+00  1.70000000E+00  1.70000000E+00  1.70000000E+00  1.70000000E+00
  1.80000000E+00  1.70000000E+00  1.30000000E+00  1.70000000E+00  1.70000000E+00
  1.30000000E+00  1.70000000E+00  1.70000000E+00  1.70000000E+00  1.30000000E+00
  1.70000000E+00  1.30000000E+00  1.30000000E+00  1.30000000E+00  1.70000000E+00
  1.70000000E+00  1.70000000E+00  1.70000000E+00  1.30000000E+00  1.70000000E+00
  1.30000000E+00  1.70000000E+00  1.30000000E+00  1.30000000E+00  1.70000000E+00
  1.30000000E+00  1.30000000E+00  1.70000000E+00  1.30000000E+00  1.30000000E+00
  1.30000000E+00  1.70000000E+00  1.30000000E+00  1.30000000E+00  1.70000000E+00
  1.30000000E+00  1.30000000E+00  1.70000000E+00  1.30000000E+00  1.30000000E+00
  1.70000000E+00  1.30000000E+00  1.30000000E+00  1.30000000E+00  1.30000000E+00
  1.70000000E+00  1.70000000E+00  1.30000000E+00  1.30000000E+00  1.30000000E+00
  1.70000000E+00  1.30000000E+00  1.30000000E+00  1.30000000E+00  1.30000000E+00
  1.80000000E+00  1.70000000E+00  1.70000000E+00  1.70000000E+00  1.70000000E+00
  1.70000000E+00  1.70000000E+00  1.70000000E+00  1.70000000E+00  1.80000000E+00
  1.70000000E+00  1.30000000E+00  1.70000000E+00  1.70000000E+00  1.30000000E+00
  1.70000000E+00  1.70000000E+00  1.70000000E+00  1.30000000E+00  1.70000000E+00
  1.30000000E+00  1.30000000E+00  1.30000000E+00  1.70000000E+00  1.70000000E+00
  1.70000000E+00  1.70000000E+00  1.30000000E+00  1.70000000E+00  1.30000000E+00
  1.70000000E+00  1.30000000E+00  1.30000000E+00  1.70000000E+00  1.30000000E+00
  1.30000000E+00  1.70000000E+00  1.30000000E+00  1.30000000E+00  1.30000000E+00
  1.70000000E+00  1.30000000E+00  1.30000000E+00  1.70000000E+00  1.30000000E+00
  1.30000000E+00  1.70000000E+00  1.30000000E+00  1.30000000E+00  1.70000000E+00
  1.30000000E+00  1.30000000E+00  1.30000000E+00  1.30000000E+00  1.70000000E+00
  1.70000000E+00  1.30000000E+00  1.30000000E+00  1.30000000E+00  1.70000000E+00
  1.30000000E+00  1.30000000E+00  1.30000000E+00  1.30000000E+00  1.80000000E+00
  1.70000000E+00  1.70000000E+00  1.70000000E+00  1.70000000E+00  1.70000000E+00
  1.70000000E+00  1.70000000E+00  1.70000000E+00  1.80000000E+00  1.70000000E+00
  1.30000000E+00  1.70000000E+00  1.70000000E+00  1.30000000E+00  1.70000000E+00
  1.70000000E+00  1.70000000E+00  1.30000000E+00  1.70000000E+00  1.30000000E+00
  1.30000000E+00  1.30000000E+00  1.70000000E+00  1.70000000E+00  1.70000000E+00
  1.70000000E+00  1.30000000E+00  1.70000000E+00  1.30000000E+00  1.70000000E+00
  1.30000000E+00  1.30000000E+00  1.70000000E+00  1.30000000E+00  1.30000000E+00
  1.70000000E+00  1.30000000E+00  1.30000000E+00  1.30000000E+00  1.70000000E+00
  1.30000000E+00  1.30000000E+00  1.70000000E+00  1.30000000E+00  1.30000000E+00
  1.70000000E+00  1.30000000E+00  1.30000000E+00  1.70000000E+00  1.30000000E+00
  1.30000000E+00  1.30000000E+00  1.30000000E+00  1.70000000E+00  1.70000000E+00
  1.30000000E+00  1.30000000E+00  1.30000000E+00  1.70000000E+00  1.30000000E+00
  1.30000000E+00  1.30000000E+00  1.30000000E+00  1.80000000E+00  1.70000000E+00
  1.70000000E+00  1.70000000E+00  1.70000000E+00  1.70000000E+00  1.70000000E+00
  1.70000000E+00  1.70000000E+00  1.80000000E+00  1.70000000E+00  1.30000000E+00
  1.70000000E+00  1.70000000E+00  1.30000000E+00  1.70000000E+00  1.70000000E+00
  1.70000000E+00  1.30000000E+00  1.70000000E+00  1.30000000E+00  1.30000000E+00
  1.30000000E+00  1.70000000E+00  1.70000000E+00  1.70000000E+00  1.70000000E+00
  1.30000000E+00  1.70000000E+00  1.30000000E+00  1.70000000E+00  1.30000000E+00
  1.30000000E+00  1.70000000E+00  1.30000000E+00  1.30000000E+00  1.70000000E+00
  1.30000000E+00  1.30000000E+00  1.30000000E+00  1.70000000E+00  1.30000000E+00
  1.30000000E+00  1.70000000E+00  1.30000000E+00  1.30000000E+00  1.70000000E+00
  1.30000000E+00  1.30000000E+00  1.70000000E+00  1.30000000E+00  1.30000000E+00
  1.30000000E+00  1.30000000E+00  1.70000000E+00  1.70000000E+00  1.30000000E+00
  1.30000000E+00  1.30000000E+00  1.70000000E+00  1.30000000E+00  1.30000000E+00
  1.30000000E+00  1.30000000E+00  1.80000000E+00  1.70000000E+00  1.70000000E+00
  1.70000000E+00  1.70000000E+00  1.70000000E+00  1.70000000E+00  1.70000000E+00
  1.70000000E+00  1.80000000E+00  1.70000000E+00  1.30000000E+00  1.70000000E+00
  1.70000000E+00  1.30000000E+00  1.70000000E+00  1.70000000E+00  1.70000000E+00
  1.30000000E+00  1.70000000E+00  1.30000000E+00  1.30000000E+00  1.30000000E+00
  1.70000000E+00  1.70000000E+00  1.70000000E+00  1.70000000E+00  1.30000000E+00
  1.70000000E+00  1.30000000E+00  1.70000000E+00  1.30000000E+00  1.30000000E+00
  1.70000000E+00  1.30000000E+00  1.30000000E+00  1.70000000E+00  1.30000000E+00
  1.30000000E+00  1.30000000E+00  1.70000000E+00  1.30000000E+00  1.30000000E+00
  1.70000000E+00  1.30000000E+00  1.30000000E+00  1.70000000E+00  1.30000000E+00
  1.30000000E+00  1.70000000E+00  1.30000000E+00  1.30000000E+00  1.30000000E+00
  1.30000000E+00  1.70000000E+00  1.70000000E+00  1.30000000E+00  1.30000000E+00
  1.30000000E+00  1.70000000E+00  1.30000000E+00  1.30000000E+00  1.30000000E+00
  1.30000000E+00  1.80000000E+00  1.70000000E+00  1.70000000E+00  1.70000000E+00
  1.70000000E+00  1.70000000E+00  1.70000000E+00  1.70000000E+00  1.70000000E+00
  1.80000000E+00  1.70000000E+00  1.30000000E+00  1.70000000E+00  1.70000000E+00
  1.30000000E+00  1.70000000E+00  1.70000000E+00  1.70000000E+00  1.30000000E+00
  1.70000000E+00  1.30000000E+00  1.30000000E+00  1.30000000E+00  1.70000000E+00
  1.70000000E+00  1.70000000E+00  1.70000000E+00  1.30000000E+00  1.70000000E+00
  1.30000000E+00  1.70000000E+00  1.30000000E+00  1.30000000E+00  1.70000000E+00
  1.30000000E+00  1.30000000E+00  1.70000000E+00  1.30000000E+00  1.30000000E+00
  1.30000000E+00  1.70000000E+00  1.30000000E+00  1.30000000E+00  1.70000000E+00
  1.30000000E+00  1.30000000E+00  1.70000000E+00  1.30000000E+00  1.30000000E+00
  1.70000000E+00  1.30000000E+00  1.30000000E+00  1.30000000E+00  1.30000000E+00
  1.70000000E+00  1.70000000E+00  1.30000000E+00  1.30000000E+00  1.30000000E+00
  1.70000000E+00  1.30000000E+00  1.30000000E+00  1.30000000E+00  1.30000000E+00
  1.80000000E+00  1.70000000E+00  1.70000000E+00  1.70000000E+00  1.70000000E+00
  1.70000000E+00  1.70000000E+00  1.70000000E+00  1.70000000E+00  1.80000000E+00
  1.70000000E+00  1.30000000E+00  1.70000000E+00  1.70000000E+00  1.30000000E+00
  1.70000000E+00  1.70000000E+00  1.70000000E+00  1.30000000E+00  1.70000000E+00
  1.30000000E+00  1.30000000E+00  1.30000000E+00  1.70000000E+00  1.70000000E+00
  1.70000000E+00  1.70000000E+00  1.30000000E+00  1.70000000E+00  1.30000000E+00
  1.70000000E+00  1.30000000E+00  1.30000000E+00  1.70000000E+00  1.30000000E+00
  1.30000000E+00  1.70000000E+00  1.30000000E+00  1.30000000E+00  1.30000000E+00
  1.70000000E+00  1.30000000E+00  1.30000000E+00  1.70000000E+00  1.30000000E+00
  1.30000000E+00  1.70000000E+00  1.30000000E+00  1.30000000E+00  1.70000000E+00
  1.30000000E+00  1.30000000E+00  1.30000000E+00  1.30000000E+00  1.70000000E+00
  1.70000000E+00  1.30000000E+00  1.30000000E+00  1.30000000E+00  1.70000000E+00
  1.30000000E+00  1.30000000E+00  1.30000000E+00  1.30000000E+00  1.80000000E+00
  1.70000000E+00  1.70000000E+00  1.70000000E+00  1.70000000E+00  1.70000000E+00
  1.70000000E+00  1.70000000E+00  1.70000000E+00  1.80000000E+00  1.70000000E+00
  1.30000000E+00  1.70000000E+00  1.70000000E+00  1.30000000E+00  1.70000000E+00
  1.70000000E+00  1.70000000E+00  1.30000000E+00  1.70000000E+00  1.30000000E+00
  1.30000000E+00  1.30000000E+00  1.70000000E+00  1.70000000E+00  1.70000000E+00
  1.70000000E+00  1.30000000E+00  1.70000000E+00  1.30000000E+00  1.70000000E+00
  1.30000000E+00  1.30000000E+00  1.70000000E+00  1.30000000E+00  1.30000000E+00
  1.70000000E+00  1.30000000E+00  1.30000000E+00  1.30000000E+00  1.70000000E+00
  1.30000000E+00  1.30000000E+00  1.70000000E+00  1.30000000E+00  1.30000000E+00
  1.70000000E+00  1.30000000E+00  1.30000000E+00  1.70000000E+00  1.30000000E+00
  1.30000000E+00  1.30000000E+00  1.30000000E+00  1.70000000E+00  1.70000000E+00
  1.30000000E+00  1.30000000E+00  1.30000000E+00  1.70000000E+00  1.30000000E+00
  1.30000000E+00  1.30000000E+00  1.30000000E+00  1.80000000E+00  1.70000000E+00
  1.70000000E+00  1.70000000E+00  1.70000000E+00  1.70000000E+00  1.70000000E+00
  1.70000000E+00  1.70000000E+00  1.80000000E+00  1.70000000E+00  1.30000000E+00
  1.70000000E+00  1.70000000E+00  1.30000000E+00  1.70000000E+00  1.70000000E+00
  1.70000000E+00  1.30000000E+00  1.70000000E+00  1.30000000E+00  1.30000000E+00
  1.30000000E+00  1.70000000E+00  1.70000000E+00  1.70000000E+00  1.70000000E+00
  1.30000000E+00  1.70000000E+00  1.30000000E+00  1.70000000E+00  1.30000000E+00
  1.30000000E+00  1.70000000E+00  1.30000000E+00  1.30000000E+00  1.70000000E+00
  1.30000000E+00  1.30000000E+00  1.30000000E+00  1.70000000E+00  1.30000000E+00
  1.30000000E+00  1.70000000E+00  1.30000000E+00  1.30000000E+00  1.70000000E+00
  1.30000000E+00  1.30000000E+00  1.70000000E+00  1.30000000E+00  1.30000000E+00
  1.30000000E+00  1.30000000E+00  1.70000000E+00  1.70000000E+00  1.30000000E+00
  1.30000000E+00  1.30000000E+00  1.70000000E+00  1.30000000E+00  1.30000000E+00
  1.30000000E+00  1.30000000E+00  1.80000000E+00  1.70000000E+00  1.70000000E+00
  1.70000000E+00  1.70000000E+00  1.70000000E+00  1.70000000E+00  1.70000000E+00
  1.70000000E+00  1.80000000E+00  1.70000000E+00  1.30000000E+00  1.70000000E+00
  1.70000000E+00  1.30000000E+00  1.70000000E+00  1.70000000E+00  1.70000000E+00
  1.30000000E+00  1.70000000E+00  1.30000000E+00  1.30000000E+00  1.30000000E+00
  1.70000000E+00  1.70000000E+00  1.70000000E+00  1.70000000E+00  1.30000000E+00
  1.70000000E+00  1.30000000E+00  1.70000000E+00  1.30000000E+00  1.30000000E+00
  1.70000000E+00  1.30000000E+00  1.30000000E+00  1.70000000E+00  1.30000000E+00
  1.30000000E+00  1.30000000E+00  1.70000000E+00  1.30000000E+00  1.30000000E+00
  1.70000000E+00  1.30000000E+00  1.30000000E+00  1.70000000E+00  1.30000000E+00
  1.30000000E+00  1.70000000E+00  1.30000000E+00  1.30000000E+00  1.30000000E+00
  1.30000000E+00  1.70000000E+00  1.70000000E+00  1.30000000E+00  1.30000000E+00
  1.30000000E+00  1.70000000E+00  1.30000000E+00  1.30000000E+00  1.30000000E+00
  1.30000000E+00  1.80000000E+00  1.70000000E+00  1.70000000E+00  1.70000000E+00
  1.70000000E+00  1.70000000E+00  1.70000000E+00  1.70000000E+00  1.70000000E+00
  1.80000000E+00  1.70000000E+00  1.30000000E+00  1.70000000E+00  1.70000000E+00
  1.30000000E+00  1.70000000E+00  1.70000000E+00  1.70000000E+00  1.30000000E+00
  1.70000000E+00  1.30000000E+00  1.30000000E+00  1.30000000E+00  1.70000000E+00
  1.70000000E+00  1.70000000E+00  1.70000000E+00  1.30000000E+00  1.70000000E+00
  1.30000000E+00  1.70000000E+00  1.30000000E+00  1.30000000E+00  1.70000000E+00
  1.30000000E+00  1.30000000E+00  1.70000000E+00  1.30000000E+00  1.30000000E+00
  1.30000000E+00  1.70000000E+00  1.30000000E+00  1.30000000E+00  1.70000000E+00
  1.30000000E+00  1.30000000E+00  1.70000000E+00  1.30000000E+00  1.30000000E+00
  1.70000000E+00  1.30000000E+00  1.30000000E+00  1.30000000E+00  1.30000000E+00
  1.70000000E+00  1.70000000E+00  1.30000000E+00  1.30000000E+00  1.30000000E+00
  1.70000000E+00  1.30000000E+00  1.30000000E+00  1.30000000E+00  1.30000000E+00
  1.80000000E+00  1.70000000E+00  1.70000000E+00  1.70000000E+00  1.70000000E+00
  1.70000000E+00  1.70000000E+00  1.70000000E+00  1.70000000E+00  1.80000000E+00
  1.70000000E+00  1.30000000E+00  1.70000000E+00  1.70000000E+00  1.30000000E+00
  1.70000000E+00  1.70000000E+00  1.70000000E+00  1.30000000E+00  1.70000000E+00
  1.30000000E+00  1.30000000E+00  1.30000000E+00  1.70000000E+00  1.70000000E+00
  1.70000000E+00  1.70000000E+00  1.30000000E+00  1.70000000E+00  1.30000000E+00
  1.70000000E+00  1.30000000E+00  1.30000000E+00  1.70000000E+00  1.30000000E+00
  1.30000000E+00  1.70000000E+00  1.30000000E+00  1.30000000E+00  1.30000000E+00
  1.70000000E+00  1.30000000E+00  1.30000000E+00  1.70000000E+00  1.30000000E+00
  1.30000000E+00  1.70000000E+00  1.30000000E+00  1.30000000E+00  1.70000000E+00
  1.30000000E+00  1.30000000E+00  1.30000000E+00  1.30000000E+00  1.70000000E+00
  1.70000000E+00  1.30000000E+00  1.30000000E+00  1.30000000E+00  1.70000000E+00
  1.30000000E+00  1.30000000E+00  1.30000000E+00  1.30000000E+00  1.80000000E+00
  1.70000000E+00  1.70000000E+00  1.70000000E+00  1.70000000E+00  1.70000000E+00
  1.70000000E+00  1.70000000E+00  1.70000000E+00  1.80000000E+00  1.70000000E+00
  1.30000000E+00  1.70000000E+00  1.70000000E+00  1.30000000E+00  1.70000000E+00
  1.70000000E+00  1.70000000E+00  1.30000000E+00  1.70000000E+00  1.30000000E+00
  1.30000000E+00  1.30000000E+00  1.70000000E+00  1.70000000E+00  1.70000000E+00
  1.70000000E+00  1.30000000E+00  1.70000000E+00  1.30000000E+00  1.70000000E+00
  1.30000000E+00  1.30000000E+00  1.70000000E+00  1.30000000E+00  1.30000000E+00
  1.70000000E+00  1.30000000E+00  1.30000000E+00  1.30000000E+00  1.70000000E+00
  1.30000000E+00  1.30000000E+00  1.70000000E+00  1.30000000E+00  1.30000000E+00
  1.70000000E+00  1.30000000E+00  1.30000000E+00  1.70000000E+00  1.30000000E+00
  1.30000000E+00  1.30000000E+00  1.30000000E+00  1.70000000E+00  1.70000000E+00
  1.30000000E+00  1.30000000E+00  1.30000000E+00  1.70000000E+00  1.30000000E+00
  1.30000000E+00  1.30000000E+00  1.30000000E+00  1.80000000E+00  1.70000000E+00
  1.70000000E+00  1.70000000E+00  1.70000000E+00  1.70000000E+00  1.70000000E+00
  1.70000000E+00  1.70000000E+00  1.80000000E+00  1.70000000E+00  1.30000000E+00
  1.70000000E+00  1.70000000E+00  1.30000000E+00  1.70000000E+00  1.70000000E+00
  1.70000000E+00  1.30000000E+00  1.70000000E+00  1.30000000E+00  1.30000000E+00
  1.30000000E+00  1.70000000E+00  1.70000000E+00  1.70000000E+00  1.70000000E+00
  1.30000000E+00  1.70000000E+00  1.30000000E+00  1.70000000E+00  1.30000000E+00
  1.30000000E+00  1.70000000E+00  1.30000000E+00  1.30000000E+00  1.70000000E+00
  1.30000000E+00  1.30000000E+00  1.30000000E+00  1.70000000E+00  1.30000000E+00
  1.30000000E+00  1.70000000E+00  1.30000000E+00  1.30000000E+00  1.70000000E+00
  1.30000000E+00  1.30000000E+00  1.70000000E+00  1.30000000E+00  1.30000000E+00
  1.30000000E+00  1.30000000E+00  1.70000000E+00  1.70000000E+00  1.30000000E+00
  1.30000000E+00  1.30000000E+00  1.70000000E+00  1.30000000E+00  1.30000000E+00
  1.30000000E+00  1.30000000E+00  1.80000000E+00  1.70000000E+00  1.70000000E+00
  1.70000000E+00  1.70000000E+00  1.70000000E+00  1.70000000E+00  1.70000000E+00
  1.70000000E+00  1.80000000E+00  1.70000000E+00  1.30000000E+00  1.70000000E+00
  1.70000000E+00  1.30000000E+00  1.70000000E+00  1.70000000E+00  1.70000000E+00
  1.30000000E+00  1.70000000E+00  1.30000000E+00  1.30000000E+00  1.30000000E+00
  1.70000000E+00  1.70000000E+00  1.70000000E+00  1.70000000E+00  1.30000000E+00
  1.70000000E+00  1.30000000E+00  1.70000000E+00  1.30000000E+00  1.30000000E+00
  1.70000000E+00  1.30000000E+00  1.30000000E+00  1.70000000E+00  1.30000000E+00
  1.30000000E+00  1.30000000E+00  1.70000000E+00  1.30000000E+00  1.30000000E+00
  1.70000000E+00  1.30000000E+00  1.30000000E+00  1.70000000E+00  1.30000000E+00
  1.30000000E+00  1.70000000E+00  1.30000000E+00  1.30000000E+00  1.30000000E+00
  1.30000000E+00  1.70000000E+00  1.70000000E+00  1.30000000E+00  1.30000000E+00
  1.30000000E+00  1.70000000E+00  1.30000000E+00  1.30000000E+00  1.30000000E+00
  1.30000000E+00  1.80000000E+00  1.70000000E+00  1.70000000E+00  1.70000000E+00
  1.70000000E+00  1.70000000E+00  1.70000000E+00  1.70000000E+00  1.70000000E+00
  1.80000000E+00  1.70000000E+00  1.30000000E+00  1.70000000E+00  1.70000000E+00
  1.30000000E+00  1.70000000E+00  1.70000000E+00  1.70000000E+00  1.30000000E+00
  1.70000000E+00  1.30000000E+00  1.30000000E+00  1.30000000E+00  1.70000000E+00
  1.70000000E+00  1.70000000E+00  1.70000000E+00  1.30000000E+00  1.70000000E+00
  1.30000000E+00  1.70000000E+00  1.30000000E+00  1.30000000E+00  1.70000000E+00
  1.30000000E+00  1.30000000E+00  1.70000000E+00  1.30000000E+00  1.30000000E+00
  1.30000000E+00  1.70000000E+00  1.30000000E+00  1.30000000E+00  1.70000000E+00
  1.30000000E+00  1.30000000E+00  1.70000000E+00  1.30000000E+00  1.30000000E+00
  1.70000000E+00  1.30000000E+00  1.30000000E+00  1.30000000E+00  1.30000000E+00
  1.70000000E+00  1.70000000E+00  1.30000000E+00  1.30000000E+00  1.30000000E+00
  1.70000000E+00  1.30000000E+00  1.30000000E+00  1.30000000E+00  1.30000000E+00
  1.80000000E+00  1.70000000E+00  1.70000000E+00  1.70000000E+00  1.70000000E+00
  1.70000000E+00  1.70000000E+00  1.70000000E+00  1.70000000E+00  1.80000000E+00
  1.70000000E+00  1.30000000E+00  1.70000000E+00  1.70000000E+00  1.30000000E+00
  1.70000000E+00  1.70000000E+00  1.70000000E+00  1.30000000E+00  1.70000000E+00
  1.30000000E+00  1.30000000E+00  1.30000000E+00  1.70000000E+00  1.70000000E+00
  1.70000000E+00  1.70000000E+00  1.30000000E+00  1.70000000E+00  1.30000000E+00
  1.70000000E+00  1.30000000E+00  1.30000000E+00  1.70000000E+00  1.30000000E+00
  1.30000000E+00  1.70000000E+00  1.30000000E+00  1.30000000E+00  1.30000000E+00
  1.70000000E+00  1.30000000E+00  1.30000000E+00  1.70000000E+00  1.30000000E+00
  1.30000000E+00  1.70000000E+00  1.30000000E+00  1.30000000E+00  1.70000000E+00
  1.30000000E+00  1.30000000E+00  1.30000000E+00  1.30000000E+00  1.70000000E+00
  1.70000000E+00  1.30000000E+00  1.30000000E+00  1.30000000E+00  1.70000000E+00
  1.30000000E+00  1.30000000E+00  1.30000000E+00  1.30000000E+00  1.80000000E+00
  1.70000000E+00  1.70000000E+00  1.70000000E+00  1.70000000E+00  1.70000000E+00
  1.70000000E+00  1.70000000E+00  1.70000000E+00  1.80000000E+00  1.70000000E+00
  1.30000000E+00  1.70000000E+00  1.70000000E+00  1.30000000E+00  1.70000000E+00
  1.70000000E+00  1.70000000E+00  1.30000000E+00  1.70000000E+00  1.30000000E+00
  1.30000000E+00  1.30000000E+00  1.70000000E+00  1.70000000E+00  1.70000000E+00
  1.70000000E+00  1.30000000E+00  1.70000000E+00  1.30000000E+00  1.70000000E+00
  1.30000000E+00  1.30000000E+00  1.70000000E+00  1.30000000E+00  1.30000000E+00
  1.70000000E+00  1.30000000E+00  1.30000000E+00  1.30000000E+00  1.70000000E+00
  1.30000000E+00  1.30000000E+00  1.70000000E+00  1.30000000E+00  1.30000000E+00
  1.70000000E+00  1.30000000E+00  1.30000000E+00  1.70000000E+00  1.30000000E+00
  1.30000000E+00  1.30000000E+00  1.30000000E+00  1.70000000E+00  1.70000000E+00
  1.30000000E+00  1.30000000E+00  1.30000000E+00  1.70000000E+00  1.30000000E+00
  1.30000000E+00  1.30000000E+00  1.30000000E+00  1.80000000E+00  1.70000000E+00
  1.70000000E+00  1.70000000E+00  1.70000000E+00  1.70000000E+00  1.70000000E+00
  1.70000000E+00  1.70000000E+00  1.80000000E+00  1.70000000E+00  1.30000000E+00
  1.70000000E+00  1.70000000E+00  1.30000000E+00  1.70000000E+00  1.70000000E+00
  1.70000000E+00  1.30000000E+00  1.70000000E+00  1.30000000E+00  1.30000000E+00
  1.30000000E+00  1.70000000E+00  1.70000000E+00  1.70000000E+00  1.70000000E+00
  1.30000000E+00  1.70000000E+00  1.30000000E+00  1.70000000E+00  1.30000000E+00
  1.30000000E+00  1.70000000E+00  1.30000000E+00  1.30000000E+00  1.70000000E+00
  1.30000000E+00  1.30000000E+00  1.30000000E+00  1.70000000E+00  1.30000000E+00
  1.30000000E+00  1.70000000E+00  1.30000000E+00  1.30000000E+00  1.70000000E+00
  1.30000000E+00  1.30000000E+00  1.70000000E+00  1.30000000E+00  1.30000000E+00
  1.30000000E+00  1.30000000E+00  1.70000000E+00  1.70000000E+00  1.30000000E+00
  1.30000000E+00  1.30000000E+00  1.70000000E+00  1.30000000E+00  1.30000000E+00
  1.30000000E+00  1.30000000E+00  1.80000000E+00  1.70000000E+00  1.70000000E+00
  1.70000000E+00  1.70000000E+00  1.70000000E+00  1.70000000E+00  1.70000000E+00
  1.70000000E+00  1.80000000E+00  1.70000000E+00  1.30000000E+00  1.70000000E+00
  1.70000000E+00  1.30000000E+00  1.70000000E+00  1.70000000E+00  1.70000000E+00
  1.30000000E+00  1.70000000E+00  1.30000000E+00  1.30000000E+00  1.30000000E+00
  1.70000000E+00  1.70000000E+00  1.70000000E+00  1.70000000E+00  1.30000000E+00
  1.70000000E+00  1.30000000E+00  1.70000000E+00  1.30000000E+00  1.30000000E+00
  1.70000000E+00  1.30000000E+00  1.30000000E+00  1.70000000E+00  1.30000000E+00
  1.30000000E+00  1.30000000E+00  1.70000000E+00  1.30000000E+00  1.30000000E+00
  1.70000000E+00  1.30000000E+00  1.30000000E+00  1.70000000E+00  1.30000000E+00
  1.30000000E+00  1.70000000E+00  1.30000000E+00  1.30000000E+00  1.30000000E+00
  1.30000000E+00  1.70000000E+00  1.70000000E+00  1.30000000E+00  1.30000000E+00
  1.30000000E+00  1.70000000E+00  1.30000000E+00  1.30000000E+00  1.30000000E+00
  1.30000000E+00  1.80000000E+00  1.70000000E+00  1.70000000E+00  1.70000000E+00
  1.70000000E+00  1.70000000E+00  1.70000000E+00  1.70000000E+00  1.70000000E+00
  1.80000000E+00  1.70000000E+00  1.30000000E+00  1.70000000E+00  1.70000000E+00
  1.30000000E+00  1.70000000E+00  1.70000000E+00  1.70000000E+00  1.30000000E+00
  1.70000000E+00  1.30000000E+00  1.30000000E+00  1.30000000E+00  1.70000000E+00
  1.70000000E+00  1.70000000E+00  1.70000000E+00  1.30000000E+00  1.70000000E+00
  1.30000000E+00  1.70000000E+00  1.30000000E+00  1.30000000E+00  1.70000000E+00
  1.30000000E+00  1.30000000E+00  1.70000000E+00  1.30000000E+00  1.30000000E+00
  1.30000000E+00  1.70000000E+00  1.30000000E+00  1.30000000E+00  1.70000000E+00
  1.30000000E+00  1.30000000E+00  1.70000000E+00  1.30000000E+00  1.30000000E+00
  1.70000000E+00  1.30000000E+00  1.30000000E+00  1.30000000E+00  1.30000000E+00
  1.70000000E+00  1.70000000E+00  1.30000000E+00  1.30000000E+00  1.30000000E+00
  1.70000000E+00  1.30000000E+00  1.30000000E+00  1.30000000E+00  1.30000000E+00
  1.80000000E+00  1.70000000E+00  1.70000000E+00  1.70000000E+00  1.70000000E+00
  1.70000000E+00  1.70000000E+00  1.70000000E+00  1.70000000E+00  1.80000000E+00
  1.70000000E+00  1.30000000E+00  1.70000000E+00  1.70000000E+00  1.30000000E+00
  1.70000000E+00  1.70000000E+00  1.70000000E+00  1.30000000E+00  1.70000000E+00
  1.30000000E+00  1.30000000E+00  1.30000000E+00  1.70000000E+00  1.70000000E+00
  1.70000000E+00  1.70000000E+00  1.30000000E+00  1.70000000E+00  1.30000000E+00
  1.70000000E+00  1.30000000E+00  1.30000000E+00  1.70000000E+00  1.30000000E+00
  1.30000000E+00  1.70000000E+00  1.30000000E+00  1.30000000E+00  1.30000000E+00
  1.70000000E+00  1.30000000E+00  1.30000000E+00  1.70000000E+00  1.30000000E+00
  1.30000000E+00  1.70000000E+00  1.30000000E+00  1.30000000E+00  1.70000000E+00
  1.30000000E+00  1.30000000E+00  1.30000000E+00  1.30000000E+00  1.70000000E+00
  1.70000000E+00  1.30000000E+00  1.30000000E+00  1.30000000E+00  1.70000000E+00
  1.30000000E+00  1.30000000E+00  1.30000000E+00  1.30000000E+00  1.80000000E+00
  1.70000000E+00  1.70000000E+00  1.70000000E+00  1.70000000E+00  1.70000000E+00
  1.70000000E+00  1.70000000E+00  1.70000000E+00  1.80000000E+00  1.70000000E+00
  1.30000000E+00  1.70000000E+00  1.70000000E+00  1.30000000E+00  1.70000000E+00
  1.70000000E+00  1.70000000E+00  1.30000000E+00  1.70000000E+00  1.30000000E+00
  1.30000000E+00  1.30000000E+00  1.70000000E+00  1.70000000E+00  1.70000000E+00
  1.70000000E+00  1.30000000E+00  1.70000000E+00  1.30000000E+00  1.70000000E+00
  1.30000000E+00  1.30000000E+00  1.70000000E+00  1.30000000E+00  1.30000000E+00
  1.70000000E+00  1.30000000E+00  1.30000000E+00  1.30000000E+00  1.70000000E+00
  1.30000000E+00  1.30000000E+00  1.70000000E+00  1.30000000E+00  1.30000000E+00
  1.70000000E+00  1.30000000E+00  1.30000000E+00  1.70000000E+00  1.30000000E+00
  1.30000000E+00  1.30000000E+00  1.30000000E+00  1.70000000E+00  1.70000000E+00
  1.30000000E+00  1.30000000E+00  1.30000000E+00  1.70000000E+00  1.30000000E+00
  1.30000000E+00  1.30000000E+00  1.30000000E+00  1.80000000E+00  1.70000000E+00
  1.70000000E+00  1.70000000E+00  1.70000000E+00  1.70000000E+00  1.70000000E+00
  1.70000000E+00  1.70000000E+00  1.80000000E+00  1.70000000E+00  1.30000000E+00
  1.70000000E+00  1.70000000E+00  1.30000000E+00  1.70000000E+00  1.70000000E+00
  1.70000000E+00  1.30000000E+00  1.70000000E+00  1.30000000E+00  1.30000000E+00
  1.30000000E+00  1.70000000E+00  1.70000000E+00  1.70000000E+00  1.70000000E+00
  1.30000000E+00  1.70000000E+00  1.30000000E+00  1.70000000E+00  1.30000000E+00
  1.30000000E+00  1.70000000E+00  1.30000000E+00  1.30000000E+00  1.70000000E+00
  1.30000000E+00  1.30000000E+00  1.30000000E+00  1.70000000E+00  1.30000000E+00
  1.30000000E+00  1.70000000E+00  1.30000000E+00  1.30000000E+00  1.70000000E+00
  1.30000000E+00  1.30000000E+00  1.70000000E+00  1.30000000E+00  1.30000000E+00
  1.30000000E+00  1.30000000E+00  1.70000000E+00  1.70000000E+00  1.30000000E+00
  1.30000000E+00  1.30000000E+00  1.70000000E+00  1.30000000E+00  1.30000000E+00
  1.30000000E+00  1.30000000E+00  1.80000000E+00  1.70000000E+00  1.70000000E+00
  1.70000000E+00  1.70000000E+00  1.70000000E+00  1.70000000E+00  1.70000000E+00
  1.70000000E+00  1.80000000E+00  1.70000000E+00  1.30000000E+00  1.70000000E+00
  1.70000000E+00  1.30000000E+00  1.70000000E+00  1.70000000E+00  1.70000000E+00
  1.30000000E+00  1.70000000E+00  1.30000000E+00  1.30000000E+00  1.30000000E+00
  1.70000000E+00  1.70000000E+00  1.70000000E+00  1.70000000E+00  1.30000000E+00
  1.70000000E+00  1.30000000E+00  1.70000000E+00  1.30000000E+00  1.30000000E+00
  1.70000000E+00  1.30000000E+00  1.30000000E+00  1.70000000E+00  1.30000000E+00
  1.30000000E+00  1.30000000E+00  1.70000000E+00  1.30000000E+00  1.30000000E+00
  1.70000000E+00  1.30000000E+00  1.30000000E+00  1.70000000E+00  1.30000000E+00
  1.30000000E+00  1.70000000E+00  1.30000000E+00  1.30000000E+00  1.30000000E+00
  1.30000000E+00  1.70000000E+00  1.70000000E+00  1.30000000E+00  1.30000000E+00
  1.30000000E+00  1.70000000E+00  1.30000000E+00  1.30000000E+00  1.30000000E+00
  1.30000000E+00  1.80000000E+00  1.70000000E+00  1.70000000E+00  1.70000000E+00
  1.70000000E+00  1.70000000E+00  1.70000000E+00  1.70000000E+00  1.70000000E+00
  1.80000000E+00  1.70000000E+00  1.30000000E+00  1.70000000E+00  1.70000000E+00
  1.30000000E+00  1.70000000E+00  1.70000000E+00  1.70000000E+00  1.30000000E+00
  1.70000000E+00  1.30000000E+00  1.30000000E+00  1.30000000E+00  1.70000000E+00
  1.70000000E+00  1.70000000E+00  1.70000000E+00  1.30000000E+00  1.70000000E+00
  1.30000000E+00  1.70000000E+00  1.30000000E+00  1.30000000E+00  1.70000000E+00
  1.30000000E+00  1.30000000E+00  1.70000000E+00  1.30000000E+00  1.30000000E+00
  1.30000000E+00  1.70000000E+00  1.30000000E+00  1.30000000E+00  1.70000000E+00
  1.30000000E+00  1.30000000E+00  1.70000000E+00  1.30000000E+00  1.30000000E+00
  1.70000000E+00  1.30000000E+00  1.30000000E+00  1.30000000E+00  1.30000000E+00
  1.70000000E+00  1.70000000E+00  1.30000000E+00  1.30000000E+00  1.30000000E+00
  1.70000000E+00  1.30000000E+00  1.30000000E+00  1.30000000E+00  1.30000000E+00
  1.80000000E+00  1.70000000E+00  1.70000000E+00  1.70000000E+00  1.70000000E+00
  1.70000000E+00  1.70000000E+00  1.70000000E+00  1.70000000E+00  1.80000000E+00
  1.70000000E+00  1.30000000E+00  1.70000000E+00  1.70000000E+00  1.30000000E+00
  1.70000000E+00  1.70000000E+00  1.70000000E+00  1.30000000E+00  1.70000000E+00
  1.30000000E+00  1.30000000E+00  1.30000000E+00  1.70000000E+00  1.70000000E+00
  1.70000000E+00  1.70000000E+00  1.30000000E+00  1.70000000E+00  1.30000000E+00
  1.70000000E+00  1.30000000E+00  1.30000000E+00  1.70000000E+00  1.30000000E+00
  1.30000000E+00  1.70000000E+00  1.30000000E+00  1.30000000E+00  1.30000000E+00
  1.70000000E+00  1.30000000E+00  1.30000000E+00  1.70000000E+00  1.30000000E+00
  1.30000000E+00  1.70000000E+00  1.30000000E+00  1.30000000E+00  1.70000000E+00
  1.30000000E+00  1.30000000E+00  1.30000000E+00  1.30000000E+00  1.70000000E+00
  1.70000000E+00  1.30000000E+00  1.30000000E+00  1.30000000E+00  1.70000000E+00
  1.30000000E+00  1.30000000E+00  1.30000000E+00  1.30000000E+00  1.80000000E+00
  1.70000000E+00  1.70000000E+00  1.70000000E+00  1.70000000E+00  1.70000000E+00
  1.70000000E+00  1.70000000E+00  1.70000000E+00  1.80000000E+00  1.70000000E+00
  1.30000000E+00  1.70000000E+00  1.70000000E+00  1.30000000E+00  1.70000000E+00
  1.70000000E+00  1.70000000E+00  1.30000000E+00  1.70000000E+00  1.30000000E+00
  1.30000000E+00  1.30000000E+00  1.70000000E+00  1.70000000E+00  1.70000000E+00
  1.70000000E+00  1.30000000E+00  1.70000000E+00  1.30000000E+00  1.70000000E+00
  1.30000000E+00  1.30000000E+00  1.70000000E+00  1.30000000E+00  1.30000000E+00
  1.70000000E+00  1.30000000E+00  1.30000000E+00  1.30000000E+00  1.70000000E+00
  1.30000000E+00  1.30000000E+00  1.70000000E+00  1.30000000E+00  1.30000000E+00
  1.70000000E+00  1.30000000E+00  1.30000000E+00  1.70000000E+00  1.30000000E+00
  1.30000000E+00  1.30000000E+00  1.30000000E+00  1.70000000E+00  1.70000000E+00
  1.30000000E+00  1.30000000E+00  1.30000000E+00  1.70000000E+00  1.30000000E+00
  1.30000000E+00  1.30000000E+00  1.30000000E+00  1.80000000E+00  1.70000000E+00
  1.70000000E+00  1.70000000E+00  1.70000000E+00  1.70000000E+00  1.70000000E+00
  1.70000000E+00  1.70000000E+00  1.80000000E+00  1.70000000E+00  1.30000000E+00
  1.70000000E+00  1.70000000E+00  1.30000000E+00  1.70000000E+00  1.70000000E+00
  1.70000000E+00  1.30000000E+00  1.70000000E+00  1.30000000E+00  1.30000000E+00
  1.30000000E+00  1.70000000E+00  1.70000000E+00  1.70000000E+00  1.70000000E+00
  1.30000000E+00  1.70000000E+00  1.30000000E+00  1.70000000E+00  1.30000000E+00
  1.30000000E+00  1.70000000E+00  1.30000000E+00  1.30000000E+00  1.70000000E+00
  1.30000000E+00  1.30000000E+00  1.30000000E+00  1.70000000E+00  1.30000000E+00
  1.30000000E+00  1.70000000E+00  1.30000000E+00  1.30000000E+00  1.70000000E+00
  1.30000000E+00  1.30000000E+00  1.70000000E+00  1.30000000E+00  1.30000000E+00
  1.30000000E+00  1.30000000E+00  1.70000000E+00  1.70000000E+00  1.30000000E+00
  1.30000000E+00  1.30000000E+00  1.70000000E+00  1.30000000E+00  1.30000000E+00
  1.30000000E+00  1.30000000E+00  1.80000000E+00  1.70000000E+00  1.70000000E+00
  1.70000000E+00  1.70000000E+00  1.70000000E+00  1.70000000E+00  1.70000000E+00
  1.70000000E+00  1.80000000E+00  1.70000000E+00  1.30000000E+00  1.70000000E+00
  1.70000000E+00  1.30000000E+00  1.70000000E+00  1.70000000E+00  1.70000000E+00
  1.30000000E+00  1.70000000E+00  1.30000000E+00  1.30000000E+00  1.30000000E+00
  1.70000000E+00  1.70000000E+00  1.70000000E+00  1.70000000E+00  1.30000000E+00
  1.70000000E+00  1.30000000E+00  1.70000000E+00  1.30000000E+00  1.30000000E+00
  1.70000000E+00  1.30000000E+00  1.30000000E+00  1.70000000E+00  1.30000000E+00
  1.30000000E+00  1.30000000E+00  1.70000000E+00  1.30000000E+00  1.30000000E+00
  1.70000000E+00  1.30000000E+00  1.30000000E+00  1.70000000E+00  1.30000000E+00
  1.30000000E+00  1.70000000E+00  1.30000000E+00  1.30000000E+00  1.30000000E+00
  1.30000000E+00  1.70000000E+00  1.70000000E+00  1.30000000E+00  1.30000000E+00
  1.30000000E+00  1.70000000E+00  1.30000000E+00  1.30000000E+00  1.30000000E+00
  1.30000000E+00  1.80000000E+00  1.70000000E+00  1.70000000E+00  1.70000000E+00
  1.70000000E+00  1.70000000E+00  1.70000000E+00  1.70000000E+00  1.70000000E+00
  1.80000000E+00  1.70000000E+00  1.30000000E+00  1.70000000E+00  1.70000000E+00
  1.30000000E+00  1.70000000E+00  1.70000000E+00  1.70000000E+00  1.30000000E+00
  1.70000000E+00  1.30000000E+00  1.30000000E+00  1.30000000E+00  1.70000000E+00
  1.70000000E+00  1.70000000E+00  1.70000000E+00  1.30000000E+00  1.70000000E+00
  1.30000000E+00  1.70000000E+00  1.30000000E+00  1.30000000E+00  1.70000000E+00
  1.30000000E+00  1.30000000E+00  1.70000000E+00  1.30000000E+00  1.30000000E+00
  1.30000000E+00  1.70000000E+00  1.30000000E+00  1.30000000E+00  1.70000000E+00
  1.30000000E+00  1.30000000E+00  1.70000000E+00  1.30000000E+00  1.30000000E+00
  1.70000000E+00  1.30000000E+00  1.30000000E+00  1.30000000E+00  1.30000000E+00
  1.70000000E+00  1.70000000E+00  1.30000000E+00  1.30000000E+00  1.30000000E+00
  1.70000000E+00  1.30000000E+00  1.30000000E+00  1.30000000E+00  1.30000000E+00
  1.80000000E+00  1.70000000E+00  1.70000000E+00  1.70000000E+00  1.70000000E+00
  1.70000000E+00  1.70000000E+00  1.70000000E+00  1.70000000E+00  1.80000000E+00
  1.70000000E+00  1.30000000E+00  1.70000000E+00  1.70000000E+00  1.30000000E+00
  1.70000000E+00  1.70000000E+00  1.70000000E+00  1.30000000E+00  1.70000000E+00
  1.30000000E+00  1.30000000E+00  1.30000000E+00  1.70000000E+00  1.70000000E+00
  1.70000000E+00  1.70000000E+00  1.30000000E+00  1.70000000E+00  1.30000000E+00
  1.70000000E+00  1.30000000E+00  1.30000000E+00  1.70000000E+00  1.30000000E+00
  1.30000000E+00  1.70000000E+00  1.30000000E+00  1.30000000E+00  1.30000000E+00
  1.70000000E+00  1.30000000E+00  1.30000000E+00  1.70000000E+00  1.30000000E+00
  1.30000000E+00  1.70000000E+00  1.30000000E+00  1.30000000E+00  1.70000000E+00
  1.30000000E+00  1.30000000E+00  1.30000000E+00  1.30000000E+00  1.70000000E+00
  1.70000000E+00  1.30000000E+00  1.30000000E+00  1.30000000E+00  1.70000000E+00
  1.30000000E+00  1.30000000E+00  1.30000000E+00  1.30000000E+00  1.80000000E+00
  1.70000000E+00  1.70000000E+00  1.70000000E+00  1.70000000E+00  1.70000000E+00
  1.70000000E+00  1.70000000E+00  1.70000000E+00  1.80000000E+00  1.70000000E+00
  1.30000000E+00  1.70000000E+00  1.70000000E+00  1.30000000E+00  1.70000000E+00
  1.70000000E+00  1.70000000E+00  1.30000000E+00  1.70000000E+00  1.30000000E+00
  1.30000000E+00  1.30000000E+00  1.70000000E+00  1.70000000E+00  1.70000000E+00
  1.70000000E+00  1.30000000E+00  1.70000000E+00  1.30000000E+00  1.70000000E+00
  1.30000000E+00  1.30000000E+00  1.70000000E+00  1.30000000E+00  1.30000000E+00
  1.70000000E+00  1.30000000E+00  1.30000000E+00  1.30000000E+00  1.70000000E+00
  1.30000000E+00  1.30000000E+00  1.70000000E+00  1.30000000E+00  1.30000000E+00
  1.70000000E+00  1.30000000E+00  1.30000000E+00  1.70000000E+00  1.30000000E+00
  1.30000000E+00  1.30000000E+00  1.30000000E+00  1.70000000E+00  1.70000000E+00
  1.30000000E+00  1.30000000E+00  1.30000000E+00  1.70000000E+00  1.30000000E+00
  1.30000000E+00  1.30000000E+00  1.30000000E+00  1.80000000E+00  1.70000000E+00
  1.70000000E+00  1.70000000E+00  1.70000000E+00  1.70000000E+00  1.70000000E+00
  1.70000000E+00  1.70000000E+00  1.80000000E+00  1.70000000E+00  1.30000000E+00
  1.70000000E+00  1.70000000E+00  1.30000000E+00  1.70000000E+00  1.70000000E+00
  1.70000000E+00  1.30000000E+00  1.70000000E+00  1.30000000E+00  1.30000000E+00
  1.30000000E+00  1.70000000E+00  1.70000000E+00  1.70000000E+00  1.70000000E+00
  1.30000000E+00  1.70000000E+00  1.30000000E+00  1.70000000E+00  1.30000000E+00
  1.30000000E+00  1.70000000E+00  1.30000000E+00  1.30000000E+00  1.70000000E+00
  1.30000000E+00  1.30000000E+00  1.30000000E+00  1.70000000E+00  1.30000000E+00
  1.30000000E+00  1.70000000E+00  1.30000000E+00  1.30000000E+00  1.70000000E+00
  1.30000000E+00  1.30000000E+00  1.70000000E+00  1.30000000E+00  1.30000000E+00
  1.30000000E+00  1.30000000E+00  1.70000000E+00  1.70000000E+00  1.30000000E+00
  1.30000000E+00  1.30000000E+00  1.70000000E+00  1.30000000E+00  1.30000000E+00
  1.30000000E+00  1.30000000E+00  1.80000000E+00  1.70000000E+00  1.70000000E+00
  1.70000000E+00  1.70000000E+00  1.70000000E+00  1.70000000E+00  1.70000000E+00
  1.70000000E+00  1.80000000E+00  1.70000000E+00  1.30000000E+00  1.70000000E+00
  1.70000000E+00  1.30000000E+00  1.70000000E+00  1.70000000E+00  1.70000000E+00
  1.30000000E+00  1.70000000E+00  1.30000000E+00  1.30000000E+00  1.30000000E+00
  1.70000000E+00  1.70000000E+00  1.70000000E+00  1.70000000E+00  1.30000000E+00
  1.70000000E+00  1.30000000E+00  1.70000000E+00  1.30000000E+00  1.30000000E+00
  1.70000000E+00  1.30000000E+00  1.30000000E+00  1.70000000E+00  1.30000000E+00
  1.30000000E+00  1.30000000E+00  1.70000000E+00  1.30000000E+00  1.30000000E+00
  1.70000000E+00  1.30000000E+00  1.30000000E+00  1.70000000E+00  1.30000000E+00
  1.30000000E+00  1.70000000E+00  1.30000000E+00  1.30000000E+00  1.30000000E+00
  1.30000000E+00  1.70000000E+00  1.70000000E+00  1.30000000E+00  1.30000000E+00
  1.30000000E+00  1.70000000E+00  1.30000000E+00  1.30000000E+00  1.30000000E+00
  1.30000000E+00  1.80000000E+00  1.70000000E+00  1.70000000E+00  1.70000000E+00
  1.70000000E+00  1.70000000E+00  1.70000000E+00  1.70000000E+00  1.70000000E+00
  1.80000000E+00  1.70000000E+00  1.30000000E+00  1.70000000E+00  1.70000000E+00
  1.30000000E+00  1.70000000E+00  1.70000000E+00  1.70000000E+00  1.30000000E+00
  1.70000000E+00  1.30000000E+00  1.30000000E+00  1.30000000E+00  1.70000000E+00
  1.70000000E+00  1.70000000E+00  1.70000000E+00  1.30000000E+00  1.70000000E+00
  1.30000000E+00  1.70000000E+00  1.30000000E+00  1.30000000E+00  1.70000000E+00
  1.30000000E+00  1.30000000E+00  1.70000000E+00  1.30000000E+00  1.30000000E+00
  1.30000000E+00  1.70000000E+00  1.30000000E+00  1.30000000E+00  1.70000000E+00
  1.30000000E+00  1.30000000E+00  1.70000000E+00  1.30000000E+00  1.30000000E+00
  1.70000000E+00  1.30000000E+00  1.30000000E+00  1.30000000E+00  1.30000000E+00
  1.70000000E+00  1.70000000E+00  1.30000000E+00  1.30000000E+00  1.30000000E+00
  1.70000000E+00  1.30000000E+00  1.30000000E+00  1.30000000E+00  1.30000000E+00
  1.80000000E+00  1.70000000E+00  1.70000000E+00  1.70000000E+00  1.70000000E+00
  1.70000000E+00  1.70000000E+00  1.70000000E+00  1.70000000E+00  1.80000000E+00
  1.70000000E+00  1.30000000E+00  1.70000000E+00  1.70000000E+00  1.30000000E+00
  1.70000000E+00  1.70000000E+00  1.70000000E+00  1.30000000E+00  1.70000000E+00
  1.30000000E+00  1.30000000E+00  1.30000000E+00  1.70000000E+00  1.70000000E+00
  1.70000000E+00  1.70000000E+00  1.30000000E+00  1.70000000E+00  1.30000000E+00
  1.70000000E+00  1.30000000E+00  1.30000000E+00  1.70000000E+00  1.30000000E+00
  1.30000000E+00  1.70000000E+00  1.30000000E+00  1.30000000E+00  1.30000000E+00
  1.70000000E+00  1.30000000E+00  1.30000000E+00  1.70000000E+00  1.30000000E+00
  1.30000000E+00  1.70000000E+00  1.30000000E+00  1.30000000E+00  1.70000000E+00
  1.30000000E+00  1.30000000E+00  1.30000000E+00  1.30000000E+00  1.70000000E+00
  1.70000000E+00  1.30000000E+00  1.30000000E+00  1.30000000E+00  1.70000000E+00
  1.30000000E+00  1.30000000E+00  1.30000000E+00  1.30000000E+00  1.80000000E+00
  1.70000000E+00  1.70000000E+00  1.70000000E+00  1.70000000E+00  1.70000000E+00
  1.70000000E+00  1.70000000E+00  1.70000000E+00  1.80000000E+00  1.70000000E+00
  1.30000000E+00  1.70000000E+00  1.70000000E+00  1.30000000E+00  1.70000000E+00
  1.70000000E+00  1.70000000E+00  1.30000000E+00  1.70000000E+00  1.30000000E+00
  1.30000000E+00  1.30000000E+00  1.70000000E+00  1.70000000E+00  1.70000000E+00
  1.70000000E+00  1.30000000E+00  1.70000000E+00  1.30000000E+00  1.70000000E+00
  1.30000000E+00  1.30000000E+00  1.70000000E+00  1.30000000E+00  1.30000000E+00
  1.70000000E+00  1.30000000E+00  1.30000000E+00  1.30000000E+00  1.70000000E+00
  1.30000000E+00  1.30000000E+00  1.70000000E+00  1.30000000E+00  1.30000000E+00
  1.70000000E+00  1.30000000E+00  1.30000000E+00  1.70000000E+00  1.30000000E+00
  1.30000000E+00  1.30000000E+00  1.30000000E+00  1.70000000E+00  1.70000000E+00
  1.30000000E+00  1.30000000E+00  1.30000000E+00  1.70000000E+00  1.30000000E+00
  1.30000000E+00  1.30000000E+00  1.30000000E+00  1.80000000E+00  1.70000000E+00
  1.70000000E+00  1.70000000E+00  1.70000000E+00  1.70000000E+00  1.70000000E+00
  1.70000000E+00  1.70000000E+00  1.80000000E+00  1.70000000E+00  1.30000000E+00
  1.70000000E+00  1.70000000E+00  1.30000000E+00  1.70000000E+00  1.70000000E+00
  1.70000000E+00  1.30000000E+00  1.70000000E+00  1.30000000E+00  1.30000000E+00
  1.30000000E+00  1.70000000E+00  1.70000000E+00  1.70000000E+00  1.70000000E+00
  1.30000000E+00  1.70000000E+00  1.30000000E+00  1.70000000E+00  1.30000000E+00
  1.30000000E+00  1.70000000E+00  1.30000000E+00  1.30000000E+00  1.70000000E+00
  1.30000000E+00  1.30000000E+00  1.30000000E+00  1.70000000E+00  1.30000000E+00
  1.30000000E+00  1.70000000E+00  1.30000000E+00  1.30000000E+00  1.70000000E+00
  1.30000000E+00  1.30000000E+00  1.70000000E+00  1.30000000E+00  1.30000000E+00
  1.30000000E+00  1.30000000E+00  1.70000000E+00  1.70000000E+00  1.30000000E+00
  1.30000000E+00  1.30000000E+00  1.70000000E+00  1.30000000E+00  1.30000000E+00
  1.30000000E+00  1.30000000E+00
%FLAG SCREEN                                                                    
%FORMAT(5E16.8)                                                                 
  9.60000000E-01  7.20000000E-01  7.20000000E-01  7.20000000E-01  7.20000000E-01
  7.20000000E-01  7.20000000E-01  7.20000000E-01  7.20000000E-01  9.60000000E-01
  7.20000000E-01  8.50000000E-01  7.20000000E-01  7.20000000E-01  8.50000000E-01
  7.20000000E-01  7.20000000E-01  7.20000000E-01  8.50000000E-01  7.20000000E-01
  8.50000000E-01  8.50000000E-01  8.50000000E-01  7.20000000E-01  7.20000000E-01
  7.20000000E-01  7.20000000E-01  8.50000000E-01  7.20000000E-01  8.50000000E-01
  7.20000000E-01  8.50000000E-01  8.50000000E-01  7.20000000E-01  8.50000000E-01
  8.50000000E-01  7.20000000E-01  8.50000000E-01  8.50000000E-01  8.50000000E-01
  7.20000000E-01  8.50000000E-01  8.50000000E-01  7.20000000E-01  8.50000000E-01
  8.50000000E-01  7.20000000E-01  8.50000000E-01  8.50000000E-01  7.20000000E-01
  8.50000000E-01  8.50000000E-01  8.50000000E-01  8.50000000E-01  7.20000000E-01
  7.20000000E-01  8.50000000E-01  8.50000000E-01  8.50000000E-01  7.20000000E-01
  8.50000000E-01  8.50000000E-01  8.50000000E-01  8.50000000E-01  9.60000000E-01
  7.20000000E-01  7.20000000E-01  7.20000000E-01  7.20000000E-01  7.20000000E-01
  7.20000000E-01  7.20000000E-01  7.20000000E-01  9.60000000E-01  7.20000000E-01
  8.50000000E-01  7.20000000E-01  7.20000000E-01  8.50000000E-01  7.20000000E-01
  7.20000000E-01  7.20000000E-01  8.50000000E-01  7.20000000E-01  8.50000000E-01
  8.50000000E-01  8.50000000E-01  7.20000000E-01  7.20000000E-01  7.20000000E-01
  7.20000000E-01  8.50000000E-01  7.20000000E-01  8.50000000E-01  7.20000000E-01
  8.50000000E-01  8.50000000E-01  7.20000000E-01  8.50000000E-01  8.50000000E-01
  7.20000000E-01  8.50000000E-01  8.50000000E-01  8.50000000E-01  7.20000000E-01
  8.50000000E-01  8.50000000E-01  7.20000000E-01  8.50000000E-01  8.50000000E-01
  7.20000000E-01  8.50000000E-01  8.50000000E-01  7.20000000E-01  8.50000000E-01
  8.50000000E-01  8.50000000E-01  8.50000000E-01  7.20000000E-01  7.20000000E-01
  8.50000000E-01  8.50000000E-01  8.50000000E-01  7.20000000E-01  8.50000000E-01
  8.50000000E-01  8.50000000E-01  8.50000000E-01  9.60000000E-01  7.20000000E-01
  7.20000000E-01  7.20000000E-01  7.20000000E-01  7.20000000E-01  7.20000000E-01
  7.20000000E-01  7.20000000E-01  9.60000000E-01  7.20000000E-01  8.50000000E-01
  7.20000000E-01  7.20000000E-01  8.50000000E-01  7.20000000E-01  7.20000000E-01
  7.20000000E-01  8.50000000E-01  7.20000000E-01  8.50000000E-01  8.50000000E-01
  8.50000000E-01  7.20000000E-01  7.20000000E-01  7.20000000E-01  7.20000000E-01
  8.50000000E-01  7.20000000E-01  8.50000000E-01  7.20000000E-01  8.50000000E-01
  8.50000000E-01  7.20000000E-01  8.50000000E-01  8.50000000E-01  7.20000000E-01
  8.50000000E-01  8.50000000E-01  8.50000000E-01  7.20000000E-01  8.50000000E-01
  8.50000000E-01  7.20000000E-01  8.50000000E-01  8.50000000E-01  7.20000000E-01
  8.50000000E-01  8.50000000E-01  7.20000000E-01  8.50000000E-01  8.50000000E-01
  8.50000000E-01  8.50000000E-01  7.20000000E-01  7.20000000E-01  8.50000000E-01
  8.50000000E-01  8.50000000E-01  7.20000000E-01  8.50000000E-01  8.50000000E-01
  8.50000000E-01  8.50000000E-01  9.60000000E-01  7.20000000E-01  7.20000000E-01
  7.20000000E-01  7.20000000E-01  7.20000000E-01  7.20000000E-01  7.20000000E-01
  7.20000000E-01  9.60000000E-01  7.20000000E-01  8.50000000E-01  7.20000000E-01
  7.20000000E-01  8.50000000E-01  7.20000000E-01  7.20000000E-01  7.20000000E-01
  8.50000000E-01  7.20000000E-01  8.50000000E-01  8.50000000E-01  8.50000000E-01
  7.20000000E-01  7.20000000E-01  7.20000000E-01  7.20000000E-01  8.50000000E-01
  7.20000000E-01  8.50000000E-01  7.20000000E-01  8.50000000E-01  8.50000000E-01
  7.20000000E-01  8.50000000E-01  8.50000000E-01  7.20000000E-01  8.50000000E-01
  8.50000000E-01  8.50000000E-01  7.20000000E-01  8.50000000E-01  8.50000000E-01
  7.20000000E-01  8.50000000E-01  8.50000000E-01  7.20000000E-01  8.50000000E-01
  8.50000000E-01  7.20000000E-01  8.50000000E-01  8.50000000E-01  8.50000000E-01
  8.50000000E-01  7.20000000E-01  7.20000000E-01  8.50000000E-01  8.50000000E-01
  8.50000000E-01  7.20000000E-01  8.50000000E-01  8.50000000E-01  8.50000000E-01
  8.50000000E-01  9.60000000E-01  7.20000000E-01  7.20000000E-01  7.20000000E-01
  7.20000000E-01  7.20000000E-01  7.20000000E-01  7.20000000E-01  7.20000000E-01
  9.60000000E-01  7.20000000E-01  8.50000000E-01  7.20000000E-01  7.20000000E-01
  8.50000000E-01  7.20000000E-01  7.20000000E-01  7.20000000E-01  8.50000000E-01
  7.20000000E-01  8.50000000E-01  8.50000000E-01  8.50000000E-01  7.20000000E-01
  7.20000000E-01  7.20000000E-01  7.20000000E-01  8.50000000E-01  7.20000000E-01
  8.50000000E-01  7.20000000E-01  8.50000000E-01  8.50000000E-01  7.20000000E-01
  8.50000000E-01  8.50000000E-01  7.20000000E-01  8.50000000E-01  8.50000000E-01
  8.50000000E-01  7.20000000E-01  8.50000000E-01  8.50000000E-01  7.20000000E-01
  8.50000000E-01  8.50000000E-01  7.20000000E-01  8.50000000E-01  8.50000000E-01
  7.20000000E-01  8.50000000E-01  8.50000000E-01  8.50000000E-01  8.50000000E-01
  7.20000000E-01  7.20000000E-01  8.50000000E-01  8.50000000E-01  8.50000000E-01
  7.20000000E-01  8.50000000E-01  8.50000000E-01  8.50000000E-01  8.50000000E-01
  9.60000000E-01  7.20000000E-01  7.20000000E-01  7.20000000E-01  7.20000000E-01
  7.20000000E-01  7.20000000E-01  7.20000000E-01  7.20000000E-01  9.60000000E-01
  7.20000000E-01  8.50000000E-01  7.20000000E-01  7.20000000E-01  8.50000000E-01
  7.20000000E-01  7.20000000E-01  7.20000000E-01  8.50000000E-01  7.20000000E-01
  8.50000000E-01  8.50000000E-01  8.50000000E-01  7.20000000E-01  7.20000000E-01
  7.20000000E-01  7.20000000E-01  8.50000000E-01  7.20000000E-01  8.50000000E-01
  7.20000000E-01  8.50000000E-01  8.50000000E-01  7.20000000E-01  8.50000000E-01
  8.50000000E-01  7.20000000E-01  8.50000000E-01  8.50000000E-01  8.50000000E-01
  7.20000000E-01  8.50000000E-01  8.50000000E-01  7.20000000E-01  8.50000000E-01
  8.50000000E-01  7.20000000E-01  8.50000000E-01  8.50000000E-01  7.20000000E-01
  8.50000000E-01  8.50000000E-01  8.50000000E-01  8.50000000E-01  7.20000000E-01
  7.20000000E-01  8.50000000E-01  8.50000000E-01  8.50000000E-01  7.20000000E-01
  8.50000000E-01  8.50000000E-01  8.50000000E-01  8.50000000E-01  9.60000000E-01
  7.20000000E-01  7.20000000E-01  7.20000000E-01  7.20000000E-01  7.20000000E-01
  7.20000000E-01  7.20000000E-01  7.20000000E-01  9.60000000E-01  7.20000000E-01
  8.50000000E-01  7.20000000E-01  7.20000000E-01  8.50000000E-01  7.20000000E-01
  7.20000000E-01  7.20000000E-01  8.50000000E-01  7.20000000E-01  8.50000000E-01
  8.50000000E-01  8.50000000E-01  7.20000000E-01  7.20000000E-01  7.20000000E-01
  7.20000000E-01  8.50000000E-01  7.20000000E-01  8.50000000E-01  7.20000000E-01
  8.50000000E-01  8.50000000E-01  7.20000000E-01  8.50000000E-01  8.50000000E-01
  7.20000000E-01  8.50000000E-01  8.50000000E-01  8.50000000E-01  7.20000000E-01
  8.50000000E-01  8.50000000E-01  7.20000000E-01  8.50000000E-01  8.50000000E-01
  7.20000000E-01  8.50000000E-01  8.50000000E-01  7.20000000E-01  8.50000000E-01
  8.50000000E-01  8.50000000E-01  8.50000000E-01  7.20000000E-01  7.20000000E-01
  8.50000000E-01  8.50000000E-01  8.50000000E-01  7.20000000E-01  8.50000000E-01
  8.50000000E-01  8.50000000E-01  8.50000000E-01  9.60000000E-01  7.20000000E-01
  7.20000000E-01  7.20000000E-01  7.20000000E-01  7.20000000E-01  7.20000000E-01
  7.20000000E-01  7.20000000E-01  9.60000000E-01  7.20000000E-01  8.50000000E-01
  7.20000000E-01  7.20000000E-01  8.50000000E-01  7.20000000E-01  7.20000000E-01
  7.20000000E-01  8.50000000E-01  7.20000000E-01  8.50000000E-01  8.50000000E-01
  8.50000000E-01  7.20000000E-01  7.20000000E-01  7.20000000E-01  7.20000000E-01
  8.50000000E-01  7.20000000E-01  8.50000000E-01  7.20000000E-01  8.50000000E-01
  8.50000000E-01  7.20000000E-01  8.50000000E-01  8.50000000E-01  7.20000000E-01
  8.50000000E-01  8.50000000E-01  8.50000000E-01  7.20000000E-01  8.50000000E-01
  8.50000000E-01  7.20000000E-01  8.50000000E-01  8.50000000E-01  7.20000000E-01
  8.50000000E-01  8.50000000E-01  7.20000000E-01  8.50000000E-01  8.50000000E-01
  8.50000000E-01  8.50000000E-01  7.20000000E-01  7.20000000E-01  8.50000000E-01
  8.50000000E-01  8.50000000E-01  7.20000000E-01  8.50000000E-01  8.50000000E-01
  8.50000000E-01  8.50000000E-01  9.60000000E-01  7.20000000E-01  7.20000000E-01
  7.20000000E-01  7.20000000E-01  7.20000000E-01  7.20000000E-01  7.20000000E-01
  7.20000000E-01  9.60000000E-01  7.20000000E-01  8.50000000E-01  7.20000000E-01
  7.20000000E-01  8.50000000E-01  7.20000000E-01  7.20000000E-01  7.20000000E-01
  8.50000000E-01  7.20000000E-01  8.50000000E-01  8.50000000E-01  8.50000000E-01
  7.20000000E-01  7.20000000E-01  7.20000000E-01  7.20000000E-01  8.50000000E-01
  7.20000000E-01  8.50000000E-01  7.20000000E-01  8.50000000E-01  8.50000000E-01
  7.20000000E-01  8.50000000E-01  8.50000000E-01  7.20000000E-01  8.50000000E-01
  8.50000000E-01  8.50000000E-01  7.20000000E-01  8.50000000E-01  8.50000000E-01
  7.20000000E-01  8.50000000E-01  8.50000000E-01  7.20000000E-01  8.50000000E-01
  8.50000000E-01  7.20000000E-01  8.50000000E-01  8.50000000E-01  8.50000000E-01
  8.50000000E-01  7.20000000E-01  7.20000000E-01  8.50000000E-01  8.50000000E-01
  8.50000000E-01  7.20000000E-01  8.50000000E-01  8.50000000E-01  8.50000000E-01
  8.50000000E-01  9.60000000E-01  7.20000000E-01  7.20000000E-01  7.20000000E-01
  7.20000000E-01  7.20000000E-01  7.20000000E-01  7.20000000E-01  7.20000000E-01
  9.60000000E-01  7.20000000E-01  8.50000000E-01  7.20000000E-01  7.20000000E-01
  8.50000000E-01  7.20000000E-01  7.20000000E-01  7.20000000E-01  8.50000000E-01
  7.20000000E-01  8.50000000E-01  8.50000000E-01  8.50000000E-01  7.20000000E-01
  7.20000000E-01  7.20000000E-01  7.20000000E-01  8.50000000E-01  7.20000000E-01
  8.50000000E-01  7.20000000E-01  8.50000000E-01  8.50000000E-01  7.20000000E-01
  8.50000000E-01  8.50000000E-01  7.20000000E-01  8.50000000E-01  8.50000000E-01
  8.50000000E-01  7.20000000E-01  8.50000000E-01  8.50000000E-01  7.20000000E-01
  8.50000000E-01  8.50000000E-01  7.20000000E-01  8.50000000E-01  8.50000000E-01
  7.20000000E-01  8.50000000E-01  8.50000000E-01  8.50000000E-01  8.50000000E-01
  7.20000000E-01  7.20000000E-01  8.50000000E-01  8.50000000E-01  8.50000000E-01
  7.20000000E-01  8.50000000E-01  8.50000000E-01  8.50000000E-01  8.50000000E-01
  9.60000000E-01  7.20000000E-01  7.20000000E-01  7.20000000E-01  7.20000000E-01
  7.20000000E-01  7.20000000E-01  7.20000000E-01  7.20000000E-01  9.60000000E-01
  7.20000000E-01  8.50000000E-01  7.20000000E-01  7.20000000E-01  8.50000000E-01
  7.20000000E-01  7.20000000E-01  7.20000000E-01  8.50000000E-01  7.20000000E-01
  8.50000000E-01  8.50000000E-01  8.50000000E-01  7.20000000E-01  7.20000000E-01
  7.20000000E-01  7.20000000E-01  8.50000000E-01  7.20000000E-01  8.50000000E-01
  7.20000000E-01  8.50000000E-01  8.50000000E-01  7.20000000E-01  8.50000000E-01
  8.50000000E-01  7.20000000E-01  8.50000000E-01  8.50000000E-01  8.50000000E-01
  7.20000000E-01  8.50000000E-01  8.50000000E-01  7.20000000E-01  8.50000000E-01
  8.50000000E-01  7.20000000E-01  8.50000000E-01  8.50000000E-01  7.20000000E-01
  8.50000000E-01  8.50000000E-01  8.50000000E-01  8.50000000E-01  7.20000000E-01
  7.20000000E-01  8.50000000E-01  8.50000000E-01  8.50000000E-01  7.20000000E-01
  8.50000000E-01  8.50000000E-01  8.50000000E-01  8.50000000E-01  9.60000000E-01
  7.20000000E-01  7.20000000E-01  7.20000000E-01  7.20000000E-01  7.20000000E-01
  7.20000000E-01  7.20000000E-01  7.20000000E-01  9.60000000E-01  7.20000000E-01
  8.50000000E-01  7.20000000E-01  7.20000000E-01  8.50000000E-01  7.20000000E-01
  7.20000000E-01  7.20000000E-01  8.50000000E-01  7.20000000E-01  8.50000000E-01
  8.50000000E-01  8.50000000E-01  7.20000000E-01  7.20000000E-01  7.20000000E-01
  7.20000000E-01  8.50000000E-01  7.20000000E-01  8.50000000E-01  7.20000000E-01
  8.50000000E-01  8.50000000E-01  7.20000000E-01  8.50000000E-01  8.50000000E-01
  7.20000000E-01  8.50000000E-01  8.50000000E-01  8.50000000E-01  7.20000000E-01
  8.50000000E-01  8.50000000E-01  7.20000000E-01  8.50000000E-01  8.50000000E-01
  7.20000000E-01  8.50000000E-01  8.50000000E-01  7.20000000E-01  8.50000000E-01
  8.50000000E-01  8.50000000E-01  8.50000000E-01  7.20000000E-01  7.20000000E-01
  8.50000000E-01  8.50000000E-01  8.50000000E-01  7.20000000E-01  8.50000000E-01
  8.50000000E-01  8.50000000E-01  8.50000000E-01  9.60000000E-01  7.20000000E-01
  7.20000000E-01  7.20000000E-01  7.20000000E-01  7.20000000E-01  7.20000000E-01
  7.20000000E-01  7.20000000E-01  9.60000000E-01  7.20000000E-01  8.50000000E-01
  7.20000000E-01  7.20000000E-01  8.50000000E-01  7.20000000E-01  7.20000000E-01
  7.20000000E-01  8.50000000E-01  7.20000000E-01  8.50000000E-01  8.50000000E-01
  8.50000000E-01  7.20000000E-01  7.20000000E-01  7.20000000E-01  7.20000000E-01
  8.50000000E-01  7.20000000E-01  8.50000000E-01  7.20000000E-01  8.50000000E-01
  8.50000000E-01  7.20000000E-01  8.50000000E-01  8.50000000E-01  7.20000000E-01
  8.50000000E-01  8.50000000E-01  8.50000000E-01  7.20000000E-01  8.50000000E-01
  8.50000000E-01  7.20000000E-01  8.50000000E-01  8.50000000E-01  7.20000000E-01
  8.50000000E-01  8.50000000E-01  7.20000000E-01  8.50000000E-01  8.50000000E-01
  8.50000000E-01  8.50000000E-01  7.20000000E-01  7.20000000E-01  8.50000000E-01
  8.50000000E-01  8.50000000E-01  7.20000000E-01  8.50000000E-01  8.50000000E-01
  8.50000000E-01  8.50000000E-01  9.60000000E-01  7.20000000E-01  7.20000000E-01
  7.20000000E-01  7.20000000E-01  7.20000000E-01  7.20000000E-01  7.20000000E-01
  7.20000000E-01  9.60000000E-01  7.20000000E-01  8.50000000E-01  7.20000000E-01
  7.20000000E-01  8.50000000E-01  7.20000000E-01  7.20000000E-01  7.20000000E-01
  8.50000000E-01  7.20000000E-01  8.50000000E-01  8.50000000E-01  8.50000000E-01
  7.20000000E-01  7.20000000E-01  7.20000000E-01  7.20000000E-01  8.50000000E-01
  7.20000000E-01  8.50000000E-01  7.20000000E-01  8.50000000E-01  8.50000000E-01
  7.20000000E-01  8.50000000E-01  8.50000000E-01  7.20000000E-01  8.50000000E-01
  8.50000000E-01  8.50000000E-01  7.20000000E-01  8.50000000E-01  8.50000000E-01
  7.20000000E-01  8.50000000E-01  8.50000000E-01  7.20000000E-01  8.50000000E-01
  8.50000000E-01  7.20000000E-01  8.50000000E-01  8.50000000E-01  8.50000000E-01
  8.50000000E-01  7.20000000E-01  7.20000000E-01  8.50000000E-01  8.50000000E-01
  8.50000000E-01  7.20000000E-01  8.50000000E-01  8.50000000E-01  8.50000000E-01
  8.50000000E-01  9.60000000E-01  7.20000000E-01  7.20000000E-01  7.20000000E-01
  7.20000000E-01  7.20000000E-01  7.20000000E-01  7.20000000E-01  7.20000000E-01
  9.60000000E-01  7.20000000E-01  8.50000000E-01  7.20000000E-01  7.20000000E-01
  8.50000000E-01  7.20000000E-01  7.20000000E-01  7.20000000E-01  8.50000000E-01
  7.20000000E-01  8.50000000E-01  8.50000000E-01  8.50000000E-01  7.20000000E-01
  7.20000000E-01  7.20000000E-01  7.20000000E-01  8.50000000E-01  7.20000000E-01
  8.50000000E-01  7.20000000E-01  8.50000000E-01  8.50000000E-01  7.20000000E-01
  8.50000000E-01  8.50000000E-01  7.20000000E-01  8.50000000E-01  8.50000000E-01
  8.50000000E-01  7.20000000E-01  8.50000000E-01  8.50000000E-01  7.20000000E-01
  8.50000000E-01  8.50000000E-01  7.20000000E-01  8.50000000E-01  8.50000000E-01
  7.20000000E-01  8.50000000E-01  8.50000000E-01  8.50000000E-01  8.50000000E-01
  7.20000000E-01  7.20000000E-01  8.50000000E-01  8.50000000E-01  8.50000000E-01
  7.20000000E-01  8.50000000E-01  8.50000000E-01  8.50000000E-01  8.50000000E-01
  9.60000000E-01  7.20000000E-01  7.20000000E-01  7.20000000E-01  7.20000000E-01
  7.20000000E-01  7.20000000E-01  7.20000000E-01  7.20000000E-01  9.60000000E-01
  7.20000000E-01  8.50000000E-01  7.20000000E-01  7.20000000E-01  8.50000000E-01
  7.20000000E-01  7.20000000E-01  7.20000000E-01  8.50000000E-01  7.20000000E-01
  8.50000000E-01  8.50000000E-01  8.50000000E-01  7.20000000E-01  7.20000000E-01
  7.20000000E-01  7.20000000E-01  8.50000000E-01  7.20000000E-01  8.50000000E-01
  7.20000000E-01  8.50000000E-01  8.50000000E-01  7.20000000E-01  8.50000000E-01
  8.50000000E-01  7.20000000E-01  8.50000000E-01  8.50000000E-01  8.50000000E-01
  7.20000000E-01  8.50000000E-01  8.50000000E-01  7.20000000E-01  8.50000000E-01
  8.50000000E-01  7.20000000E-01  8.50000000E-01  8.50000000E-01  7.20000000E-01
  8.50000000E-01  8.50000000E-01  8.50000000E-01  8.50000000E-01  7.20000000E-01
  7.20000000E-01  8.50000000E-01  8.50000000E-01  8.50000000E-01  7.20000000E-01
  8.50000000E-01  8.50000000E-01  8.50000000E-01  8.50000000E-01  9.60000000E-01
  7.20000000E-01  7.20000000E-01  7.20000000E-01  7.20000000E-01  7.20000000E-01
  7.20000000E-01  7.20000000E-01  7.20000000E-01  9.60000000E-01  7.20000000E-01
  8.50000000E-01  7.20000000E-01  7.20000000E-01  8.50000000E-01  7.20000000E-01
  7.20000000E-01  7.20000000E-01  8.50000000E-01  7.20000000E-01  8.50000000E-01
  8.50000000E-01  8.50000000E-01  7.20000000E-01  7.20000000E-01  7.20000000E-01
  7.20000000E-01  8.50000000E-01  7.20000000E-01  8.50000000E-01  7.20000000E-01
  8.50000000E-01  8.50000000E-01  7.20000000E-01  8.50000000E-01  8.50000000E-01
  7.20000000E-01  8.50000000E-01  8.50000000E-01  8.50000000E-01  7.20000000E-01
  8.50000000E-01  8.50000000E-01  7.20000000E-01  8.50000000E-01  8.50000000E-01
  7.20000000E-01  8.50000000E-01  8.50000000E-01  7.20000000E-01  8.50000000E-01
  8.50000000E-01  8.50000000E-01  8.50000000E-01  7.20000000E-01  7.20000000E-01
  8.50000000E-01  8.50000000E-01  8.50000000E-01  7.20000000E-01  8.50000000E-01
  8.50000000E-01  8.50000000E-01  8.50000000E-01  9.60000000E-01  7.20000000E-01
  7.20000000E-01  7.20000000E-01  7.20000000E-01  7.20000000E-01  7.20000000E-01
  7.20000000E-01  7.20000000E-01  9.60000000E-01  7.20000000E-01  8.50000000E-01
  7.20000000E-01  7.20000000E-01  8.50000000E-01  7.20000000E-01  7.20000000E-01
  7.20000000E-01  8.50000000E-01  7.20000000E-01  8.50000000E-01  8.50000000E-01
  8.50000000E-01  7.20000000E-01  7.20000000E-01  7.20000000E-01  7.20000000E-01
  8.50000000E-01  7.20000000E-01  8.50000000E-01  7.20000000E-01  8.50000000E-01
  8.50000000E-01  7.20000000E-01  8.50000000E-01  8.50000000E-01  7.20000000E-01
  8.50000000E-01  8.50000000E-01  8.50000000E-01  7.20000000E-01  8.50000000E-01
  8.50000000E-01  7.20000000E-01  8.50000000E-01  8.50000000E-01  7.20000000E-01
  8.50000000E-01  8.50000000E-01  7.20000000E-01  8.50000000E-01  8.50000000E-01
  8.50000000E-01  8.50000000E-01  7.20000000E-01  7.20000000E-01  8.50000000E-01
  8.50000000E-01  8.50000000E-01  7.20000000E-01  8.50000000E-01  8.50000000E-01
  8.50000000E-01  8.50000000E-01  9.60000000E-01  7.20000000E-01  7.20000000E-01
  7.20000000E-01  7.20000000E-01  7.20000000E-01  7.20000000E-01  7.20000000E-01
  7.20000000E-01  9.60000000E-01  7.20000000E-01  8.50000000E-01  7.20000000E-01
  7.20000000E-01  8.50000000E-01  7.20000000E-01  7.20000000E-01  7.20000000E-01
  8.50000000E-01  7.20000000E-01  8.50000000E-01  8.50000000E-01  8.50000000E-01
  7.20000000E-01  7.20000000E-01  7.20000000E-01  7.20000000E-01  8.50000000E-01
  7.20000000E-01  8.50000000E-01  7.20000000E-01  8.50000000E-01  8.50000000E-01
  7.20000000E-01  8.50000000E-01  8.50000000E-01  7.20000000E-01  8.50000000E-01
  8.50000000E-01  8.50000000E-01  7.20000000E-01  8.50000000E-01  8.50000000E-01
  7.20000000E-01  8.50000000E-01  8.50000000E-01  7.20000000E-01  8.50000000E-01
  8.50000000E-01  7.20000000E-01  8.50000000E-01  8.50000000E-01  8.50000000E-01
  8.50000000E-01  7.20000000E-01  7.20000000E-01  8.50000000E-01  8.50000000E-01
  8.50000000E-01  7.20000000E-01  8.50000000E-01  8.50000000E-01  8.50000000E-01
  8.50000000E-01  9.60000000E-01  7.20000000E-01  7.20000000E-01  7.20000000E-01
  7.20000000E-01  7.20000000E-01  7.20000000E-01  7.20000000E-01  7.20000000E-01
  9.60000000E-01  7.20000000E-01  8.50000000E-01  7.20000000E-01  7.20000000E-01
  8.50000000E-01  7.20000000E-01  7.20000000E-01  7.20000000E-01  8.50000000E-01
  7.20000000E-01  8.50000000E-01  8.50000000E-01  8.50000000E-01  7.20000000E-01
  7.20000000E-01  7.20000000E-01  7.20000000E-01  8.50000000E-01  7.20000000E-01
  8.50000000E-01  7.20000000E-01  8.50000000E-01  8.50000000E-01  7.20000000E-01
  8.50000000E-01  8.50000000E-01  7.20000000E-01  8.50000000E-01  8.50000000E-01
  8.50000000E-01  7.20000000E-01  8.50000000E-01  8.50000000E-01  7.20000000E-01
  8.50000000E-01  8.50000000E-01  7.20000000E-01  8.50000000E-01  8.50000000E-01
  7.20000000E-01  8.50000000E-01  8.50000000E-01  8.50000000E-01  8.50000000E-01
  7.20000000E-01  7.20000000E-01  8.50000000E-01  8.50000000E-01  8.50000000E-01
  7.20000000E-01  8.50000000E-01  8.50000000E-01  8.50000000E-01  8.50000000E-01
  9.60000000E-01  7.20000000E-01  7.20000000E-01  7.20000000E-01  7.20000000E-01
  7.20000000E-01  7.20000000E-01  7.20000000E-01  7.20000000E-01  9.60000000E-01
  7.20000000E-01  8.50000000E-01  7.20000000E-01  7.20000000E-01  8.50000000E-01
  7.20000000E-01  7.20000000E-01  7.20000000E-01  8.50000000E-01  7.20000000E-01
  8.50000000E-01  8.50000000E-01  8.50000000E-01  7.20000000E-01  7.20000000E-01
  7.20000000E-01  7.20000000E-01  8.50000000E-01  7.20000000E-01  8.50000000E-01
  7.20000000E-01  8.50000000E-01  8.50000000E-01  7.20000000E-01  8.50000000E-01
  8.50000000E-01  7.20000000E-01  8.50000000E-01  8.50000000E-01  8.50000000E-01
  7.20000000E-01  8.50000000E-01  8.50000000E-01  7.20000000E-01  8.50000000E-01
  8.50000000E-01  7.20000000E-01  8.50000000E-01  8.50000000E-01  7.20000000E-01
  8.50000000E-01  8.50000000E-01  8.50000000E-01  8.50000000E-01  7.20000000E-01
  7.20000000E-01  8.50000000E-01  8.50000000E-01  8.50000000E-01  7.20000000E-01
  8.50000000E-01  8.50000000E-01  8.50000000E-01  8.50000000E-01  9.60000000E-01
  7.20000000E-01  7.20000000E-01  7.20000000E-01  7.20000000E-01  7.20000000E-01
  7.20000000E-01  7.20000000E-01  7.20000000E-01  9.60000000E-01  7.20000000E-01
  8.50000000E-01  7.20000000E-01  7.20000000E-01  8.50000000E-01  7.20000000E-01
  7.20000000E-01  7.20000000E-01  8.50000000E-01  7.20000000E-01  8.50000000E-01
  8.50000000E-01  8.50000000E-01  7.20000000E-01  7.20000000E-01  7.20000000E-01
  7.20000000E-01  8.50000000E-01  7.20000000E-01  8.50000000E-01  7.20000000E-01
  8.50000000E-01  8.50000000E-01  7.20000000E-01  8.50000000E-01  8.50000000E-01
  7.20000000E-01  8.50000000E-01  8.50000000E-01  8.50000000E-01  7.20000000E-01
  8.50000000E-01  8.50000000E-01  7.20000000E-01  8.50000000E-01  8.50000000E-01
  7.20000000E-01  8.50000000E-01  8.50000000E-01  7.20000000E-01  8.50000000E-01
  8.50000000E-01  8.50000000E-01  8.50000000E-01  7.20000000E-01  7.20000000E-01
  8.50000000E-01  8.50000000E-01  8.50000000E-01  7.20000000E-01  8.50000000E-01
  8.50000000E-01  8.50000000E-01  8.50000000E-01  9.60000000E-01  7.20000000E-01
  7.20000000E-01  7.20000000E-01  7.20000000E-01  7.20000000E-01  7.20000000E-01
  7.20000000E-01  7.20000000E-01  9.60000000E-01  7.20000000E-01  8.50000000E-01
  7.20000000E-01  7.20000000E-01  8.50000000E-01  7.20000000E-01  7.20000000E-01
  7.20000000E-01  8.50000000E-01  7.20000000E-01  8.50000000E-01  8.50000000E-01
  8.50000000E-01  7.20000000E-01  7.20000000E-01  7.20000000E-01  7.20000000E-01
  8.50000000E-01  7.20000000E-01  8.50000000E-01  7.20000000E-01  8.50000000E-01
  8.50000000E-01  7.20000000E-01  8.50000000E-01  8.50000000E-01  7.20000000E-01
  8.50000000E-01  8.50000000E-01  8.50000000E-01  7.20000000E-01  8.50000000E-01
  8.50000000E-01  7.20000000E-01  8.50000000E-01  8.50000000E-01  7.20000000E-01
  8.50000000E-01  8.50000000E-01  7.20000000E-01  8.50000000E-01  8.50000000E-01
  8.50000000E-01  8.50000000E-01  7.20000000E-01  7.20000000E-01  8.50000000E-01
  8.50000000E-01  8.50000000E-01  7.20000000E-01  8.50000000E-01  8.50000000E-01
  8.50000000E-01  8.50000000E-01  9.60000000E-01  7.20000000E-01  7.20000000E-01
  7.20000000E-01  7.20000000E-01  7.20000000E-01  7.20000000E-01  7.20000000E-01
  7.20000000E-01  9.60000000E-01  7.20000000E-01  8.50000000E-01  7.20000000E-01
  7.20000000E-01  8.50000000E-01  7.20000000E-01  7.20000000E-01  7.20000000E-01
  8.50000000E-01  7.20000000E-01  8.50000000E-01  8.50000000E-01  8.50000000E-01
  7.20000000E-01  7.20000000E-01  7.20000000E-01  7.20000000E-01  8.50000000E-01
  7.20000000E-01  8.50000000E-01  7.20000000E-01  8.50000000E-01  8.50000000E-01
  7.20000000E-01  8.50000000E-01  8.50000000E-01  7.20000000E-01  8.50000000E-01
  8.50000000E-01  8.50000000E-01  7.20000000E-01  8.50000000E-01  8.50000000E-01
  7.20000000E-01  8.50000000E-01  8.50000000E-01  7.20000000E-01  8.50000000E-01
  8.50000000E-01  7.20000000E-01  8.50000000E-01  8.50000000E-01  8.50000000E-01
  8.50000000E-01  7.20000000E-01  7.20000000E-01  8.50000000E-01  8.50000000E-01
  8.50000000E-01  7.20000000E-01  8.50000000E-01  8.50000000E-01  8.50000000E-01
  8.50000000E-01  9.60000000E-01  7.20000000E-01  7.20000000E-01  7.20000000E-01
  7.20000000E-01  7.20000000E-01  7.20000000E-01  7.20000000E-01  7.20000000E-01
  9.60000000E-01  7.20000000E-01  8.50000000E-01  7.20000000E-01  7.20000000E-01
  8.50000000E-01  7.20000000E-01  7.20000000E-01  7.20000000E-01  8.50000000E-01
  7.20000000E-01  8.50000000E-01  8.50000000E-01  8.50000000E-01  7.20000000E-01
  7.20000000E-01  7.20000000E-01  7.20000000E-01  8.50000000E-01  7.20000000E-01
  8.50000000E-01  7.20000000E-01  8.50000000E-01  8.50000000E-01  7.20000000E-01
  8.50000000E-01  8.50000000E-01  7.20000000E-01  8.50000000E-01  8.50000000E-01
  8.50000000E-01  7.20000000E-01  8.50000000E-01  8.50000000E-01  7.20000000E-01
  8.50000000E-01  8.50000000E-01  7.20000000E-01  8.50000000E-01  8.50000000E-01
  7.20000000E-01  8.50000000E-01  8.50000000E-01  8.50000000E-01  8.50000000E-01
  7.20000000E-01  7.20000000E-01  8.50000000E-01  8.50000000E-01  8.50000000E-01
  7.20000000E-01  8.50000000E-01  8.50000000E-01  8.50000000E-01  8.50000000E-01
  9.60000000E-01  7.20000000E-01  7.20000000E-01  7.20000000E-01  7.20000000E-01
  7.20000000E-01  7.20000000E-01  7.20000000E-01  7.20000000E-01  9.60000000E-01
  7.20000000E-01  8.50000000E-01  7.20000000E-01  7.20000000E-01  8.50000000E-01
  7.20000000E-01  7.20000000E-01  7.20000000E-01  8.50000000E-01  7.20000000E-01
  8.50000000E-01  8.50000000E-01  8.50000000E-01  7.20000000E-01  7.20000000E-01
  7.20000000E-01  7.20000000E-01  8.50000000E-01  7.20000000E-01  8.50000000E-01
  7.20000000E-01  8.50000000E-01  8.50000000E-01  7.20000000E-01  8.50000000E-01
  8.50000000E-01  7.20000000E-01  8.50000000E-01  8.50000000E-01  8.50000000E-01
  7.20000000E-01  8.50000000E-01  8.50000000E-01  7.20000000E-01  8.50000000E-01
  8.50000000E-01  7.20000000E-01  8.50000000E-01  8.50000000E-01  7.20000000E-01
  8.50000000E-01  8.50000000E-01  8.50000000E-01  8.50000000E-01  7.20000000E-01
  7.20000000E-01  8.50000000E-01  8.50000000E-01  8.50000000E-01  7.20000000E-01
  8.50000000E-01  8.50000000E-01  8.50000000E-01  8.50000000E-01  9.60000000E-01
  7.20000000E-01  7.20000000E-01  7.20000000E-01  7.20000000E-01  7.20000000E-01
  7.20000000E-01  7.20000000E-01  7.20000000E-01  9.60000000E-01  7.20000000E-01
  8.50000000E-01  7.20000000E-01  7.20000000E-01  8.50000000E-01  7.20000000E-01
  7.20000000E-01  7.20000000E-01  8.50000000E-01  7.20000000E-01  8.50000000E-01
  8.50000000E-01  8.50000000E-01  7.20000000E-01  7.20000000E-01  7.20000000E-01
  7.20000000E-01  8.50000000E-01  7.20000000E-01  8.50000000E-01  7.20000000E-01
  8.50000000E-01  8.50000000E-01  7.20000000E-01  8.50000000E-01  8.50000000E-01
  7.20000000E-01  8.50000000E-01  8.50000000E-01  8.50000000E-01  7.20000000E-01
  8.50000000E-01  8.50000000E-01  7.20000000E-01  8.50000000E-01  8.50000000E-01
  7.20000000E-01  8.50000000E-01  8.50000000E-01  7.20000000E-01  8.50000000E-01
  8.50000000E-01  8.50000000E-01  8.50000000E-01  7.20000000E-01  7.20000000E-01
  8.50000000E-01  8.50000000E-01  8.50000000E-01  7.20000000E-01  8.50000000E-01
  8.50000000E-01  8.50000000E-01  8.50000000E-01  9.60000000E-01  7.20000000E-01
  7.20000000E-01  7.20000000E-01  7.20000000E-01  7.20000000E-01  7.20000000E-01
  7.20000000E-01  7.20000000E-01  9.60000000E-01  7.20000000E-01  8.50000000E-01
  7.20000000E-01  7.20000000E-01  8.50000000E-01  7.20000000E-01  7.20000000E-01
  7.20000000E-01  8.50000000E-01  7.20000000E-01  8.50000000E-01  8.50000000E-01
  8.50000000E-01  7.20000000E-01  7.20000000E-01  7.20000000E-01  7.20000000E-01
  8.50000000E-01  7.20000000E-01  8.50000000E-01  7.20000000E-01  8.50000000E-01
  8.50000000E-01  7.20000000E-01  8.50000000E-01  8.50000000E-01  7.20000000E-01
  8.50000000E-01  8.50000000E-01  8.50000000E-01  7.20000000E-01  8.50000000E-01
  8.50000000E-01  7.20000000E-01  8.50000000E-01  8.50000000E-01  7.20000000E-01
  8.50000000E-01  8.50000000E-01  7.20000000E-01  8.50000000E-01  8.50000000E-01
  8.50000000E-01  8.50000000E-01  7.20000000E-01  7.20000000E-01  8.50000000E-01
  8.50000000E-01  8.50000000E-01  7.20000000E-01  8.50000000E-01  8.50000000E-01
  8.50000000E-01  8.50000000E-01  9.60000000E-01  7.20000000E-01  7.20000000E-01
  7.20000000E-01  7.20000000E-01  7.20000000E-01  7.20000000E-01  7.20000000E-01
  7.20000000E-01  9.60000000E-01  7.20000000E-01  8.50000000E-01  7.20000000E-01
  7.20000000E-01  8.50000000E-01  7.20000000E-01  7.20000000E-01  7.20000000E-01
  8.50000000E-01  7.20000000E-01  8.50000000E-01  8.50000000E-01  8.50000000E-01
  7.20000000E-01  7.20000000E-01  7.20000000E-01  7.20000000E-01  8.50000000E-01
  7.20000000E-01  8.50000000E-01  7.20000000E-01  8.50000000E-01  8.50000000E-01
  7.20000000E-01  8.50000000E-01  8.50000000E-01  7.20000000E-01  8.50000000E-01
  8.50000000E-01  8.50000000E-01  7.20000000E-01  8.50000000E-01  8.50000000E-01
  7.20000000E-01  8.50000000E-01  8.50000000E-01  7.20000000E-01  8.50000000E-01
  8.50000000E-01  7.20000000E-01  8.50000000E-01  8.50000000E-01  8.50000000E-01
  8.50000000E-01  7.20000000E-01  7.20000000E-01  8.50000000E-01  8.50000000E-01
  8.50000000E-01  7.20000000E-01  8.50000000E-01  8.50000000E-01  8.50000000E-01
  8.50000000E-01  9.60000000E-01  7.20000000E-01  7.20000000E-01  7.20000000E-01
  7.20000000E-01  7.20000000E-01  7.20000000E-01  7.20000000E-01  7.20000000E-01
  9.60000000E-01  7.20000000E-01  8.50000000E-01  7.20000000E-01  7.20000000E-01
  8.50000000E-01  7.20000000E-01  7.20000000E-01  7.20000000E-01  8.50000000E-01
  7.20000000E-01  8.50000000E-01  8.50000000E-01  8.50000000E-01  7.20000000E-01
  7.20000000E-01  7.20000000E-01  7.20000000E-01  8.50000000E-01  7.20000000E-01
  8.50000000E-01  7.20000000E-01  8.50000000E-01  8.50000000E-01  7.20000000E-01
  8.50000000E-01  8.50000000E-01  7.20000000E-01  8.50000000E-01  8.50000000E-01
  8.50000000E-01  7.20000000E-01  8.50000000E-01  8.50000000E-01  7.20000000E-01
  8.50000000E-01  8.50000000E-01  7.20000000E-01  8.50000000E-01  8.50000000E-01
  7.20000000E-01  8.50000000E-01  8.50000000E-01  8.50000000E-01  8.50000000E-01
  7.20000000E-01  7.20000000E-01  8.50000000E-01  8.50000000E-01  8.50000000E-01
  7.20000000E-01  8.50000000E-01  8.50000000E-01  8.50000000E-01  8.50000000E-01
  9.60000000E-01  7.20000000E-01  7.20000000E-01  7.20000000E-01  7.20000000E-01
  7.20000000E-01  7.20000000E-01  7.20000000E-01  7.20000000E-01  9.60000000E-01
  7.20000000E-01  8.50000000E-01  7.20000000E-01  7.20000000E-01  8.50000000E-01
  7.20000000E-01  7.20000000E-01  7.20000000E-01  8.50000000E-01  7.20000000E-01
  8.50000000E-01  8.50000000E-01  8.50000000E-01  7.20000000E-01  7.20000000E-01
  7.20000000E-01  7.20000000E-01  8.50000000E-01  7.20000000E-01  8.50000000E-01
  7.20000000E-01  8.50000000E-01  8.50000000E-01  7.20000000E-01  8.50000000E-01
  8.50000000E-01  7.20000000E-01  8.50000000E-01  8.50000000E-01  8.50000000E-01
  7.20000000E-01  8.50000000E-01  8.50000000E-01  7.20000000E-01  8.50000000E-01
  8.50000000E-01  7.20000000E-01  8.50000000E-01  8.50000000E-01  7.20000000E-01
  8.50000000E-01  8.50000000E-01  8.50000000E-01  8.50000000E-01  7.20000000E-01
  7.20000000E-01  8.50000000E-01  8.50000000E-01  8.50000000E-01  7.20000000E-01
  8.50000000E-01  8.50000000E-01  8.50000000E-01  8.50000000E-01  9.60000000E-01
  7.20000000E-01  7.20000000E-01  7.20000000E-01  7.20000000E-01  7.20000000E-01
  7.20000000E-01  7.20000000E-01  7.20000000E-01  9.60000000E-01  7.20000000E-01
  8.50000000E-01  7.20000000E-01  7.20000000E-01  8.50000000E-01  7.20000000E-01
  7.20000000E-01  7.20000000E-01  8.50000000E-01  7.20000000E-01  8.50000000E-01
  8.50000000E-01  8.50000000E-01  7.20000000E-01  7.20000000E-01  7.20000000E-01
  7.20000000E-01  8.50000000E-01  7.20000000E-01  8.50000000E-01  7.20000000E-01
  8.50000000E-01  8.50000000E-01  7.20000000E-01  8.50000000E-01  8.50000000E-01
  7.20000000E-01  8.50000000E-01  8.50000000E-01  8.50000000E-01  7.20000000E-01
  8.50000000E-01  8.50000000E-01  7.20000000E-01  8.50000000E-01  8.50000000E-01
  7.20000000E-01  8.50000000E-01  8.50000000E-01  7.20000000E-01  8.50000000E-01
  8.50000000E-01  8.50000000E-01  8.50000000E-01  7.20000000E-01  7.20000000E-01
  8.50000000E-01  8.50000000E-01  8.50000000E-01  7.20000000E-01  8.50000000E-01
  8.50000000E-01  8.50000000E-01  8.50000000E-01  9.60000000E-01  7.20000000E-01
  7.20000000E-01  7.20000000E-01  7.20000000E-01  7.20000000E-01  7.20000000E-01
  7.20000000E-01  7.20000000E-01  9.60000000E-01  7.20000000E-01  8.50000000E-01
  7.20000000E-01  7.20000000E-01  8.50000000E-01  7.20000000E-01  7.20000000E-01
  7.20000000E-01  8.50000000E-01  7.20000000E-01  8.50000000E-01  8.50000000E-01
  8.50000000E-01  7.20000000E-01  7.20000000E-01  7.20000000E-01  7.20000000E-01
  8.50000000E-01  7.20000000E-01  8.50000000E-01  7.20000000E-01  8.50000000E-01
  8.50000000E-01  7.20000000E-01  8.50000000E-01  8.50000000E-01  7.20000000E-01
  8.50000000E-01  8.50000000E-01  8.50000000E-01  7.20000000E-01  8.50000000E-01
  8.50000000E-01  7.20000000E-01  8.50000000E-01  8.50000000E-01  7.20000000E-01
  8.50000000E-01  8.50000000E-01  7.20000000E-01  8.50000000E-01  8.50000000E-01
  8.50000000E-01  8.50000000E-01  7.20000000E-01  7.20000000E-01  8.50000000E-01
  8.50000000E-01  8.50000000E-01  7.20000000E-01  8.50000000E-01  8.50000000E-01
  8.50000000E-01  8.50000000E-01  9.60000000E-01  7.20000000E-01  7.20000000E-01
  7.20000000E-01  7.20000000E-01  7.20000000E-01  7.20000000E-01  7.20000000E-01
  7.20000000E-01  9.60000000E-01  7.20000000E-01  8.50000000E-01  7.20000000E-01
  7.20000000E-01  8.50000000E-01  7.20000000E-01  7.20000000E-01  7.20000000E-01
  8.50000000E-01  7.20000000E-01  8.50000000E-01  8.50000000E-01  8.50000000E-01
  7.20000000E-01  7.20000000E-01  7.20000000E-01  7.20000000E-01  8.50000000E-01
  7.20000000E-01  8.50000000E-01  7.20000000E-01  8.50000000E-01  8.50000000E-01
  7.20000000E-01  8.50000000E-01  8.50000000E-01  7.20000000E-01  8.50000000E-01
  8.50000000E-01  8.50000000E-01  7.20000000E-01  8.50000000E-01  8.50000000E-01
  7.20000000E-01  8.50000000E-01  8.50000000E-01  7.20000000E-01  8.50000000E-01
  8.50000000E-01  7.20000000E-01  8.50000000E-01  8.50000000E-01  8.50000000E-01
  8.50000000E-01  7.20000000E-01  7.20000000E-01  8.50000000E-01  8.50000000E-01
  8.50000000E-01  7.20000000E-01  8.50000000E-01  8.50000000E-01  8.50000000E-01
  8.50000000E-01  9.60000000E-01  7.20000000E-01  7.20000000E-01  7.20000000E-01
  7.20000000E-01  7.20000000E-01  7.20000000E-01  7.20000000E-01  7.20000000E-01
  9.60000000E-01  7.20000000E-01  8.50000000E-01  7.20000000E-01  7.20000000E-01
  8.50000000E-01  7.20000000E-01  7.20000000E-01  7.20000000E-01  8.50000000E-01
  7.20000000E-01  8.50000000E-01  8.50000000E-01  8.50000000E-01  7.20000000E-01
  7.20000000E-01  7.20000000E-01  7.20000000E-01  8.50000000E-01  7.20000000E-01
  8.50000000E-01  7.20000000E-01  8.50000000E-01  8.50000000E-01  7.20000000E-01
  8.50000000E-01  8.50000000E-01  7.20000000E-01  8.50000000E-01  8.50000000E-01
  8.50000000E-01  7.20000000E-01  8.50000000E-01  8.50000000E-01  7.20000000E-01
  8.50000000E-01  8.50000000E-01  7.20000000E-01  8.50000000E-01  8.50000000E-01
  7.20000000E-01  8.50000000E-01  8.50000000E-01  8.50000000E-01  8.50000000E-01
  7.20000000E-01  7.20000000E-01  8.50000000E-01  8.50000000E-01  8.50000000E-01
  7.20000000E-01  8.50000000E-01  8.50000000E-01  8.50000000E-01  8.50000000E-01
  9.60000000E-01  7.20000000E-01  7.20000000E-01  7.20000000E-01  7.20000000E-01
  7.20000000E-01  7.20000000E-01  7.20000000E-01  7.20000000E-01  9.60000000E-01
  7.20000000E-01  8.50000000E-01  7.20000000E-01  7.20000000E-01  8.50000000E-01
  7.20000000E-01  7.20000000E-01  7.20000000E-01  8.50000000E-01  7.20000000E-01
  8.50000000E-01  8.50000000E-01  8.50000000E-01  7.20000000E-01  7.20000000E-01
  7.20000000E-01  7.20000000E-01  8.50000000E-01  7.20000000E-01  8.50000000E-01
  7.20000000E-01  8.50000000E-01  8.50000000E-01  7.20000000E-01  8.50000000E-01
  8.50000000E-01  7.20000000E-01  8.50000000E-01  8.50000000E-01  8.50000000E-01
  7.20000000E-01  8.50000000E-01  8.50000000E-01  7.20000000E-01  8.50000000E-01
  8.50000000E-01  7.20000000E-01  8.50000000E-01  8.50000000E-01  7.20000000E-01
  8.50000000E-01  8.50000000E-01  8.50000000E-01  8.50000000E-01  7.20000000E-01
  7.20000000E-01  8.50000000E-01  8.50000000E-01  8.50000000E-01  7.20000000E-01
  8.50000000E-01  8.50000000E-01  8.50000000E-01  8.50000000E-01  9.60000000E-01
  7.20000000E-01  7.20000000E-01  7.20000000E-01  7.20000000E-01  7.20000000E-01
  7.20000000E-01  7.20000000E-01  7.20000000E-01  9.60000000E-01  7.20000000E-01
  8.50000000E-01  7.20000000E-01  7.20000000E-01  8.50000000E-01  7.20000000E-01
  7.20000000E-01  7.20000000E-01  8.50000000E-01  7.20000000E-01  8.50000000E-01
  8.50000000E-01  8.50000000E-01  7.20000000E-01  7.20000000E-01  7.20000000E-01
  7.20000000E-01  8.50000000E-01  7.20000000E-01  8.50000000E-01  7.20000000E-01
  8.50000000E-01  8.50000000E-01  7.20000000E-01  8.50000000E-01  8.50000000E-01
  7.20000000E-01  8.50000000E-01  8.50000000E-01  8.50000000E-01  7.20000000E-01
  8.50000000E-01  8.50000000E-01  7.20000000E-01  8.50000000E-01  8.50000000E-01
  7.20000000E-01  8.50000000E-01  8.50000000E-01  7.20000000E-01  8.50000000E-01
  8.50000000E-01  8.50000000E-01  8.50000000E-01  7.20000000E-01  7.20000000E-01
  8.50000000E-01  8.50000000E-01  8.50000000E-01  7.20000000E-01  8.50000000E-01
  8.50000000E-01  8.50000000E-01  8.50000000E-01  9.60000000E-01  7.20000000E-01
  7.20000000E-01  7.20000000E-01  7.20000000E-01  7.20000000E-01  7.20000000E-01
  7.20000000E-01  7.20000000E-01  9.60000000E-01  7.20000000E-01  8.50000000E-01
  7.20000000E-01  7.20000000E-01  8.50000000E-01  7.20000000E-01  7.20000000E-01
  7.20000000E-01  8.50000000E-01  7.20000000E-01  8.50000000E-01  8.50000000E-01
  8.50000000E-01  7.20000000E-01  7.20000000E-01  7.20000000E-01  7.20000000E-01
  8.50000000E-01  7.20000000E-01  8.50000000E-01  7.20000000E-01  8.50000000E-01
  8.50000000E-01  7.20000000E-01  8.50000000E-01  8.50000000E-01  7.20000000E-01
  8.50000000E-01  8.50000000E-01  8.50000000E-01  7.20000000E-01  8.50000000E-01
  8.50000000E-01  7.20000000E-01  8.50000000E-01  8.50000000E-01  7.20000000E-01
  8.50000000E-01  8.50000000E-01  7.20000000E-01  8.50000000E-01  8.50000000E-01
  8.50000000E-01  8.50000000E-01  7.20000000E-01  7.20000000E-01  8.50000000E-01
  8.50000000E-01  8.50000000E-01  7.20000000E-01  8.50000000E-01  8.50000000E-01
  8.50000000E-01  8.50000000E-01  9.60000000E-01  7.20000000E-01  7.20000000E-01
  7.20000000E-01  7.20000000E-01  7.20000000E-01  7.20000000E-01  7.20000000E-01
  7.20000000E-01  9.60000000E-01  7.20000000E-01  8.50000000E-01  7.20000000E-01
  7.20000000E-01  8.50000000E-01  7.20000000E-01  7.20000000E-01  7.20000000E-01
  8.50000000E-01  7.20000000E-01  8.50000000E-01  8.50000000E-01  8.50000000E-01
  7.20000000E-01  7.20000000E-01  7.20000000E-01  7.20000000E-01  8.50000000E-01
  7.20000000E-01  8.50000000E-01  7.20000000E-01  8.50000000E-01  8.50000000E-01
  7.20000000E-01  8.50000000E-01  8.50000000E-01  7.20000000E-01  8.50000000E-01
  8.50000000E-01  8.50000000E-01  7.20000000E-01  8.50000000E-01  8.50000000E-01
  7.20000000E-01  8.50000000E-01  8.50000000E-01  7.20000000E-01  8.50000000E-01
  8.50000000E-01  7.20000000E-01  8.50000000E-01  8.50000000E-01  8.50000000E-01
  8.50000000E-01  7.20000000E-01  7.20000000E-01  8.50000000E-01  8.50000000E-01
  8.50000000E-01  7.20000000E-01  8.50000000E-01  8.50000000E-01  8.50000000E-01
  8.50000000E-01  9.60000000E-01  7.20000000E-01  7.20000000E-01  7.20000000E-01
  7.20000000E-01  7.20000000E-01  7.20000000E-01  7.20000000E-01  7.20000000E-01
  9.60000000E-01  7.20000000E-01  8.50000000E-01  7.20000000E-01  7.20000000E-01
  8.50000000E-01  7.20000000E-01  7.20000000E-01  7.20000000E-01  8.50000000E-01
  7.20000000E-01  8.50000000E-01  8.50000000E-01  8.50000000E-01  7.20000000E-01
  7.20000000E-01  7.20000000E-01  7.20000000E-01  8.50000000E-01  7.20000000E-01
  8.50000000E-01  7.20000000E-01  8.50000000E-01  8.50000000E-01  7.20000000E-01
  8.50000000E-01  8.50000000E-01  7.20000000E-01  8.50000000E-01  8.50000000E-01
  8.50000000E-01  7.20000000E-01  8.50000000E-01  8.50000000E-01  7.20000000E-01
  8.50000000E-01  8.50000000E-01  7.20000000E-01  8.50000000E-01  8.50000000E-01
  7.20000000E-01  8.50000000E-01  8.50000000E-01  8.50000000E-01  8.50000000E-01
  7.20000000E-01  7.20000000E-01  8.50000000E-01  8.50000000E-01  8.50000000E-01
  7.20000000E-01  8.50000000E-01  8.50000000E-01  8.50000000E-01  8.50000000E-01
  9.60000000E-01  7.20000000E-01  7.20000000E-01  7.20000000E-01  7.20000000E-01
  7.20000000E-01  7.20000000E-01  7.20000000E-01  7.20000000E-01  9.60000000E-01
  7.20000000E-01  8.50000000E-01  7.20000000E-01  7.20000000E-01  8.50000000E-01
  7.20000000E-01  7.20000000E-01  7.20000000E-01  8.50000000E-01  7.20000000E-01
  8.50000000E-01  8.50000000E-01  8.50000000E-01  7.20000000E-01  7.20000000E-01
  7.20000000E-01  7.20000000E-01  8.50000000E-01  7.20000000E-01  8.50000000E-01
  7.20000000E-01  8.50000000E-01  8.50000000E-01  7.20000000E-01  8.50000000E-01
  8.50000000E-01  7.20000000E-01  8.50000000E-01  8.50000000E-01  8.50000000E-01
  7.20000000E-01  8.50000000E-01  8.50000000E-01  7.20000000E-01  8.50000000E-01
  8.50000000E-01  7.20000000E-01  8.50000000E-01  8.50000000E-01  7.20000000E-01
  8.50000000E-01  8.50000000E-01  8.50000000E-01  8.50000000E-01  7.20000000E-01
  7.20000000E-01  8.50000000E-01  8.50000000E-01  8.50000000E-01  7.20000000E-01
  8.50000000E-01  8.50000000E-01  8.50000000E-01  8.50000000E-01  9.60000000E-01
  7.20000000E-01  7.20000000E-01  7.20000000E-01  7.20000000E-01  7.20000000E-01
  7.20000000E-01  7.20000000E-01  7.20000000E-01  9.60000000E-01  7.20000000E-01
  8.50000000E-01  7.20000000E-01  7.20000000E-01  8.50000000E-01  7.20000000E-01
  7.20000000E-01  7.20000000E-01  8.50000000E-01  7.20000000E-01  8.50000000E-01
  8.50000000E-01  8.50000000E-01  7.20000000E-01  7.20000000E-01  7.20000000E-01
  7.20000000E-01  8.50000000E-01  7.20000000E-01  8.50000000E-01  7.20000000E-01
  8.50000000E-01  8.50000000E-01  7.20000000E-01  8.50000000E-01  8.50000000E-01
  7.20000000E-01  8.50000000E-01  8.50000000E-01  8.50000000E-01  7.20000000E-01
  8.50000000E-01  8.50000000E-01  7.20000000E-01  8.50000000E-01  8.50000000E-01
  7.20000000E-01  8.50000000E-01  8.50000000E-01  7.20000000E-01  8.50000000E-01
  8.50000000E-01  8.50000000E-01  8.50000000E-01  7.20000000E-01  7.20000000E-01
  8.50000000E-01  8.50000000E-01  8.50000000E-01  7.20000000E-01  8.50000000E-01
  8.50000000E-01  8.50000000E-01  8.50000000E-01  9.60000000E-01  7.20000000E-01
  7.20000000E-01  7.20000000E-01  7.20000000E-01  7.20000000E-01  7.20000000E-01
  7.20000000E-01  7.20000000E-01  9.60000000E-01  7.20000000E-01  8.50000000E-01
  7.20000000E-01  7.20000000E-01  8.50000000E-01  7.20000000E-01  7.20000000E-01
  7.20000000E-01  8.50000000E-01  7.20000000E-01  8.50000000E-01  8.50000000E-01
  8.50000000E-01  7.20000000E-01  7.20000000E-01  7.20000000E-01  7.20000000E-01
  8.50000000E-01  7.20000000E-01  8.50000000E-01  7.20000000E-01  8.50000000E-01
  8.50000000E-01  7.20000000E-01  8.50000000E-01  8.50000000E-01  7.20000000E-01
  8.50000000E-01  8.50000000E-01  8.50000000E-01  7.20000000E-01  8.50000000E-01
  8.50000000E-01  7.20000000E-01  8.50000000E-01  8.50000000E-01  7.20000000E-01
  8.50000000E-01  8.50000000E-01  7.20000000E-01  8.50000000E-01  8.50000000E-01
  8.50000000E-01  8.50000000E-01  7.20000000E-01  7.20000000E-01  8.50000000E-01
  8.50000000E-01  8.50000000E-01  7.20000000E-01  8.50000000E-01  8.50000000E-01
  8.50000000E-01  8.50000000E-01  9.60000000E-01  7.20000000E-01  7.20000000E-01
  7.20000000E-01  7.20000000E-01  7.20000000E-01  7.20000000E-01  7.20000000E-01
  7.20000000E-01  9.60000000E-01  7.20000000E-01  8.50000000E-01  7.20000000E-01
  7.20000000E-01  8.50000000E-01  7.20000000E-01  7.20000000E-01  7.20000000E-01
  8.50000000E-01  7.20000000E-01  8.50000000E-01  8.50000000E-01  8.50000000E-01
  7.20000000E-01  7.20000000E-01  7.20000000E-01  7.20000000E-01  8.50000000E-01
  7.20000000E-01  8.50000000E-01  7.20000000E-01  8.50000000E-01  8.50000000E-01
  7.20000000E-01  8.50000000E-01  8.50000000E-01  7.20000000E-01  8.50000000E-01
  8.50000000E-01  8.50000000E-01  7.20000000E-01  8.50000000E-01  8.50000000E-01
  7.20000000E-01  8.50000000E-01  8.50000000E-01  7.20000000E-01  8.50000000E-01
  8.50000000E-01  7.20000000E-01  8.50000000E-01  8.50000000E-01  8.50000000E-01
  8.50000000E-01  7.20000000E-01  7.20000000E-01  8.50000000E-01  8.50000000E-01
  8.50000000E-01  7.20000000E-01  8.50000000E-01  8.50000000E-01  8.50000000E-01
  8.50000000E-01  9.60000000E-01  7.20000000E-01  7.20000000E-01  7.20000000E-01
  7.20000000E-01  7.20000000E-01  7.20000000E-01  7.20000000E-01  7.20000000E-01
  9.60000000E-01  7.20000000E-01  8.50000000E-01  7.20000000E-01  7.20000000E-01
  8.50000000E-01  7.20000000E-01  7.20000000E-01  7.20000000E-01  8.50000000E-01
  7.20000000E-01  8.50000000E-01  8.50000000E-01  8.50000000E-01  7.20000000E-01
  7.20000000E-01  7.20000000E-01  7.20000000E-01  8.50000000E-01  7.20000000E-01
  8.50000000E-01  7.20000000E-01  8.50000000E-01  8.50000000E-01  7.20000000E-01
  8.50000000E-01  8.50000000E-01  7.20000000E-01  8.50000000E-01  8.50000000E-01
  8.50000000E-01  7.20000000E-01  8.50000000E-01  8.50000000E-01  7.20000000E-01
  8.50000000E-01  8.50000000E-01  7.20000000E-01  8.50000000E-01  8.50000000E-01
  7.20000000E-01  8.50000000E-01  8.50000000E-01  8.50000000E-01  8.50000000E-01
  7.20000000E-01  7.20000000E-01  8.50000000E-01  8.50000000E-01  8.50000000E-01
  7.20000000E-01  8.50000000E-01  8.50000000E-01  8.50000000E-01  8.50000000E-01
  9.60000000E-01  7.20000000E-01  7.20000000E-01  7.20000000E-01  7.20000000E-01
  7.20000000E-01  7.20000000E-01  7.20000000E-01  7.20000000E-01  9.60000000E-01
  7.20000000E-01  8.50000000E-01  7.20000000E-01  7.20000000E-01  8.50000000E-01
  7.20000000E-01  7.20000000E-01  7.20000000E-01  8.50000000E-01  7.20000000E-01
  8.50000000E-01  8.50000000E-01  8.50000000E-01  7.20000000E-01  7.20000000E-01
  7.20000000E-01  7.20000000E-01  8.50000000E-01  7.20000000E-01  8.50000000E-01
  7.20000000E-01  8.50000000E-01  8.50000000E-01  7.20000000E-01  8.50000000E-01
  8.50000000E-01  7.20000000E-01  8.50000000E-01  8.50000000E-01  8.50000000E-01
  7.20000000E-01  8.50000000E-01  8.50000000E-01  7.20000000E-01  8.50000000E-01
  8.50000000E-01  7.20000000E-01  8.50000000E-01  8.50000000E-01  7.20000000E-01
  8.50000000E-01  8.50000000E-01  8.50000000E-01  8.50000000E-01  7.20000000E-01
  7.20000000E-01  8.50000000E-01  8.50000000E-01  8.50000000E-01  7.20000000E-01
  8.50000000E-01  8.50000000E-01  8.50000000E-01  8.50000000E-01  9.60000000E-01
  7.20000000E-01  7.20000000E-01  7.20000000E-01  7.20000000E-01  7.20000000E-01
  7.20000000E-01  7.20000000E-01  7.20000000E-01  9.60000000E-01  7.20000000E-01
  8.50000000E-01  7.20000000E-01  7.20000000E-01  8.50000000E-01  7.20000000E-01
  7.20000000E-01  7.20000000E-01  8.50000000E-01  7.20000000E-01  8.50000000E-01
  8.50000000E-01  8.50000000E-01  7.20000000E-01  7.20000000E-01  7.20000000E-01
  7.20000000E-01  8.50000000E-01  7.20000000E-01  8.50000000E-01  7.20000000E-01
  8.50000000E-01  8.50000000E-01  7.20000000E-01  8.50000000E-01  8.50000000E-01
  7.20000000E-01  8.50000000E-01  8.50000000E-01  8.50000000E-01  7.20000000E-01
  8.50000000E-01  8.50000000E-01  7.20000000E-01  8.50000000E-01  8.50000000E-01
  7.20000000E-01  8.50000000E-01  8.50000000E-01  7.20000000E-01  8.50000000E-01
  8.50000000E-01  8.50000000E-01  8.50000000E-01  7.20000000E-01  7.20000000E-01
  8.50000000E-01  8.50000000E-01  8.50000000E-01  7.20000000E-01  8.50000000E-01
  8.50000000E-01  8.50000000E-01  8.50000000E-01  9.60000000E-01  7.20000000E-01
  7.20000000E-01  7.20000000E-01  7.20000000E-01  7.20000000E-01  7.20000000E-01
  7.20000000E-01  7.20000000E-01  9.60000000E-01  7.20000000E-01  8.50000000E-01
  7.20000000E-01  7.20000000E-01  8.50000000E-01  7.20000000E-01  7.20000000E-01
  7.20000000E-01  8.50000000E-01  7.20000000E-01  8.50000000E-01  8.50000000E-01
  8.50000000E-01  7.20000000E-01  7.20000000E-01  7.20000000E-01  7.20000000E-01
  8.50000000E-01  7.20000000E-01  8.50000000E-01  7.20000000E-01  8.50000000E-01
  8.50000000E-01  7.20000000E-01  8.50000000E-01  8.50000000E-01  7.20000000E-01
  8.50000000E-01  8.50000000E-01  8.50000000E-01  7.20000000E-01  8.50000000E-01
  8.50000000E-01  7.20000000E-01  8.50000000E-01  8.50000000E-01  7.20000000E-01
  8.50000000E-01  8.50000000E-01  7.20000000E-01  8.50000000E-01  8.50000000E-01
  8.50000000E-01  8.50000000E-01  7.20000000E-01  7.20000000E-01  8.50000000E-01
  8.50000000E-01  8.50000000E-01  7.20000000E-01  8.50000000E-01  8.50000000E-01
  8.50000000E-01  8.50000000E-01  9.60000000E-01  7.20000000E-01  7.20000000E-01
  7.20000000E-01  7.20000000E-01  7.20000000E-01  7.20000000E-01  7.20000000E-01
  7.20000000E-01  9.60000000E-01  7.20000000E-01  8.50000000E-01  7.20000000E-01
  7.20000000E-01  8.50000000E-01  7.20000000E-01  7.20000000E-01  7.20000000E-01
  8.50000000E-01  7.20000000E-01  8.50000000E-01  8.50000000E-01  8.50000000E-01
  7.20000000E-01  7.20000000E-01  7.20000000E-01  7.20000000E-01  8.50000000E-01
  7.20000000E-01  8.50000000E-01  7.20000000E-01  8.50000000E-01  8.50000000E-01
  7.20000000E-01  8.50000000E-01  8.50000000E-01  7.20000000E-01  8.50000000E-01
  8.50000000E-01  8.50000000E-01  7.20000000E-01  8.50000000E-01  8.50000000E-01
  7.20000000E-01  8.50000000E-01  8.50000000E-01  7.20000000E-01  8.50000000E-01
  8.50000000E-01  7.20000000E-01  8.50000000E-01  8.50000000E-01  8.50000000E-01
  8.50000000E-01  7.20000000E-01  7.20000000E-01  8.50000000E-01  8.50000000E-01
  8.50000000E-01  7.20000000E-01  8.50000000E-01  8.50000000E-01  8.50000000E-01
  8.50000000E-01  9.60000000E-01  7.20000000E-01  7.20000000E-01  7.20000000E-01
  7.20000000E-01  7.20000000E-01  7.20000000E-01  7.20000000E-01  7.20000000E-01
  9.60000000E-01  7.20000000E-01  8.50000000E-01  7.20000000E-01  7.20000000E-01
  8.50000000E-01  7.20000000E-01  7.20000000E-01  7.20000000E-01  8.50000000E-01
  7.20000000E-01  8.50000000E-01  8.50000000E-01  8.50000000E-01  7.20000000E-01
  7.20000000E-01  7.20000000E-01  7.20000000E-01  8.50000000E-01  7.20000000E-01
  8.50000000E-01  7.20000000E-01  8.50000000E-01  8.50000000E-01  7.20000000E-01
  8.50000000E-01  8.50000000E-01  7.20000000E-01  8.50000000E-01  8.50000000E-01
  8.50000000E-01  7.20000000E-01  8.50000000E-01  8.50000000E-01  7.20000000E-01
  8.50000000E-01  8.50000000E-01  7.20000000E-01  8.50000000E-01  8.50000000E-01
  7.20000000E-01  8.50000000E-01  8.50000000E-01  8.50000000E-01  8.50000000E-01
  7.20000000E-01  7.20000000E-01  8.50000000E-01  8.50000000E-01  8.50000000E-01
  7.20000000E-01  8.50000000E-01  8.50000000E-01  8.50000000E-01  8.50000000E-01
  9.60000000E-01  7.20000000E-01  7.20000000E-01  7.20000000E-01  7.20000000E-01
  7.20000000E-01  7.20000000E-01  7.20000000E-01  7.20000000E-01  9.60000000E-01
  7.20000000E-01  8.50000000E-01  7.20000000E-01  7.20000000E-01  8.50000000E-01
  7.20000000E-01  7.20000000E-01  7.20000000E-01  8.50000000E-01  7.20000000E-01
  8.50000000E-01  8.50000000E-01  8.50000000E-01  7.20000000E-01  7.20000000E-01
  7.20000000E-01  7.20000000E-01  8.50000000E-01  7.20000000E-01  8.50000000E-01
  7.20000000E-01  8.50000000E-01  8.50000000E-01  7.20000000E-01  8.50000000E-01
  8.50000000E-01  7.20000000E-01  8.50000000E-01  8.50000000E-01  8.50000000E-01
  7.20000000E-01  8.50000000E-01  8.50000000E-01  7.20000000E-01  8.50000000E-01
  8.50000000E-01  7.20000000E-01  8.50000000E-01  8.50000000E-01  7.20000000E-01
  8.50000000E-01  8.50000000E-01  8.50000000E-01  8.50000000E-01  7.20000000E-01
  7.20000000E-01  8.50000000E-01  8.50000000E-01  8.50000000E-01  7.20000000E-01
  8.50000000E-01  8.50000000E-01  8.50000000E-01  8.50000000E-01  9.60000000E-01
  7.20000000E-01  7.20000000E-01  7.20000000E-01  7.20000000E-01  7.20000000E-01
  7.20000000E-01  7.20000000E-01  7.20000000E-01  9.60000000E-01  7.20000000E-01
  8.50000000E-01  7.20000000E-01  7.20000000E-01  8.50000000E-01  7.20000000E-01
  7.20000000E-01  7.20000000E-01  8.50000000E-01  7.20000000E-01  8.50000000E-01
  8.50000000E-01  8.50000000E-01  7.20000000E-01  7.20000000E-01  7.20000000E-01
  7.20000000E-01  8.50000000E-01  7.20000000E-01  8.50000000E-01  7.20000000E-01
  8.50000000E-01  8.50000000E-01  7.20000000E-01  8.50000000E-01  8.50000000E-01
  7.20000000E-01  8.50000000E-01  8.50000000E-01  8.50000000E-01  7.20000000E-01
  8.50000000E-01  8.50000000E-01  7.20000000E-01  8.50000000E-01  8.50000000E-01
  7.20000000E-01  8.50000000E-01  8.50000000E-01  7.20000000E-01  8.50000000E-01
  8.50000000E-01  8.50000000E-01  8.50000000E-01  7.20000000E-01  7.20000000E-01
  8.50000000E-01  8.50000000E-01  8.50000000E-01  7.20000000E-01  8.50000000E-01
  8.50000000E-01  8.50000000E-01  8.50000000E-01  9.60000000E-01  7.20000000E-01
  7.20000000E-01  7.20000000E-01  7.20000000E-01  7.20000000E-01  7.20000000E-01
  7.20000000E-01  7.20000000E-01  9.60000000E-01  7.20000000E-01  8.50000000E-01
  7.20000000E-01  7.20000000E-01  8.50000000E-01  7.20000000E-01  7.20000000E-01
  7.20000000E-01  8.50000000E-01  7.20000000E-01  8.50000000E-01  8.50000000E-01
  8.50000000E-01  7.20000000E-01  7.20000000E-01  7.20000000E-01  7.20000000E-01
  8.50000000E-01  7.20000000E-01  8.50000000E-01  7.20000000E-01  8.50000000E-01
  8.50000000E-01  7.20000000E-01  8.50000000E-01  8.50000000E-01  7.20000000E-01
  8.50000000E-01  8.50000000E-01  8.50000000E-01  7.20000000E-01  8.50000000E-01
  8.50000000E-01  7.20000000E-01  8.50000000E-01  8.50000000E-01  7.20000000E-01
  8.50000000E-01  8.50000000E-01  7.20000000E-01  8.50000000E-01  8.50000000E-01
  8.50000000E-01  8.50000000E-01  7.20000000E-01  7.20000000E-01  8.50000000E-01
  8.50000000E-01  8.50000000E-01  7.20000000E-01  8.50000000E-01  8.50000000E-01
  8.50000000E-01  8.50000000E-01  9.60000000E-01  7.20000000E-01  7.20000000E-01
  7.20000000E-01  7.20000000E-01  7.20000000E-01  7.20000000E-01  7.20000000E-01
  7.20000000E-01  9.60000000E-01  7.20000000E-01  8.50000000E-01  7.20000000E-01
  7.20000000E-01  8.50000000E-01  7.20000000E-01  7.20000000E-01  7.20000000E-01
  8.50000000E-01  7.20000000E-01  8.50000000E-01  8.50000000E-01  8.50000000E-01
  7.20000000E-01  7.20000000E-01  7.20000000E-01  7.20000000E-01  8.50000000E-01
  7.20000000E-01  8.50000000E-01  7.20000000E-01  8.50000000E-01  8.50000000E-01
  7.20000000E-01  8.50000000E-01  8.50000000E-01  7.20000000E-01  8.50000000E-01
  8.50000000E-01  8.50000000E-01  7.20000000E-01  8.50000000E-01  8.50000000E-01
  7.20000000E-01  8.50000000E-01  8.50000000E-01  7.20000000E-01  8.50000000E-01
  8.50000000E-01  7.20000000E-01  8.50000000E-01  8.50000000E-01  8.50000000E-01
  8.50000000E-01  7.20000000E-01  7.20000000E-01  8.50000000E-01  8.50000000E-01
  8.50000000E-01  7.20000000E-01  8.50000000E-01  8.50000000E-01  8.50000000E-01
  8.50000000E-01  9.60000000E-01  7.20000000E-01  7.20000000E-01  7.20000000E-01
  7.20000000E-01  7.20000000E-01  7.20000000E-01  7.20000000E-01  7.20000000E-01
  9.60000000E-01  7.20000000E-01  8.50000000E-01  7.20000000E-01  7.20000000E-01
  8.50000000E-01  7.20000000E-01  7.20000000E-01  7.20000000E-01  8.50000000E-01
  7.20000000E-01  8.50000000E-01  8.50000000E-01  8.50000000E-01  7.20000000E-01
  7.20000000E-01  7.20000000E-01  7.20000000E-01  8.50000000E-01  7.20000000E-01
  8.50000000E-01  7.20000000E-01  8.50000000E-01  8.50000000E-01  7.20000000E-01
  8.50000000E-01  8.50000000E-01  7.20000000E-01  8.50000000E-01  8.50000000E-01
  8.50000000E-01  7.20000000E-01  8.50000000E-01  8.50000000E-01  7.20000000E-01
  8.50000000E-01  8.50000000E-01  7.20000000E-01  8.50000000E-01  8.50000000E-01
  7.20000000E-01  8.50000000E-01  8.50000000E-01  8.50000000E-01  8.50000000E-01
  7.20000000E-01  7.20000000E-01  8.50000000E-01  8.50000000E-01  8.50000000E-01
  7.20000000E-01  8.50000000E-01  8.50000000E-01  8.50000000E-01  8.50000000E-01
  9.60000000E-01  7.20000000E-01  7.20000000E-01  7.20000000E-01  7.20000000E-01
  7.20000000E-01  7.20000000E-01  7.20000000E-01  7.20000000E-01  9.60000000E-01
  7.20000000E-01  8.50000000E-01  7.20000000E-01  7.20000000E-01  8.50000000E-01
  7.20000000E-01  7.20000000E-01  7.20000000E-01  8.50000000E-01  7.20000000E-01
  8.50000000E-01  8.50000000E-01  8.50000000E-01  7.20000000E-01  7.20000000E-01
  7.20000000E-01  7.20000000E-01  8.50000000E-01  7.20000000E-01  8.50000000E-01
  7.20000000E-01  8.50000000E-01  8.50000000E-01  7.20000000E-01  8.50000000E-01
  8.50000000E-01  7.20000000E-01  8.50000000E-01  8.50000000E-01  8.50000000E-01
  7.20000000E-01  8.50000000E-01  8.50000000E-01  7.20000000E-01  8.50000000E-01
  8.50000000E-01  7.20000000E-01  8.50000000E-01  8.50000000E-01  7.20000000E-01
  8.50000000E-01  8.50000000E-01  8.50000000E-01  8.50000000E-01  7.20000000E-01
  7.20000000E-01  8.50000000E-01  8.50000000E-01  8.50000000E-01  7.20000000E-01
  8.50000000E-01  8.50000000E-01  8.50000000E-01  8.50000000E-01  9.60000000E-01
  7.20000000E-01  7.20000000E-01  7.20000000E-01  7.20000000E-01  7.20000000E-01
  7.20000000E-01  7.20000000E-01  7.20000000E-01  9.60000000E-01  7.20000000E-01
  8.50000000E-01  7.20000000E-01  7.20000000E-01  8.50000000E-01  7.20000000E-01
  7.20000000E-01  7.20000000E-01  8.50000000E-01  7.20000000E-01  8.50000000E-01
  8.50000000E-01  8.50000000E-01  7.20000000E-01  7.20000000E-01  7.20000000E-01
  7.20000000E-01  8.50000000E-01  7.20000000E-01  8.50000000E-01  7.20000000E-01
  8.50000000E-01  8.50000000E-01  7.20000000E-01  8.50000000E-01  8.50000000E-01
  7.20000000E-01  8.50000000E-01  8.50000000E-01  8.50000000E-01  7.20000000E-01
  8.50000000E-01  8.50000000E-01  7.20000000E-01  8.50000000E-01  8.50000000E-01
  7.20000000E-01  8.50000000E-01  8.50000000E-01  7.20000000E-01  8.50000000E-01
  8.50000000E-01  8.50000000E-01  8.50000000E-01  7.20000000E-01  7.20000000E-01
  8.50000000E-01  8.50000000E-01  8.50000000E-01  7.20000000E-01  8.50000000E-01
  8.50000000E-01  8.50000000E-01  8.50000000E-01  9.60000000E-01  7.20000000E-01
  7.20000000E-01  7.20000000E-01  7.20000000E-01  7.20000000E-01  7.20000000E-01
  7.20000000E-01  7.20000000E-01  9.60000000E-01  7.20000000E-01  8.50000000E-01
  7.20000000E-01  7.20000000E-01  8.50000000E-01  7.20000000E-01  7.20000000E-01
  7.20000000E-01  8.50000000E-01  7.20000000E-01  8.50000000E-01  8.50000000E-01
  8.50000000E-01  7.20000000E-01  7.20000000E-01  7.20000000E-01  7.20000000E-01
  8.50000000E-01  7.20000000E-01  8.50000000E-01  7.20000000E-01  8.50000000E-01
  8.50000000E-01  7.20000000E-01  8.50000000E-01  8.50000000E-01  7.20000000E-01
  8.50000000E-01  8.50000000E-01  8.50000000E-01  7.20000000E-01  8.50000000E-01
  8.50000000E-01  7.20000000E-01  8.50000000E-01  8.50000000E-01  7.20000000E-01
  8.50000000E-01  8.50000000E-01  7.20000000E-01  8.50000000E-01  8.50000000E-01
  8.50000000E-01  8.50000000E-01  7.20000000E-01  7.20000000E-01  8.50000000E-01
  8.50000000E-01  8.50000000E-01  7.20000000E-01  8.50000000E-01  8.50000000E-01
  8.50000000E-01  8.50000000E-01  9.60000000E-01  7.20000000E-01  7.20000000E-01
  7.20000000E-01  7.20000000E-01  7.20000000E-01  7.20000000E-01  7.20000000E-01
  7.20000000E-01  9.60000000E-01  7.20000000E-01  8.50000000E-01  7.20000000E-01
  7.20000000E-01  8.50000000E-01  7.20000000E-01  7.20000000E-01  7.20000000E-01
  8.50000000E-01  7.20000000E-01  8.50000000E-01  8.50000000E-01  8.50000000E-01
  7.20000000E-01  7.20000000E-01  7.20000000E-01  7.20000000E-01  8.50000000E-01
  7.20000000E-01  8.50000000E-01  7.20000000E-01  8.50000000E-01  8.50000000E-01
  7.20000000E-01  8.50000000E-01  8.50000000E-01  7.20000000E-01  8.50000000E-01
  8.50000000E-01  8.50000000E-01  7.20000000E-01  8.50000000E-01  8.50000000E-01
  7.20000000E-01  8.50000000E-01  8.50000000E-01  7.20000000E-01  8.50000000E-01
  8.50000000E-01  7.20000000E-01  8.50000000E-01  8.50000000E-01  8.50000000E-01
  8.50000000E-01  7.20000000E-01  7.20000000E-01  8.50000000E-01  8.50000000E-01
  8.50000000E-01  7.20000000E-01  8.50000000E-01  8.50000000E-01  8.50000000E-01
  8.50000000E-01  9.60000000E-01  7.20000000E-01  7.20000000E-01  7.20000000E-01
  7.20000000E-01  7.20000000E-01  7.20000000E-01  7.20000000E-01  7.20000000E-01
  9.60000000E-01  7.20000000E-01  8.50000000E-01  7.20000000E-01  7.20000000E-01
  8.50000000E-01  7.20000000E-01  7.20000000E-01  7.20000000E-01  8.50000000E-01
  7.20000000E-01  8.50000000E-01  8.50000000E-01  8.50000000E-01  7.20000000E-01
  7.20000000E-01  7.20000000E-01  7.20000000E-01  8.50000000E-01  7.20000000E-01
  8.50000000E-01  7.20000000E-01  8.50000000E-01  8.50000000E-01  7.20000000E-01
  8.50000000E-01  8.50000000E-01  7.20000000E-01  8.50000000E-01  8.50000000E-01
  8.50000000E-01  7.20000000E-01  8.50000000E-01  8.50000000E-01  7.20000000E-01
  8.50000000E-01  8.50000000E-01  7.20000000E-01  8.50000000E-01  8.50000000E-01
  7.20000000E-01  8.50000000E-01  8.50000000E-01  8.50000000E-01  8.50000000E-01
  7.20000000E-01  7.20000000E-01  8.50000000E-01  8.50000000E-01  8.50000000E-01
  7.20000000E-01  8.50000000E-01  8.50000000E-01  8.50000000E-01  8.50000000E-01
  9.60000000E-01  7.20000000E-01  7.20000000E-01  7.20000000E-01  7.20000000E-01
  7.20000000E-01  7.20000000E-01  7.20000000E-01  7.20000000E-01  9.60000000E-01
  7.20000000E-01  8.50000000E-01  7.20000000E-01  7.20000000E-01  8.50000000E-01
  7.20000000E-01  7.20000000E-01  7.20000000E-01  8.50000000E-01  7.20000000E-01
  8.50000000E-01  8.50000000E-01  8.50000000E-01  7.20000000E-01  7.20000000E-01
  7.20000000E-01  7.20000000E-01  8.50000000E-01  7.20000000E-01  8.50000000E-01
  7.20000000E-01  8.50000000E-01  8.50000000E-01  7.20000000E-01  8.50000000E-01
  8.50000000E-01  7.20000000E-01  8.50000000E-01  8.50000000E-01  8.50000000E-01
  7.20000000E-01  8.50000000E-01  8.50000000E-01  7.20000000E-01  8.50000000E-01
  8.50000000E-01  7.20000000E-01  8.50000000E-01  8.50000000E-01  7.20000000E-01
  8.50000000E-01  8.50000000E-01  8.50000000E-01  8.50000000E-01  7.20000000E-01
  7.20000000E-01  8.50000000E-01  8.50000000E-01  8.50000000E-01  7.20000000E-01
  8.50000000E-01  8.50000000E-01  8.50000000E-01  8.50000000E-01  9.60000000E-01
  7.20000000E-01  7.20000000E-01  7.20000000E-01  7.20000000E-01  7.20000000E-01
  7.20000000E-01  7.20000000E-01  7.20000000E-01  9.60000000E-01  7.20000000E-01
  8.50000000E-01  7.20000000E-01  7.20000000E-01  8.50000000E-01  7.20000000E-01
  7.20000000E-01  7.20000000E-01  8.50000000E-01  7.20000000E-01  8.50000000E-01
  8.50000000E-01  8.50000000E-01  7.20000000E-01  7.20000000E-01  7.20000000E-01
  7.20000000E-01  8.50000000E-01  7.20000000E-01  8.50000000E-01  7.20000000E-01
  8.50000000E-01  8.50000000E-01  7.20000000E-01  8.50000000E-01  8.50000000E-01
  7.20000000E-01  8.50000000E-01  8.50000000E-01  8.50000000E-01  7.20000000E-01
  8.50000000E-01  8.50000000E-01  7.20000000E-01  8.50000000E-01  8.50000000E-01
  7.20000000E-01  8.50000000E-01  8.50000000E-01  7.20000000E-01  8.50000000E-01
  8.50000000E-01  8.50000000E-01  8.50000000E-01  7.20000000E-01  7.20000000E-01
  8.50000000E-01  8.50000000E-01  8.50000000E-01  7.20000000E-01  8.50000000E-01
  8.50000000E-01  8.50000000E-01  8.50000000E-01  9.60000000E-01  7.20000000E-01
  7.20000000E-01  7.20000000E-01  7.20000000E-01  7.20000000E-01  7.20000000E-01
  7.20000000E-01  7.20000000E-01  9.60000000E-01  7.20000000E-01  8.50000000E-01
  7.20000000E-01  7.20000000E-01  8.50000000E-01  7.20000000E-01  7.20000000E-01
  7.20000000E-01  8.50000000E-01  7.20000000E-01  8.50000000E-01  8.50000000E-01
  8.50000000E-01  7.20000000E-01  7.20000000E-01  7.20000000E-01  7.20000000E-01
  8.50000000E-01  7.20000000E-01  8.50000000E-01  7.20000000E-01  8.50000000E-01
  8.50000000E-01  7.20000000E-01  8.50000000E-01  8.50000000E-01  7.20000000E-01
  8.50000000E-01  8.50000000E-01  8.50000000E-01  7.20000000E-01  8.50000000E-01
  8.50000000E-01  7.20000000E-01  8.50000000E-01  8.50000000E-01  7.20000000E-01
  8.50000000E-01  8.50000000E-01  7.20000000E-01  8.50000000E-01  8.50000000E-01
  8.50000000E-01  8.50000000E-01  7.20000000E-01  7.20000000E-01  8.50000000E-01
  8.50000000E-01  8.50000000E-01  7.20000000E-01  8.50000000E-01  8.50000000E-01
  8.50000000E-01  8.50000000E-01  9.60000000E-01  7.20000000E-01  7.20000000E-01
  7.20000000E-01  7.20000000E-01  7.20000000E-01  7.20000000E-01  7.20000000E-01
  7.20000000E-01  9.60000000E-01  7.20000000E-01  8.50000000E-01  7.20000000E-01
  7.20000000E-01  8.50000000E-01  7.20000000E-01  7.20000000E-01  7.20000000E-01
  8.50000000E-01  7.20000000E-01  8.50000000E-01  8.50000000E-01  8.50000000E-01
  7.20000000E-01  7.20000000E-01  7.20000000E-01  7.20000000E-01  8.50000000E-01
  7.20000000E-01  8.50000000E-01  7.20000000E-01  8.50000000E-01  8.50000000E-01
  7.20000000E-01  8.50000000E-01  8.50000000E-01  7.20000000E-01  8.50000000E-01
  8.50000000E-01  8.50000000E-01  7.20000000E-01  8.50000000E-01  8.50000000E-01
  7.20000000E-01  8.50000000E-01  8.50000000E-01  7.20000000E-01  8.50000000E-01
  8.50000000E-01  7.20000000E-01  8.50000000E-01  8.50000000E-01  8.50000000E-01
  8.50000000E-01  7.20000000E-01  7.20000000E-01  8.50000000E-01  8.50000000E-01
  8.50000000E-01  7.20000000E-01  8.50000000E-01  8.50000000E-01  8.50000000E-01
  8.50000000E-01  9.60000000E-01  7.20000000E-01  7.20000000E-01  7.20000000E-01
  7.20000000E-01  7.20000000E-01  7.20000000E-01  7.20000000E-01  7.20000000E-01
  9.60000000E-01  7.20000000E-01  8.50000000E-01  7.20000000E-01  7.20000000E-01
  8.50000000E-01  7.20000000E-01  7.20000000E-01  7.20000000E-01  8.50000000E-01
  7.20000000E-01  8.50000000E-01  8.50000000E-01  8.50000000E-01  7.20000000E-01
  7.20000000E-01  7.20000000E-01  7.20000000E-01  8.50000000E-01  7.20000000E-01
  8.50000000E-01  7.20000000E-01  8.50000000E-01  8.50000000E-01  7.20000000E-01
  8.50000000E-01  8.50000000E-01  7.20000000E-01  8.50000000E-01  8.50000000E-01
  8.50000000E-01  7.20000000E-01  8.50000000E-01  8.50000000E-01  7.20000000E-01
  8.50000000E-01  8.50000000E-01  7.20000000E-01  8.50000000E-01  8.50000000E-01
  7.20000000E-01  8.50000000E-01  8.50000000E-01  8.50000000E-01  8.50000000E-01
  7.20000000E-01  7.20000000E-01  8.50000000E-01  8.50000000E-01  8.50000000E-01
  7.20000000E-01  8.50000000E-01  8.50000000E-01  8.50000000E-01  8.50000000E-01
  9.60000000E-01  7.20000000E-01  7.20000000E-01  7.20000000E-01  7.20000000E-01
  7.20000000E-01  7.20000000E-01  7.20000000E-01  7.20000000E-01  9.60000000E-01
  7.20000000E-01  8.50000000E-01  7.20000000E-01  7.20000000E-01  8.50000000E-01
  7.20000000E-01  7.20000000E-01  7.20000000E-01  8.50000000E-01  7.20000000E-01
  8.50000000E-01  8.50000000E-01  8.50000000E-01  7.20000000E-01  7.20000000E-01
  7.20000000E-01  7.20000000E-01  8.50000000E-01  7.20000000E-01  8.50000000E-01
  7.20000000E-01  8.50000000E-01  8.50000000E-01  7.20000000E-01  8.50000000E-01
  8.50000000E-01  7.20000000E-01  8.50000000E-01  8.50000000E-01  8.50000000E-01
  7.20000000E-01  8.50000000E-01  8.50000000E-01  7.20000000E-01  8.50000000E-01
  8.50000000E-01  7.20000000E-01  8.50000000E-01  8.50000000E-01  7.20000000E-01
  8.50000000E-01  8.50000000E-01  8.50000000E-01  8.50000000E-01  7.20000000E-01
  7.20000000E-01  8.50000000E-01  8.50000000E-01  8.50000000E-01  7.20000000E-01
  8.50000000E-01  8.50000000E-01  8.50000000E-01  8.50000000E-01  9.60000000E-01
  7.20000000E-01  7.20000000E-01  7.20000000E-01  7.20000000E-01  7.20000000E-01
  7.20000000E-01  7.20000000E-01  7.20000000E-01  9.60000000E-01  7.20000000E-01
  8.50000000E-01  7.20000000E-01  7.20000000E-01  8.50000000E-01  7.20000000E-01
  7.20000000E-01  7.20000000E-01  8.50000000E-01  7.20000000E-01  8.50000000E-01
  8.50000000E-01  8.50000000E-01  7.20000000E-01  7.20000000E-01  7.20000000E-01
  7.20000000E-01  8.50000000E-01  7.20000000E-01  8.50000000E-01  7.20000000E-01
  8.50000000E-01  8.50000000E-01  7.20000000E-01  8.50000000E-01  8.50000000E-01
  7.20000000E-01  8.50000000E-01  8.50000000E-01  8.50000000E-01  7.20000000E-01
  8.50000000E-01  8.50000000E-01  7.20000000E-01  8.50000000E-01  8.50000000E-01
  7.20000000E-01  8.50000000E-01  8.50000000E-01  7.20000000E-01  8.50000000E-01
  8.50000000E-01  8.50000000E-01  8.50000000E-01  7.20000000E-01  7.20000000E-01
  8.50000000E-01  8.50000000E-01  8.50000000E-01  7.20000000E-01  8.50000000E-01
  8.50000000E-01  8.50000000E-01  8.50000000E-01  9.60000000E-01  7.20000000E-01
  7.20000000E-01  7.20000000E-01  7.20000000E-01  7.20000000E-01  7.20000000E-01
  7.20000000E-01  7.20000000E-01  9.60000000E-01  7.20000000E-01  8.50000000E-01
  7.20000000E-01  7.20000000E-01  8.50000000E-01  7.20000000E-01  7.20000000E-01
  7.20000000E-01  8.50000000E-01  7.20000000E-01  8.50000000E-01  8.50000000E-01
  8.50000000E-01  7.20000000E-01  7.20000000E-01  7.20000000E-01  7.20000000E-01
  8.50000000E-01  7.20000000E-01  8.50000000E-01  7.20000000E-01  8.50000000E-01
  8.50000000E-01  7.20000000E-01  8.50000000E-01  8.50000000E-01  7.20000000E-01
  8.50000000E-01  8.50000000E-01  8.50000000E-01  7.20000000E-01  8.50000000E-01
  8.50000000E-01  7.20000000E-01  8.50000000E-01  8.50000000E-01  7.20000000E-01
  8.50000000E-01  8.50000000E-01  7.20000000E-01  8.50000000E-01  8.50000000E-01
  8.50000000E-01  8.50000000E-01  7.20000000E-01  7.20000000E-01  8.50000000E-01
  8.50000000E-01  8.50000000E-01  7.20000000E-01  8.50000000E-01  8.50000000E-01
  8.50000000E-01  8.50000000E-01  9.60000000E-01  7.20000000E-01  7.20000000E-01
  7.20000000E-01  7.20000000E-01  7.20000000E-01  7.20000000E-01  7.20000000E-01
  7.20000000E-01  9.60000000E-01  7.20000000E-01  8.50000000E-01  7.20000000E-01
  7.20000000E-01  8.50000000E-01  7.20000000E-01  7.20000000E-01  7.20000000E-01
  8.50000000E-01  7.20000000E-01  8.50000000E-01  8.50000000E-01  8.50000000E-01
  7.20000000E-01  7.20000000E-01  7.20000000E-01  7.20000000E-01  8.50000000E-01
  7.20000000E-01  8.50000000E-01  7.20000000E-01  8.50000000E-01  8.50000000E-01
  7.20000000E-01  8.50000000E-01  8.50000000E-01  7.20000000E-01  8.50000000E-01
  8.50000000E-01  8.50000000E-01  7.20000000E-01  8.50000000E-01  8.50000000E-01
  7.20000000E-01  8.50000000E-01  8.50000000E-01  7.20000000E-01  8.50000000E-01
  8.50000000E-01  7.20000000E-01  8.50000000E-01  8.50000000E-01  8.50000000E-01
  8.50000000E-01  7.20000000E-01  7.20000000E-01  8.50000000E-01  8.50000000E-01
  8.50000000E-01  7.20000000E-01  8.50000000E-01  8.50000000E-01  8.50000000E-01
  8.50000000E-01  9.60000000E-01  7.20000000E-01  7.20000000E-01  7.20000000E-01
  7.20000000E-01  7.20000000E-01  7.20000000E-01  7.20000000E-01  7.20000000E-01
  9.60000000E-01  7.20000000E-01  8.50000000E-01  7.20000000E-01  7.20000000E-01
  8.50000000E-01  7.20000000E-01  7.20000000E-01  7.20000000E-01  8.50000000E-01
  7.20000000E-01  8.50000000E-01  8.50000000E-01  8.50000000E-01  7.20000000E-01
  7.20000000E-01  7.20000000E-01  7.20000000E-01  8.50000000E-01  7.20000000E-01
  8.50000000E-01  7.20000000E-01  8.50000000E-01  8.50000000E-01  7.20000000E-01
  8.50000000E-01  8.50000000E-01  7.20000000E-01  8.50000000E-01  8.50000000E-01
  8.50000000E-01  7.20000000E-01  8.50000000E-01  8.50000000E-01  7.20000000E-01
  8.50000000E-01  8.50000000E-01  7.20000000E-01  8.50000000E-01  8.50000000E-01
  7.20000000E-01  8.50000000E-01  8.50000000E-01  8.50000000E-01  8.50000000E-01
  7.20000000E-01  7.20000000E-01  8.50000000E-01  8.50000000E-01  8.50000000E-01
  7.20000000E-01  8.50000000E-01  8.50000000E-01  8.50000000E-01  8.50000000E-01
  9.60000000E-01  7.20000000E-01  7.20000000E-01  7.20000000E-01  7.20000000E-01
  7.20000000E-01  7.20000000E-01  7.20000000E-01  7.20000000E-01  9.60000000E-01
  7.20000000E-01  8.50000000E-01  7.20000000E-01  7.20000000E-01  8.50000000E-01
  7.20000000E-01  7.20000000E-01  7.20000000E-01  8.50000000E-01  7.20000000E-01
  8.50000000E-01  8.50000000E-01  8.50000000E-01  7.20000000E-01  7.20000000E-01
  7.20000000E-01  7.20000000E-01  8.50000000E-01  7.20000000E-01  8.50000000E-01
  7.20000000E-01  8.50000000E-01  8.50000000E-01  7.20000000E-01  8.50000000E-01
  8.50000000E-01  7.20000000E-01  8.50000000E-01  8.50000000E-01  8.50000000E-01
  7.20000000E-01  8.50000000E-01  8.50000000E-01  7.20000000E-01  8.50000000E-01
  8.50000000E-01  7.20000000E-01  8.50000000E-01  8.50000000E-01  7.20000000E-01
  8.50000000E-01  8.50000000E-01  8.50000000E-01  8.50000000E-01  7.20000000E-01
  7.20000000E-01  8.50000000E-01  8.50000000E-01  8.50000000E-01  7.20000000E-01
  8.50000000E-01  8.50000000E-01  8.50000000E-01  8.50000000E-01  9.60000000E-01
  7.20000000E-01  7.20000000E-01  7.20000000E-01  7.20000000E-01  7.20000000E-01
  7.20000000E-01  7.20000000E-01  7.20000000E-01  9.60000000E-01  7.20000000E-01
  8.50000000E-01  7.20000000E-01  7.20000000E-01  8.50000000E-01  7.20000000E-01
  7.20000000E-01  7.20000000E-01  8.50000000E-01  7.20000000E-01  8.50000000E-01
  8.50000000E-01  8.50000000E-01  7.20000000E-01  7.20000000E-01  7.20000000E-01
  7.20000000E-01  8.50000000E-01  7.20000000E-01  8.50000000E-01  7.20000000E-01
  8.50000000E-01  8.50000000E-01  7.20000000E-01  8.50000000E-01  8.50000000E-01
  7.20000000E-01  8.50000000E-01  8.50000000E-01  8.50000000E-01  7.20000000E-01
  8.50000000E-01  8.50000000E-01  7.20000000E-01  8.50000000E-01  8.50000000E-01
  7.20000000E-01  8.50000000E-01  8.50000000E-01  7.20000000E-01  8.50000000E-01
  8.50000000E-01  8.50000000E-01  8.50000000E-01  7.20000000E-01  7.20000000E-01
  8.50000000E-01  8.50000000E-01  8.50000000E-01  7.20000000E-01  8.50000000E-01
  8.50000000E-01  8.50000000E-01  8.50000000E-01  9.60000000E-01  7.20000000E-01
  7.20000000E-01  7.20000000E-01  7.20000000E-01  7.20000000E-01  7.20000000E-01
  7.20000000E-01  7.20000000E-01  9.60000000E-01  7.20000000E-01  8.50000000E-01
  7.20000000E-01  7.20000000E-01  8.50000000E-01  7.20000000E-01  7.20000000E-01
  7.20000000E-01  8.50000000E-01  7.20000000E-01  8.50000000E-01  8.50000000E-01
  8.50000000E-01  7.20000000E-01  7.20000000E-01  7.20000000E-01  7.20000000E-01
  8.50000000E-01  7.20000000E-01  8.50000000E-01  7.20000000E-01  8.50000000E-01
  8.50000000E-01  7.20000000E-01  8.50000000E-01  8.50000000E-01  7.20000000E-01
  8.50000000E-01  8.50000000E-01  8.50000000E-01  7.20000000E-01  8.50000000E-01
  8.50000000E-01  7.20000000E-01  8.50000000E-01  8.50000000E-01  7.20000000E-01
  8.50000000E-01  8.50000000E-01  7.20000000E-01  8.50000000E-01  8.50000000E-01
  8.50000000E-01  8.50000000E-01  7.20000000E-01  7.20000000E-01  8.50000000E-01
  8.50000000E-01  8.50000000E-01  7.20000000E-01  8.50000000E-01  8.50000000E-01
  8.50000000E-01  8.50000000E-01  9.60000000E-01  7.20000000E-01  7.20000000E-01
  7.20000000E-01  7.20000000E-01  7.20000000E-01  7.20000000E-01  7.20000000E-01
  7.20000000E-01  9.60000000E-01  7.20000000E-01  8.50000000E-01  7.20000000E-01
  7.20000000E-01  8.50000000E-01  7.20000000E-01  7.20000000E-01  7.20000000E-01
  8.50000000E-01  7.20000000E-01  8.50000000E-01  8.50000000E-01  8.50000000E-01
  7.20000000E-01  7.20000000E-01  7.20000000E-01  7.20000000E-01  8.50000000E-01
  7.20000000E-01  8.50000000E-01  7.20000000E-01  8.50000000E-01  8.50000000E-01
  7.20000000E-01  8.50000000E-01  8.50000000E-01  7.20000000E-01  8.50000000E-01
  8.50000000E-01  8.50000000E-01  7.20000000E-01  8.50000000E-01  8.50000000E-01
  7.20000000E-01  8.50000000E-01  8.50000000E-01  7.20000000E-01  8.50000000E-01
  8.50000000E-01  7.20000000E-01  8.50000000E-01  8.50000000E-01  8.50000000E-01
  8.50000000E-01  7.20000000E-01  7.20000000E-01  8.50000000E-01  8.50000000E-01
  8.50000000E-01  7.20000000E-01  8.50000000E-01  8.50000000E-01  8.50000000E-01
  8.50000000E-01  9.60000000E-01  7.20000000E-01  7.20000000E-01  7.20000000E-01
  7.20000000E-01  7.20000000E-01  7.20000000E-01  7.20000000E-01  7.20000000E-01
  9.60000000E-01  7.20000000E-01  8.50000000E-01  7.20000000E-01  7.20000000E-01
  8.50000000E-01  7.20000000E-01  7.20000000E-01  7.20000000E-01  8.50000000E-01
  7.20000000E-01  8.50000000E-01  8.50000000E-01  8.50000000E-01  7.20000000E-01
  7.20000000E-01  7.20000000E-01  7.20000000E-01  8.50000000E-01  7.20000000E-01
  8.50000000E-01  7.20000000E-01  8.50000000E-01  8.50000000E-01  7.20000000E-01
  8.50000000E-01  8.50000000E-01  7.20000000E-01  8.50000000E-01  8.50000000E-01
  8.50000000E-01  7.20000000E-01  8.50000000E-01  8.50000000E-01  7.20000000E-01
  8.50000000E-01  8.50000000E-01  7.20000000E-01  8.50000000E-01  8.50000000E-01
  7.20000000E-01  8.50000000E-01  8.50000000E-01  8.50000000E-01  8.50000000E-01
  7.20000000E-01  7.20000000E-01  8.50000000E-01  8.50000000E-01  8.50000000E-01
  7.20000000E-01  8.50000000E-01  8.50000000E-01  8.50000000E-01  8.50000000E-01
  9.60000000E-01  7.20000000E-01  7.20000000E-01  7.20000000E-01  7.20000000E-01
  7.20000000E-01  7.20000000E-01  7.20000000E-01  7.20000000E-01  9.60000000E-01
  7.20000000E-01  8.50000000E-01  7.20000000E-01  7.20000000E-01  8.50000000E-01
  7.20000000E-01  7.20000000E-01  7.20000000E-01  8.50000000E-01  7.20000000E-01
  8.50000000E-01  8.50000000E-01  8.50000000E-01  7.20000000E-01  7.20000000E-01
  7.20000000E-01  7.20000000E-01  8.50000000E-01  7.20000000E-01  8.50000000E-01
  7.20000000E-01  8.50000000E-01  8.50000000E-01  7.20000000E-01  8.50000000E-01
  8.50000000E-01  7.20000000E-01  8.50000000E-01  8.50000000E-01  8.50000000E-01
  7.20000000E-01  8.50000000E-01  8.50000000E-01  7.20000000E-01  8.50000000E-01
  8.50000000E-01  7.20000000E-01  8.50000000E-01  8.50000000E-01  7.20000000E-01
  8.50000000E-01  8.50000000E-01  8.50000000E-01  8.50000000E-01  7.20000000E-01
  7.20000000E-01  8.50000000E-01  8.50000000E-01  8.50000000E-01  7.20000000E-01
  8.50000000E-01  8.50000000E-01  8.50000000E-01  8.50000000E-01  9.60000000E-01
  7.20000000E-01  7.20000000E-01  7.20000000E-01  7.20000000E-01  7.20000000E-01
  7.20000000E-01  7.20000000E-01  7.20000000E-01  9.60000000E-01  7.20000000E-01
  8.50000000E-01  7.20000000E-01  7.20000000E-01  8.50000000E-01  7.20000000E-01
  7.20000000E-01  7.20000000E-01  8.50000000E-01  7.20000000E-01  8.50000000E-01
  8.50000000E-01  8.50000000E-01  7.20000000E-01  7.20000000E-01  7.20000000E-01
  7.20000000E-01  8.50000000E-01  7.20000000E-01  8.50000000E-01  7.20000000E-01
  8.50000000E-01  8.50000000E-01  7.20000000E-01  8.50000000E-01  8.50000000E-01
  7.20000000E-01  8.50000000E-01  8.50000000E-01  8.50000000E-01  7.20000000E-01
  8.50000000E-01  8.50000000E-01  7.20000000E-01  8.50000000E-01  8.50000000E-01
  7.20000000E-01  8.50000000E-01  8.50000000E-01  7.20000000E-01  8.50000000E-01
  8.50000000E-01  8.50000000E-01  8.50000000E-01  7.20000000E-01  7.20000000E-01
  8.50000000E-01  8.50000000E-01  8.50000000E-01  7.20000000E-01  8.50000000E-01
  8.50000000E-01  8.50000000E-01  8.50000000E-01  9.60000000E-01  7.20000000E-01
  7.20000000E-01  7.20000000E-01  7.20000000E-01  7.20000000E-01  7.20000000E-01
  7.20000000E-01  7.20000000E-01  9.60000000E-01  7.20000000E-01  8.50000000E-01
  7.20000000E-01  7.20000000E-01  8.50000000E-01  7.20000000E-01  7.20000000E-01
  7.20000000E-01  8.50000000E-01  7.20000000E-01  8.50000000E-01  8.50000000E-01
  8.50000000E-01  7.20000000E-01  7.20000000E-01  7.20000000E-01  7.20000000E-01
  8.50000000E-01  7.20000000E-01  8.50000000E-01  7.20000000E-01  8.50000000E-01
  8.50000000E-01  7.20000000E-01  8.50000000E-01  8.50000000E-01  7.20000000E-01
  8.50000000E-01  8.50000000E-01  8.50000000E-01  7.20000000E-01  8.50000000E-01
  8.50000000E-01  7.20000000E-01  8.50000000E-01  8.50000000E-01  7.20000000E-01
  8.50000000E-01  8.50000000E-01  7.20000000E-01  8.50000000E-01  8.50000000E-01
  8.50000000E-01  8.50000000E-01  7.20000000E-01  7.20000000E-01  8.50000000E-01
  8.50000000E-01  8.50000000E-01  7.20000000E-01  8.50000000E-01  8.50000000E-01
  8.50000000E-01  8.50000000E-01  9.60000000E-01  7.20000000E-01  7.20000000E-01
  7.20000000E-01  7.20000000E-01  7.20000000E-01  7.20000000E-01  7.20000000E-01
  7.20000000E-01  9.60000000E-01  7.20000000E-01  8.50000000E-01  7.20000000E-01
  7.20000000E-01  8.50000000E-01  7.20000000E-01  7.20000000E-01  7.20000000E-01
  8.50000000E-01  7.20000000E-01  8.50000000E-01  8.50000000E-01  8.50000000E-01
  7.20000000E-01  7.20000000E-01  7.20000000E-01  7.20000000E-01  8.50000000E-01
  7.20000000E-01  8.50000000E-01  7.20000000E-01  8.50000000E-01  8.50000000E-01
  7.20000000E-01  8.50000000E-01  8.50000000E-01  7.20000000E-01  8.50000000E-01
  8.50000000E-01  8.50000000E-01  7.20000000E-01  8.50000000E-01  8.50000000E-01
  7.20000000E-01  8.50000000E-01  8.50000000E-01  7.20000000E-01  8.50000000E-01
  8.50000000E-01  7.20000000E-01  8.50000000E-01  8.50000000E-01  8.50000000E-01
  8.50000000E-01  7.20000000E-01  7.20000000E-01  8.50000000E-01  8.50000000E-01
  8.50000000E-01  7.20000000E-01  8.50000000E-01  8.50000000E-01  8.50000000E-01
  8.50000000E-01  9.60000000E-01  7.20000000E-01  7.20000000E-01  7.20000000E-01
  7.20000000E-01  7.20000000E-01  7.20000000E-01  7.20000000E-01  7.20000000E-01
  9.60000000E-01  7.20000000E-01  8.50000000E-01  7.20000000E-01  7.20000000E-01
  8.50000000E-01  7.20000000E-01  7.20000000E-01  7.20000000E-01  8.50000000E-01
  7.20000000E-01  8.50000000E-01  8.50000000E-01  8.50000000E-01  7.20000000E-01
  7.20000000E-01  7.20000000E-01  7.20000000E-01  8.50000000E-01  7.20000000E-01
  8.50000000E-01  7.20000000E-01  8.50000000E-01  8.50000000E-01  7.20000000E-01
  8.50000000E-01  8.50000000E-01  7.20000000E-01  8.50000000E-01  8.50000000E-01
  8.50000000E-01  7.20000000E-01  8.50000000E-01  8.50000000E-01  7.20000000E-01
  8.50000000E-01  8.50000000E-01  7.20000000E-01  8.50000000E-01  8.50000000E-01
  7.20000000E-01  8.50000000E-01  8.50000000E-01  8.50000000E-01  8.50000000E-01
  7.20000000E-01  7.20000000E-01  8.50000000E-01  8.50000000E-01  8.50000000E-01
  7.20000000E-01  8.50000000E-01  8.50000000E-01  8.50000000E-01  8.50000000E-01
  9.60000000E-01  7.20000000E-01  7.20000000E-01  7.20000000E-01  7.20000000E-01
  7.20000000E-01  7.20000000E-01  7.20000000E-01  7.20000000E-01  9.60000000E-01
  7.20000000E-01  8.50000000E-01  7.20000000E-01  7.20000000E-01  8.50000000E-01
  7.20000000E-01  7.20000000E-01  7.20000000E-01  8.50000000E-01  7.20000000E-01
  8.50000000E-01  8.50000000E-01  8.50000000E-01  7.20000000E-01  7.20000000E-01
  7.20000000E-01  7.20000000E-01  8.50000000E-01  7.20000000E-01  8.50000000E-01
  7.20000000E-01  8.50000000E-01  8.50000000E-01  7.20000000E-01  8.50000000E-01
  8.50000000E-01  7.20000000E-01  8.50000000E-01  8.50000000E-01  8.50000000E-01
  7.20000000E-01  8.50000000E-01  8.50000000E-01  7.20000000E-01  8.50000000E-01
  8.50000000E-01  7.20000000E-01  8.50000000E-01  8.50000000E-01  7.20000000E-01
  8.50000000E-01  8.50000000E-01  8.50000000E-01  8.50000000E-01  7.20000000E-01
  7.20000000E-01  8.50000000E-01  8.50000000E-01  8.50000000E-01  7.20000000E-01
  8.50000000E-01  8.50000000E-01  8.50000000E-01  8.50000000E-01  9.60000000E-01
  7.20000000E-01  7.20000000E-01  7.20000000E-01  7.20000000E-01  7.20000000E-01
  7.20000000E-01  7.20000000E-01  7.20000000E-01  9.60000000E-01  7.20000000E-01
  8.50000000E-01  7.20000000E-01  7.20000000E-01  8.50000000E-01  7.20000000E-01
  7.20000000E-01  7.20000000E-01  8.50000000E-01  7.20000000E-01  8.50000000E-01
  8.50000000E-01  8.50000000E-01  7.20000000E-01  7.20000000E-01  7.20000000E-01
  7.20000000E-01  8.50000000E-01  7.20000000E-01  8.50000000E-01  7.20000000E-01
  8.50000000E-01  8.50000000E-01  7.20000000E-01  8.50000000E-01  8.50000000E-01
  7.20000000E-01  8.50000000E-01  8.50000000E-01  8.50000000E-01  7.20000000E-01
  8.50000000E-01  8.50000000E-01  7.20000000E-01  8.50000000E-01  8.50000000E-01
  7.20000000E-01  8.50000000E-01  8.50000000E-01  7.20000000E-01  8.50000000E-01
  8.50000000E-01  8.50000000E-01  8.50000000E-01  7.20000000E-01  7.20000000E-01
  8.50000000E-01  8.50000000E-01  8.50000000E-01  7.20000000E-01  8.50000000E-01
  8.50000000E-01  8.50000000E-01  8.50000000E-01  9.60000000E-01  7.20000000E-01
  7.20000000E-01  7.20000000E-01  7.20000000E-01  7.20000000E-01  7.20000000E-01
  7.20000000E-01  7.20000000E-01  9.60000000E-01  7.20000000E-01  8.50000000E-01
  7.20000000E-01  7.20000000E-01  8.50000000E-01  7.20000000E-01  7.20000000E-01
  7.20000000E-01  8.50000000E-01  7.20000000E-01  8.50000000E-01  8.50000000E-01
  8.50000000E-01  7.20000000E-01  7.20000000E-01  7.20000000E-01  7.20000000E-01
  8.50000000E-01  7.20000000E-01  8.50000000E-01  7.20000000E-01  8.50000000E-01
  8.50000000E-01  7.20000000E-01  8.50000000E-01  8.50000000E-01  7.20000000E-01
  8.50000000E-01  8.50000000E-01  8.50000000E-01  7.20000000E-01  8.50000000E-01
  8.50000000E-01  7.20000000E-01  8.50000000E-01  8.50000000E-01  7.20000000E-01
  8.50000000E-01  8.50000000E-01  7.20000000E-01  8.50000000E-01  8.50000000E-01
  8.50000000E-01  8.50000000E-01  7.20000000E-01  7.20000000E-01  8.50000000E-01
  8.50000000E-01  8.50000000E-01  7.20000000E-01  8.50000000E-01  8.50000000E-01
  8.50000000E-01  8.50000000E-01  9.60000000E-01  7.20000000E-01  7.20000000E-01
  7.20000000E-01  7.20000000E-01  7.20000000E-01  7.20000000E-01  7.20000000E-01
  7.20000000E-01  9.60000000E-01  7.20000000E-01  8.50000000E-01  7.20000000E-01
  7.20000000E-01  8.50000000E-01  7.20000000E-01  7.20000000E-01  7.20000000E-01
  8.50000000E-01  7.20000000E-01  8.50000000E-01  8.50000000E-01  8.50000000E-01
  7.20000000E-01  7.20000000E-01  7.20000000E-01  7.20000000E-01  8.50000000E-01
  7.20000000E-01  8.50000000E-01  7.20000000E-01  8.50000000E-01  8.50000000E-01
  7.20000000E-01  8.50000000E-01  8.50000000E-01  7.20000000E-01  8.50000000E-01
  8.50000000E-01  8.50000000E-01  7.20000000E-01  8.50000000E-01  8.50000000E-01
  7.20000000E-01  8.50000000E-01  8.50000000E-01  7.20000000E-01  8.50000000E-01
  8.50000000E-01  7.20000000E-01  8.50000000E-01  8.50000000E-01  8.50000000E-01
  8.50000000E-01  7.20000000E-01  7.20000000E-01  8.50000000E-01  8.50000000E-01
  8.50000000E-01  7.20000000E-01  8.50000000E-01  8.50000000E-01  8.50000000E-01
  8.50000000E-01  9.60000000E-01  7.20000000E-01  7.20000000E-01  7.20000000E-01
  7.20000000E-01  7.20000000E-01  7.20000000E-01  7.20000000E-01  7.20000000E-01
  9.60000000E-01  7.20000000E-01  8.50000000E-01  7.20000000E-01  7.20000000E-01
  8.50000000E-01  7.20000000E-01  7.20000000E-01  7.20000000E-01  8.50000000E-01
  7.20000000E-01  8.50000000E-01  8.50000000E-01  8.50000000E-01  7.20000000E-01
  7.20000000E-01  7.20000000E-01  7.20000000E-01  8.50000000E-01  7.20000000E-01
  8.50000000E-01  7.20000000E-01  8.50000000E-01  8.50000000E-01  7.20000000E-01
  8.50000000E-01  8.50000000E-01  7.20000000E-01  8.50000000E-01  8.50000000E-01
  8.50000000E-01  7.20000000E-01  8.50000000E-01  8.50000000E-01  7.20000000E-01
  8.50000000E-01  8.50000000E-01  7.20000000E-01  8.50000000E-01  8.50000000E-01
  7.20000000E-01  8.50000000E-01  8.50000000E-01  8.50000000E-01  8.50000000E-01
  7.20000000E-01  7.20000000E-01  8.50000000E-01  8.50000000E-01  8.50000000E-01
  7.20000000E-01  8.50000000E-01  8.50000000E-01  8.50000000E-01  8.50000000E-01
  9.60000000E-01  7.20000000E-01  7.20000000E-01  7.20000000E-01  7.20000000E-01
  7.20000000E-01  7.20000000E-01  7.20000000E-01  7.20000000E-01  9.60000000E-01
  7.20000000E-01  8.50000000E-01  7.20000000E-01  7.20000000E-01  8.50000000E-01
  7.20000000E-01  7.20000000E-01  7.20000000E-01  8.50000000E-01  7.20000000E-01
  8.50000000E-01  8.50000000E-01  8.50000000E-01  7.20000000E-01  7.20000000E-01
  7.20000000E-01  7.20000000E-01  8.50000000E-01  7.20000000E-01  8.50000000E-01
  7.20000000E-01  8.50000000E-01  8.50000000E-01  7.20000000E-01  8.50000000E-01
  8.50000000E-01  7.20000000E-01  8.50000000E-01  8.50000000E-01  8.50000000E-01
  7.20000000E-01  8.50000000E-01  8.50000000E-01  7.20000000E-01  8.50000000E-01
  8.50000000E-01  7.20000000E-01  8.50000000E-01  8.50000000E-01  7.20000000E-01
  8.50000000E-01  8.50000000E-01  8.50000000E-01  8.50000000E-01  7.20000000E-01
  7.20000000E-01  8.50000000E-01  8.50000000E-01  8.50000000E-01  7.20000000E-01
  8.50000000E-01  8.50000000E-01  8.50000000E-01  8.50000000E-01  9.60000000E-01
  7.20000000E-01  7.20000000E-01  7.20000000E-01  7.20000000E-01  7.20000000E-01
  7.20000000E-01  7.20000000E-01  7.20000000E-01  9.60000000E-01  7.20000000E-01
  8.50000000E-01  7.20000000E-01  7.20000000E-01  8.50000000E-01  7.20000000E-01
  7.20000000E-01  7.20000000E-01  8.50000000E-01  7.20000000E-01  8.50000000E-01
  8.50000000E-01  8.50000000E-01  7.20000000E-01  7.20000000E-01  7.20000000E-01
  7.20000000E-01  8.50000000E-01  7.20000000E-01  8.50000000E-01  7.20000000E-01
  8.50000000E-01  8.50000000E-01  7.20000000E-01  8.50000000E-01  8.50000000E-01
  7.20000000E-01  8.50000000E-01  8.50000000E-01  8.50000000E-01  7.20000000E-01
  8.50000000E-01  8.50000000E-01  7.20000000E-01  8.50000000E-01  8.50000000E-01
  7.20000000E-01  8.50000000E-01  8.50000000E-01  7.20000000E-01  8.50000000E-01
  8.50000000E-01  8.50000000E-01  8.50000000E-01  7.20000000E-01  7.20000000E-01
  8.50000000E-01  8.50000000E-01  8.50000000E-01  7.20000000E-01  8.50000000E-01
  8.50000000E-01  8.50000000E-01  8.50000000E-01  9.60000000E-01  7.20000000E-01
  7.20000000E-01  7.20000000E-01  7.20000000E-01  7.20000000E-01  7.20000000E-01
  7.20000000E-01  7.20000000E-01  9.60000000E-01  7.20000000E-01  8.50000000E-01
  7.20000000E-01  7.20000000E-01  8.50000000E-01  7.20000000E-01  7.20000000E-01
  7.20000000E-01  8.50000000E-01  7.20000000E-01  8.50000000E-01  8.50000000E-01
  8.50000000E-01  7.20000000E-01  7.20000000E-01  7.20000000E-01  7.20000000E-01
  8.50000000E-01  7.20000000E-01  8.50000000E-01  7.20000000E-01  8.50000000E-01
  8.50000000E-01  7.20000000E-01  8.50000000E-01  8.50000000E-01  7.20000000E-01
  8.50000000E-01  8.50000000E-01  8.50000000E-01  7.20000000E-01  8.50000000E-01
  8.50000000E-01  7.20000000E-01  8.50000000E-01  8.50000000E-01  7.20000000E-01
  8.50000000E-01  8.50000000E-01  7.20000000E-01  8.50000000E-01  8.50000000E-01
  8.50000000E-01  8.50000000E-01  7.20000000E-01  7.20000000E-01  8.50000000E-01
  8.50000000E-01  8.50000000E-01  7.20000000E-01  8.50000000E-01  8.50000000E-01
  8.50000000E-01  8.50000000E-01  9.60000000E-01  7.20000000E-01  7.20000000E-01
  7.20000000E-01  7.20000000E-01  7.20000000E-01  7.20000000E-01  7.20000000E-01
  7.20000000E-01  9.60000000E-01  7.20000000E-01  8.50000000E-01  7.20000000E-01
  7.20000000E-01  8.50000000E-01  7.20000000E-01  7.20000000E-01  7.20000000E-01
  8.50000000E-01  7.20000000E-01  8.50000000E-01  8.50000000E-01  8.50000000E-01
  7.20000000E-01  7.20000000E-01  7.20000000E-01  7.20000000E-01  8.50000000E-01
  7.20000000E-01  8.50000000E-01  7.20000000E-01  8.50000000E-01  8.50000000E-01
  7.20000000E-01  8.50000000E-01  8.50000000E-01  7.20000000E-01  8.50000000E-01
  8.50000000E-01  8.50000000E-01  7.20000000E-01  8.50000000E-01  8.50000000E-01
  7.20000000E-01  8.50000000E-01  8.50000000E-01  7.20000000E-01  8.50000000E-01
  8.50000000E-01  7.20000000E-01  8.50000000E-01  8.50000000E-01  8.50000000E-01
  8.50000000E-01  7.20000000E-01  7.20000000E-01  8.50000000E-01  8.50000000E-01
  8.50000000E-01  7.20000000E-01  8.50000000E-01  8.50000000E-01  8.50000000E-01
  8.50000000E-01  9.60000000E-01  7.20000000E-01  7.20000000E-01  7.20000000E-01
  7.20000000E-01  7.20000000E-01  7.20000000E-01  7.20000000E-01  7.20000000E-01
  9.60000000E-01  7.20000000E-01  8.50000000E-01  7.20000000E-01  7.20000000E-01
  8.50000000E-01  7.20000000E-01  7.20000000E-01  7.20000000E-01  8.50000000E-01
  7.20000000E-01  8.50000000E-01  8.50000000E-01  8.50000000E-01  7.20000000E-01
  7.20000000E-01  7.20000000E-01  7.20000000E-01  8.50000000E-01  7.20000000E-01
  8.50000000E-01  7.20000000E-01  8.50000000E-01  8.50000000E-01  7.20000000E-01
  8.50000000E-01  8.50000000E-01  7.20000000E-01  8.50000000E-01  8.50000000E-01
  8.50000000E-01  7.20000000E-01  8.50000000E-01  8.50000000E-01  7.20000000E-01
  8.50000000E-01  8.50000000E-01  7.20000000E-01  8.50000000E-01  8.50000000E-01
  7.20000000E-01  8.50000000E-01  8.50000000E-01  8.50000000E-01  8.50000000E-01
  7.20000000E-01  7.20000000E-01  8.50000000E-01  8.50000000E-01  8.50000000E-01
  7.20000000E-01  8.50000000E-01  8.50000000E-01  8.50000000E-01  8.50000000E-01
  9.60000000E-01  7.20000000E-01  7.20000000E-01  7.20000000E-01  7.20000000E-01
  7.20000000E-01  7.20000000E-01  7.20000000E-01  7.20000000E-01  9.60000000E-01
  7.20000000E-01  8.50000000E-01  7.20000000E-01  7.20000000E-01  8.50000000E-01
  7.20000000E-01  7.20000000E-01  7.20000000E-01  8.50000000E-01  7.20000000E-01
  8.50000000E-01  8.50000000E-01  8.50000000E-01  7.20000000E-01  7.20000000E-01
  7.20000000E-01  7.20000000E-01  8.50000000E-01  7.20000000E-01  8.50000000E-01
  7.20000000E-01  8.50000000E-01  8.50000000E-01  7.20000000E-01  8.50000000E-01
  8.50000000E-01  7.20000000E-01  8.50000000E-01  8.50000000E-01  8.50000000E-01
  7.20000000E-01  8.50000000E-01  8.50000000E-01  7.20000000E-01  8.50000000E-01
  8.50000000E-01  7.20000000E-01  8.50000000E-01  8.50000000E-01  7.20000000E-01
  8.50000000E-01  8.50000000E-01  8.50000000E-01  8.50000000E-01  7.20000000E-01
  7.20000000E-01  8.50000000E-01  8.50000000E-01  8.50000000E-01  7.20000000E-01
  8.50000000E-01  8.50000000E-01  8.50000000E-01  8.50000000E-01  9.60000000E-01
  7.20000000E-01  7.20000000E-01  7.20000000E-01  7.20000000E-01  7.20000000E-01
  7.20000000E-01  7.20000000E-01  7.20000000E-01  9.60000000E-01  7.20000000E-01
  8.50000000E-01  7.20000000E-01  7.20000000E-01  8.50000000E-01  7.20000000E-01
  7.20000000E-01  7.20000000E-01  8.50000000E-01  7.20000000E-01  8.50000000E-01
  8.50000000E-01  8.50000000E-01  7.20000000E-01  7.20000000E-01  7.20000000E-01
  7.20000000E-01  8.50000000E-01  7.20000000E-01  8.50000000E-01  7.20000000E-01
  8.50000000E-01  8.50000000E-01  7.20000000E-01  8.50000000E-01  8.50000000E-01
  7.20000000E-01  8.50000000E-01  8.50000000E-01  8.50000000E-01  7.20000000E-01
  8.50000000E-01  8.50000000E-01  7.20000000E-01  8.50000000E-01  8.50000000E-01
  7.20000000E-01  8.50000000E-01  8.50000000E-01  7.20000000E-01  8.50000000E-01
  8.50000000E-01  8.50000000E-01  8.50000000E-01  7.20000000E-01  7.20000000E-01
  8.50000000E-01  8.50000000E-01  8.50000000E-01  7.20000000E-01  8.50000000E-01
  8.50000000E-01  8.50000000E-01  8.50000000E-01  9.60000000E-01  7.20000000E-01
  7.20000000E-01  7.20000000E-01  7.20000000E-01  7.20000000E-01  7.20000000E-01
  7.20000000E-01  7.20000000E-01  9.60000000E-01  7.20000000E-01  8.50000000E-01
  7.20000000E-01  7.20000000E-01  8.50000000E-01  7.20000000E-01  7.20000000E-01
  7.20000000E-01  8.50000000E-01  7.20000000E-01  8.50000000E-01  8.50000000E-01
  8.50000000E-01  7.20000000E-01  7.20000000E-01  7.20000000E-01  7.20000000E-01
  8.50000000E-01  7.20000000E-01  8.50000000E-01  7.20000000E-01  8.50000000E-01
  8.50000000E-01  7.20000000E-01  8.50000000E-01  8.50000000E-01  7.20000000E-01
  8.50000000E-01  8.50000000E-01  8.50000000E-01  7.20000000E-01  8.50000000E-01
  8.50000000E-01  7.20000000E-01  8.50000000E-01  8.50000000E-01  7.20000000E-01
  8.50000000E-01  8.50000000E-01  7.20000000E-01  8.50000000E-01  8.50000000E-01
  8.50000000E-01  8.50000000E-01  7.20000000E-01  7.20000000E-01  8.50000000E-01
  8.50000000E-01  8.50000000E-01  7.20000000E-01  8.50000000E-01  8.50000000E-01
  8.50000000E-01  8.50000000E-01  9.60000000E-01  7.20000000E-01  7.20000000E-01
  7.20000000E-01  7.20000000E-01  7.20000000E-01  7.20000000E-01  7.20000000E-01
  7.20000000E-01  9.60000000E-01  7.20000000E-01  8.50000000E-01  7.20000000E-01
  7.20000000E-01  8.50000000E-01  7.20000000E-01  7.20000000E-01  7.20000000E-01
  8.50000000E-01  7.20000000E-01  8.50000000E-01  8.50000000E-01  8.50000000E-01
  7.20000000E-01  7.20000000E-01  7.20000000E-01  7.20000000E-01  8.50000000E-01
  7.20000000E-01  8.50000000E-01  7.20000000E-01  8.50000000E-01  8.50000000E-01
  7.20000000E-01  8.50000000E-01  8.50000000E-01  7.20000000E-01  8.50000000E-01
  8.50000000E-01  8.50000000E-01  7.20000000E-01  8.50000000E-01  8.50000000E-01
  7.20000000E-01  8.50000000E-01  8.50000000E-01  7.20000000E-01  8.50000000E-01
  8.50000000E-01  7.20000000E-01  8.50000000E-01  8.50000000E-01  8.50000000E-01
  8.50000000E-01  7.20000000E-01  7.20000000E-01  8.50000000E-01  8.50000000E-01
  8.50000000E-01  7.20000000E-01  8.50000000E-01  8.50000000E-01  8.50000000E-01
  8.50000000E-01  9.60000000E-01  7.20000000E-01  7.20000000E-01  7.20000000E-01
  7.20000000E-01  7.20000000E-01  7.20000000E-01  7.20000000E-01  7.20000000E-01
  9.60000000E-01  7.20000000E-01  8.50000000E-01  7.20000000E-01  7.20000000E-01
  8.50000000E-01  7.20000000E-01  7.20000000E-01  7.20000000E-01  8.50000000E-01
  7.20000000E-01  8.50000000E-01  8.50000000E-01  8.50000000E-01  7.20000000E-01
  7.20000000E-01  7.20000000E-01  7.20000000E-01  8.50000000E-01  7.20000000E-01
  8.50000000E-01  7.20000000E-01  8.50000000E-01  8.50000000E-01  7.20000000E-01
  8.50000000E-01  8.50000000E-01  7.20000000E-01  8.50000000E-01  8.50000000E-01
  8.50000000E-01  7.20000000E-01  8.50000000E-01  8.50000000E-01  7.20000000E-01
  8.50000000E-01  8.50000000E-01  7.20000000E-01  8.50000000E-01  8.50000000E-01
  7.20000000E-01  8.50000000E-01  8.50000000E-01  8.50000000E-01  8.50000000E-01
  7.20000000E-01  7.20000000E-01  8.50000000E-01  8.50000000E-01  8.50000000E-01
  7.20000000E-01  8.50000000E-01  8.50000000E-01  8.50000000E-01  8.50000000E-01
  9.60000000E-01  7.20000000E-01  7.20000000E-01  7.20000000E-01  7.20000000E-01
  7.20000000E-01  7.20000000E-01  7.20000000E-01  7.20000000E-01  9.60000000E-01
  7.20000000E-01  8.50000000E-01  7.20000000E-01  7.20000000E-01  8.50000000E-01
  7.20000000E-01  7.20000000E-01  7.20000000E-01  8.50000000E-01  7.20000000E-01
  8.50000000E-01  8.50000000E-01  8.50000000E-01  7.20000000E-01  7.20000000E-01
  7.20000000E-01  7.20000000E-01  8.50000000E-01  7.20000000E-01  8.50000000E-01
  7.20000000E-01  8.50000000E-01  8.50000000E-01  7.20000000E-01  8.50000000E-01
  8.50000000E-01  7.20000000E-01  8.50000000E-01  8.50000000E-01  8.50000000E-01
  7.20000000E-01  8.50000000E-01  8.50000000E-01  7.20000000E-01  8.50000000E-01
  8.50000000E-01  7.20000000E-01  8.50000000E-01  8.50000000E-01  7.20000000E-01
  8.50000000E-01  8.50000000E-01  8.50000000E-01  8.50000000E-01  7.20000000E-01
  7.20000000E-01  8.50000000E-01  8.50000000E-01  8.50000000E-01  7.20000000E-01
  8.50000000E-01  8.50000000E-01  8.50000000E-01  8.50000000E-01  9.60000000E-01
  7.20000000E-01  7.20000000E-01  7.20000000E-01  7.20000000E-01  7.20000000E-01
  7.20000000E-01  7.20000000E-01  7.20000000E-01  9.60000000E-01  7.20000000E-01
  8.50000000E-01  7.20000000E-01  7.20000000E-01  8.50000000E-01  7.20000000E-01
  7.20000000E-01  7.20000000E-01  8.50000000E-01  7.20000000E-01  8.50000000E-01
  8.50000000E-01  8.50000000E-01  7.20000000E-01  7.20000000E-01  7.20000000E-01
  7.20000000E-01  8.50000000E-01  7.20000000E-01  8.50000000E-01  7.20000000E-01
  8.50000000E-01  8.50000000E-01  7.20000000E-01  8.50000000E-01  8.50000000E-01
  7.20000000E-01  8.50000000E-01  8.50000000E-01  8.50000000E-01  7.20000000E-01
  8.50000000E-01  8.50000000E-01  7.20000000E-01  8.50000000E-01  8.50000000E-01
  7.20000000E-01  8.50000000E-01  8.50000000E-01  7.20000000E-01  8.50000000E-01
  8.50000000E-01  8.50000000E-01  8.50000000E-01  7.20000000E-01  7.20000000E-01
  8.50000000E-01  8.50000000E-01  8.50000000E-01  7.20000000E-01  8.50000000E-01
  8.50000000E-01  8.50000000E-01  8.50000000E-01  9.60000000E-01  7.20000000E-01
  7.20000000E-01  7.20000000E-01  7.20000000E-01  7.20000000E-01  7.20000000E-01
  7.20000000E-01  7.20000000E-01  9.60000000E-01  7.20000000E-01  8.50000000E-01
  7.20000000E-01  7.20000000E-01  8.50000000E-01  7.20000000E-01  7.20000000E-01
  7.20000000E-01  8.50000000E-01  7.20000000E-01  8.50000000E-01  8.50000000E-01
  8.50000000E-01  7.20000000E-01  7.20000000E-01  7.20000000E-01  7.20000000E-01
  8.50000000E-01  7.20000000E-01  8.50000000E-01  7.20000000E-01  8.50000000E-01
  8.50000000E-01  7.20000000E-01  8.50000000E-01  8.50000000E-01  7.20000000E-01
  8.50000000E-01  8.50000000E-01  8.50000000E-01  7.20000000E-01  8.50000000E-01
  8.50000000E-01  7.20000000E-01  8.50000000E-01  8.50000000E-01  7.20000000E-01
  8.50000000E-01  8.50000000E-01  7.20000000E-01  8.50000000E-01  8.50000000E-01
  8.50000000E-01  8.50000000E-01  7.20000000E-01  7.20000000E-01  8.50000000E-01
  8.50000000E-01  8.50000000E-01  7.20000000E-01  8.50000000E-01  8.50000000E-01
  8.50000000E-01  8.50000000E-01  9.60000000E-01  7.20000000E-01  7.20000000E-01
  7.20000000E-01  7.20000000E-01  7.20000000E-01  7.20000000E-01  7.20000000E-01
  7.20000000E-01  9.60000000E-01  7.20000000E-01  8.50000000E-01  7.20000000E-01
  7.20000000E-01  8.50000000E-01  7.20000000E-01  7.20000000E-01  7.20000000E-01
  8.50000000E-01  7.20000000E-01  8.50000000E-01  8.50000000E-01  8.50000000E-01
  7.20000000E-01  7.20000000E-01  7.20000000E-01  7.20000000E-01  8.50000000E-01
  7.20000000E-01  8.50000000E-01  7.20000000E-01  8.50000000E-01  8.50000000E-01
  7.20000000E-01  8.50000000E-01  8.50000000E-01  7.20000000E-01  8.50000000E-01
  8.50000000E-01  8.50000000E-01  7.20000000E-01  8.50000000E-01  8.50000000E-01
  7.20000000E-01  8.50000000E-01  8.50000000E-01  7.20000000E-01  8.50000000E-01
  8.50000000E-01  7.20000000E-01  8.50000000E-01  8.50000000E-01  8.50000000E-01
  8.50000000E-01  7.20000000E-01  7.20000000E-01  8.50000000E-01  8.50000000E-01
  8.50000000E-01  7.20000000E-01  8.50000000E-01  8.50000000E-01  8.50000000E-01
  8.50000000E-01  9.60000000E-01  7.20000000E-01  7.20000000E-01  7.20000000E-01
  7.20000000E-01  7.20000000E-01  7.20000000E-01  7.20000000E-01  7.20000000E-01
  9.60000000E-01  7.20000000E-01  8.50000000E-01  7.20000000E-01  7.20000000E-01
  8.50000000E-01  7.20000000E-01  7.20000000E-01  7.20000000E-01  8.50000000E-01
  7.20000000E-01  8.50000000E-01  8.50000000E-01  8.50000000E-01  7.20000000E-01
  7.20000000E-01  7.20000000E-01  7.20000000E-01  8.50000000E-01  7.20000000E-01
  8.50000000E-01  7.20000000E-01  8.50000000E-01  8.50000000E-01  7.20000000E-01
  8.50000000E-01  8.50000000E-01  7.20000000E-01  8.50000000E-01  8.50000000E-01
  8.50000000E-01  7.20000000E-01  8.50000000E-01  8.50000000E-01  7.20000000E-01
  8.50000000E-01  8.50000000E-01  7.20000000E-01  8.50000000E-01  8.50000000E-01
  7.20000000E-01  8.50000000E-01  8.50000000E-01  8.50000000E-01  8.50000000E-01
  7.20000000E-01  7.20000000E-01  8.50000000E-01  8.50000000E-01  8.50000000E-01
  7.20000000E-01  8.50000000E-01  8.50000000E-01  8.50000000E-01  8.50000000E-01
  9.60000000E-01  7.20000000E-01  7.20000000E-01  7.20000000E-01  7.20000000E-01
  7.20000000E-01  7.20000000E-01  7.20000000E-01  7.20000000E-01  9.60000000E-01
  7.20000000E-01  8.50000000E-01  7.20000000E-01  7.20000000E-01  8.50000000E-01
  7.20000000E-01  7.20000000E-01  7.20000000E-01  8.50000000E-01  7.20000000E-01
  8.50000000E-01  8.50000000E-01  8.50000000E-01  7.20000000E-01  7.20000000E-01
  7.20000000E-01  7.20000000E-01  8.50000000E-01  7.20000000E-01  8.50000000E-01
  7.20000000E-01  8.50000000E-01  8.50000000E-01  7.20000000E-01  8.50000000E-01
  8.50000000E-01  7.20000000E-01  8.50000000E-01  8.50000000E-01  8.50000000E-01
  7.20000000E-01  8.50000000E-01  8.50000000E-01  7.20000000E-01  8.50000000E-01
  8.50000000E-01  7.20000000E-01  8.50000000E-01  8.50000000E-01  7.20000000E-01
  8.50000000E-01  8.50000000E-01  8.50000000E-01  8.50000000E-01  7.20000000E-01
  7.20000000E-01  8.50000000E-01  8.50000000E-01  8.50000000E-01  7.20000000E-01
  8.50000000E-01  8.50000000E-01  8.50000000E-01  8.50000000E-01  9.60000000E-01
  7.20000000E-01  7.20000000E-01  7.20000000E-01  7.20000000E-01  7.20000000E-01
  7.20000000E-01  7.20000000E-01  7.20000000E-01  9.60000000E-01  7.20000000E-01
  8.50000000E-01  7.20000000E-01  7.20000000E-01  8.50000000E-01  7.20000000E-01
  7.20000000E-01  7.20000000E-01  8.50000000E-01  7.20000000E-01  8.50000000E-01
  8.50000000E-01  8.50000000E-01  7.20000000E-01  7.20000000E-01  7.20000000E-01
  7.20000000E-01  8.50000000E-01  7.20000000E-01  8.50000000E-01  7.20000000E-01
  8.50000000E-01  8.50000000E-01  7.20000000E-01  8.50000000E-01  8.50000000E-01
  7.20000000E-01  8.50000000E-01  8.50000000E-01  8.50000000E-01  7.20000000E-01
  8.50000000E-01  8.50000000E-01  7.20000000E-01  8.50000000E-01  8.50000000E-01
  7.20000000E-01  8.50000000E-01  8.50000000E-01  7.20000000E-01  8.50000000E-01
  8.50000000E-01  8.50000000E-01  8.50000000E-01  7.20000000E-01  7.20000000E-01
  8.50000000E-01  8.50000000E-01  8.50000000E-01  7.20000000E-01  8.50000000E-01
  8.50000000E-01  8.50000000E-01  8.50000000E-01  9.60000000E-01  7.20000000E-01
  7.20000000E-01  7.20000000E-01  7.20000000E-01  7.20000000E-01  7.20000000E-01
  7.20000000E-01  7.20000000E-01  9.60000000E-01  7.20000000E-01  8.50000000E-01
  7.20000000E-01  7.20000000E-01  8.50000000E-01  7.20000000E-01  7.20000000E-01
  7.20000000E-01  8.50000000E-01  7.20000000E-01  8.50000000E-01  8.50000000E-01
  8.50000000E-01  7.20000000E-01  7.20000000E-01  7.20000000E-01  7.20000000E-01
  8.50000000E-01  7.20000000E-01  8.50000000E-01  7.20000000E-01  8.50000000E-01
  8.50000000E-01  7.20000000E-01  8.50000000E-01  8.50000000E-01  7.20000000E-01
  8.50000000E-01  8.50000000E-01  8.50000000E-01  7.20000000E-01  8.50000000E-01
  8.50000000E-01  7.20000000E-01  8.50000000E-01  8.50000000E-01  7.20000000E-01
  8.50000000E-01  8.50000000E-01  7.20000000E-01  8.50000000E-01  8.50000000E-01
  8.50000000E-01  8.50000000E-01  7.20000000E-01  7.20000000E-01  8.50000000E-01
  8.50000000E-01  8.50000000E-01  7.20000000E-01  8.50000000E-01  8.50000000E-01
  8.50000000E-01  8.50000000E-01  9.60000000E-01  7.20000000E-01  7.20000000E-01
  7.20000000E-01  7.20000000E-01  7.20000000E-01  7.20000000E-01  7.20000000E-01
  7.20000000E-01  9.60000000E-01  7.20000000E-01  8.50000000E-01  7.20000000E-01
  7.20000000E-01  8.50000000E-01  7.20000000E-01  7.20000000E-01  7.20000000E-01
  8.50000000E-01  7.20000000E-01  8.50000000E-01  8.50000000E-01  8.50000000E-01
  7.20000000E-01  7.20000000E-01  7.20000000E-01  7.20000000E-01  8.50000000E-01
  7.20000000E-01  8.50000000E-01  7.20000000E-01  8.50000000E-01  8.50000000E-01
  7.20000000E-01  8.50000000E-01  8.50000000E-01  7.20000000E-01  8.50000000E-01
  8.50000000E-01  8.50000000E-01  7.20000000E-01  8.50000000E-01  8.50000000E-01
  7.20000000E-01  8.50000000E-01  8.50000000E-01  7.20000000E-01  8.50000000E-01
  8.50000000E-01  7.20000000E-01  8.50000000E-01  8.50000000E-01  8.50000000E-01
  8.50000000E-01  7.20000000E-01  7.20000000E-01  8.50000000E-01  8.50000000E-01
  8.50000000E-01  7.20000000E-01  8.50000000E-01  8.50000000E-01  8.50000000E-01
  8.50000000E-01  9.60000000E-01  7.20000000E-01  7.20000000E-01  7.20000000E-01
  7.20000000E-01  7.20000000E-01  7.20000000E-01  7.20000000E-01  7.20000000E-01
  9.60000000E-01  7.20000000E-01  8.50000000E-01  7.20000000E-01  7.20000000E-01
  8.50000000E-01  7.20000000E-01  7.20000000E-01  7.20000000E-01  8.50000000E-01
  7.20000000E-01  8.50000000E-01  8.50000000E-01  8.50000000E-01  7.20000000E-01
  7.20000000E-01  7.20000000E-01  7.20000000E-01  8.50000000E-01  7.20000000E-01
  8.50000000E-01  7.20000000E-01  8.50000000E-01  8.50000000E-01  7.20000000E-01
  8.50000000E-01  8.50000000E-01  7.20000000E-01  8.50000000E-01  8.50000000E-01
  8.50000000E-01  7.20000000E-01  8.50000000E-01  8.50000000E-01  7.20000000E-01
  8.50000000E-01  8.50000000E-01  7.20000000E-01  8.50000000E-01  8.50000000E-01
  7.20000000E-01  8.50000000E-01  8.50000000E-01  8.50000000E-01  8.50000000E-01
  7.20000000E-01  7.20000000E-01  8.50000000E-01  8.50000000E-01  8.50000000E-01
  7.20000000E-01  8.50000000E-01  8.50000000E-01  8.50000000E-01  8.50000000E-01
  9.60000000E-01  7.20000000E-01  7.20000000E-01  7.20000000E-01  7.20000000E-01
  7.20000000E-01  7.20000000E-01  7.20000000E-01  7.20000000E-01  9.60000000E-01
  7.20000000E-01  8.50000000E-01  7.20000000E-01  7.20000000E-01  8.50000000E-01
  7.20000000E-01  7.20000000E-01  7.20000000E-01  8.50000000E-01  7.20000000E-01
  8.50000000E-01  8.50000000E-01  8.50000000E-01  7.20000000E-01  7.20000000E-01
  7.20000000E-01  7.20000000E-01  8.50000000E-01  7.20000000E-01  8.50000000E-01
  7.20000000E-01  8.50000000E-01  8.50000000E-01  7.20000000E-01  8.50000000E-01
  8.50000000E-01  7.20000000E-01  8.50000000E-01  8.50000000E-01  8.50000000E-01
  7.20000000E-01  8.50000000E-01  8.50000000E-01  7.20000000E-01  8.50000000E-01
  8.50000000E-01  7.20000000E-01  8.50000000E-01  8.50000000E-01  7.20000000E-01
  8.50000000E-01  8.50000000E-01  8.50000000E-01  8.50000000E-01  7.20000000E-01
  7.20000000E-01  8.50000000E-01  8.50000000E-01  8.50000000E-01  7.20000000E-01
  8.50000000E-01  8.50000000E-01  8.50000000E-01  8.50000000E-01  9.60000000E-01
  7.20000000E-01  7.20000000E-01  7.20000000E-01  7.20000000E-01  7.20000000E-01
  7.20000000E-01  7.20000000E-01  7.20000000E-01  9.60000000E-01  7.20000000E-01
  8.50000000E-01  7.20000000E-01  7.20000000E-01  8.50000000E-01  7.20000000E-01
  7.20000000E-01  7.20000000E-01  8.50000000E-01  7.20000000E-01  8.50000000E-01
  8.50000000E-01  8.50000000E-01  7.20000000E-01  7.20000000E-01  7.20000000E-01
  7.20000000E-01  8.50000000E-01  7.20000000E-01  8.50000000E-01  7.20000000E-01
  8.50000000E-01  8.50000000E-01  7.20000000E-01  8.50000000E-01  8.50000000E-01
  7.20000000E-01  8.50000000E-01  8.50000000E-01  8.50000000E-01  7.20000000E-01
  8.50000000E-01  8.50000000E-01  7.20000000E-01  8.50000000E-01  8.50000000E-01
  7.20000000E-01  8.50000000E-01  8.50000000E-01  7.20000000E-01  8.50000000E-01
  8.50000000E-01  8.50000000E-01  8.50000000E-01  7.20000000E-01  7.20000000E-01
  8.50000000E-01  8.50000000E-01  8.50000000E-01  7.20000000E-01  8.50000000E-01
  8.50000000E-01  8.50000000E-01  8.50000000E-01  9.60000000E-01  7.20000000E-01
  7.20000000E-01  7.20000000E-01  7.20000000E-01  7.20000000E-01  7.20000000E-01
  7.20000000E-01  7.20000000E-01  9.60000000E-01  7.20000000E-01  8.50000000E-01
  7.20000000E-01  7.20000000E-01  8.50000000E-01  7.20000000E-01  7.20000000E-01
  7.20000000E-01  8.50000000E-01  7.20000000E-01  8.50000000E-01  8.50000000E-01
  8.50000000E-01  7.20000000E-01  7.20000000E-01  7.20000000E-01  7.20000000E-01
  8.50000000E-01  7.20000000E-01  8.50000000E-01  7.20000000E-01  8.50000000E-01
  8.50000000E-01  7.20000000E-01  8.50000000E-01  8.50000000E-01  7.20000000E-01
  8.50000000E-01  8.50000000E-01  8.50000000E-01  7.20000000E-01  8.50000000E-01
  8.50000000E-01  7.20000000E-01  8.50000000E-01  8.50000000E-01  7.20000000E-01
  8.50000000E-01  8.50000000E-01  7.20000000E-01  8.50000000E-01  8.50000000E-01
  8.50000000E-01  8.50000000E-01  7.20000000E-01  7.20000000E-01  8.50000000E-01
  8.50000000E-01  8.50000000E-01  7.20000000E-01  8.50000000E-01  8.50000000E-01
  8.50000000E-01  8.50000000E-01  9.60000000E-01  7.20000000E-01  7.20000000E-01
  7.20000000E-01  7.20000000E-01  7.20000000E-01  7.20000000E-01  7.20000000E-01
  7.20000000E-01  9.60000000E-01  7.20000000E-01  8.50000000E-01  7.20000000E-01
  7.20000000E-01  8.50000000E-01  7.20000000E-01  7.20000000E-01  7.20000000E-01
  8.50000000E-01  7.20000000E-01  8.50000000E-01  8.50000000E-01  8.50000000E-01
  7.20000000E-01  7.20000000E-01  7.20000000E-01  7.20000000E-01  8.50000000E-01
  7.20000000E-01  8.50000000E-01  7.20000000E-01  8.50000000E-01  8.50000000E-01
  7.20000000E-01  8.50000000E-01  8.50000000E-01  7.20000000E-01  8.50000000E-01
  8.50000000E-01  8.50000000E-01  7.20000000E-01  8.50000000E-01  8.50000000E-01
  7.20000000E-01  8.50000000E-01  8.50000000E-01  7.20000000E-01  8.50000000E-01
  8.50000000E-01  7.20000000E-01  8.50000000E-01  8.50000000E-01  8.50000000E-01
  8.50000000E-01  7.20000000E-01  7.20000000E-01  8.50000000E-01  8.50000000E-01
  8.50000000E-01  7.20000000E-01  8.50000000E-01  8.50000000E-01  8.50000000E-01
  8.50000000E-01  9.60000000E-01  7.20000000E-01  7.20000000E-01  7.20000000E-01
  7.20000000E-01  7.20000000E-01  7.20000000E-01  7.20000000E-01  7.20000000E-01
  9.60000000E-01  7.20000000E-01  8.50000000E-01  7.20000000E-01  7.20000000E-01
  8.50000000E-01  7.20000000E-01  7.20000000E-01  7.20000000E-01  8.50000000E-01
  7.20000000E-01  8.50000000E-01  8.50000000E-01  8.50000000E-01  7.20000000E-01
  7.20000000E-01  7.20000000E-01  7.20000000E-01  8.50000000E-01  7.20000000E-01
  8.50000000E-01  7.20000000E-01  8.50000000E-01  8.50000000E-01  7.20000000E-01
  8.50000000E-01  8.50000000E-01  7.20000000E-01  8.50000000E-01  8.50000000E-01
  8.50000000E-01  7.20000000E-01  8.50000000E-01  8.50000000E-01  7.20000000E-01
  8.50000000E-01  8.50000000E-01  7.20000000E-01  8.50000000E-01  8.50000000E-01
  7.20000000E-01  8.50000000E-01  8.50000000E-01  8.50000000E-01  8.50000000E-01
  7.20000000E-01  7.20000000E-01  8.50000000E-01  8.50000000E-01  8.50000000E-01
  7.20000000E-01  8.50000000E-01  8.50000000E-01  8.50000000E-01  8.50000000E-01
  9.60000000E-01  7.20000000E-01  7.20000000E-01  7.20000000E-01  7.20000000E-01
  7.20000000E-01  7.20000000E-01  7.20000000E-01  7.20000000E-01  9.60000000E-01
  7.20000000E-01  8.50000000E-01  7.20000000E-01  7.20000000E-01  8.50000000E-01
  7.20000000E-01  7.20000000E-01  7.20000000E-01  8.50000000E-01  7.20000000E-01
  8.50000000E-01  8.50000000E-01  8.50000000E-01  7.20000000E-01  7.20000000E-01
  7.20000000E-01  7.20000000E-01  8.50000000E-01  7.20000000E-01  8.50000000E-01
  7.20000000E-01  8.50000000E-01  8.50000000E-01  7.20000000E-01  8.50000000E-01
  8.50000000E-01  7.20000000E-01  8.50000000E-01  8.50000000E-01  8.50000000E-01
  7.20000000E-01  8.50000000E-01  8.50000000E-01  7.20000000E-01  8.50000000E-01
  8.50000000E-01  7.20000000E-01  8.50000000E-01  8.50000000E-01  7.20000000E-01
  8.50000000E-01  8.50000000E-01  8.50000000E-01  8.50000000E-01  7.20000000E-01
  7.20000000E-01  8.50000000E-01  8.50000000E-01  8.50000000E-01  7.20000000E-01
  8.50000000E-01  8.50000000E-01  8.50000000E-01  8.50000000E-01  9.60000000E-01
  7.20000000E-01  7.20000000E-01  7.20000000E-01  7.20000000E-01  7.20000000E-01
  7.20000000E-01  7.20000000E-01  7.20000000E-01  9.60000000E-01  7.20000000E-01
  8.50000000E-01  7.20000000E-01  7.20000000E-01  8.50000000E-01  7.20000000E-01
  7.20000000E-01  7.20000000E-01  8.50000000E-01  7.20000000E-01  8.50000000E-01
  8.50000000E-01  8.50000000E-01  7.20000000E-01  7.20000000E-01  7.20000000E-01
  7.20000000E-01  8.50000000E-01  7.20000000E-01  8.50000000E-01  7.20000000E-01
  8.50000000E-01  8.50000000E-01  7.20000000E-01  8.50000000E-01  8.50000000E-01
  7.20000000E-01  8.50000000E-01  8.50000000E-01  8.50000000E-01  7.20000000E-01
  8.50000000E-01  8.50000000E-01  7.20000000E-01  8.50000000E-01  8.50000000E-01
  7.20000000E-01  8.50000000E-01  8.50000000E-01  7.20000000E-01  8.50000000E-01
  8.50000000E-01  8.50000000E-01  8.50000000E-01  7.20000000E-01  7.20000000E-01
  8.50000000E-01  8.50000000E-01  8.50000000E-01  7.20000000E-01  8.50000000E-01
  8.50000000E-01  8.50000000E-01  8.50000000E-01  9.60000000E-01  7.20000000E-01
  7.20000000E-01  7.20000000E-01  7.20000000E-01  7.20000000E-01  7.20000000E-01
  7.20000000E-01  7.20000000E-01  9.60000000E-01  7.20000000E-01  8.50000000E-01
  7.20000000E-01  7.20000000E-01  8.50000000E-01  7.20000000E-01  7.20000000E-01
  7.20000000E-01  8.50000000E-01  7.20000000E-01  8.50000000E-01  8.50000000E-01
  8.50000000E-01  7.20000000E-01  7.20000000E-01  7.20000000E-01  7.20000000E-01
  8.50000000E-01  7.20000000E-01  8.50000000E-01  7.20000000E-01  8.50000000E-01
  8.50000000E-01  7.20000000E-01  8.50000000E-01  8.50000000E-01  7.20000000E-01
  8.50000000E-01  8.50000000E-01  8.50000000E-01  7.20000000E-01  8.50000000E-01
  8.50000000E-01  7.20000000E-01  8.50000000E-01  8.50000000E-01  7.20000000E-01
  8.50000000E-01  8.50000000E-01  7.20000000E-01  8.50000000E-01  8.50000000E-01
  8.50000000E-01  8.50000000E-01  7.20000000E-01  7.20000000E-01  8.50000000E-01
  8.50000000E-01  8.50000000E-01  7.20000000E-01  8.50000000E-01  8.50000000E-01
  8.50000000E-01  8.50000000E-01  9.60000000E-01  7.20000000E-01  7.20000000E-01
  7.20000000E-01  7.20000000E-01  7.20000000E-01  7.20000000E-01  7.20000000E-01
  7.20000000E-01  9.60000000E-01  7.20000000E-01  8.50000000E-01  7.20000000E-01
  7.20000000E-01  8.50000000E-01  7.20000000E-01  7.20000000E-01  7.20000000E-01
  8.50000000E-01  7.20000000E-01  8.50000000E-01  8.50000000E-01  8.50000000E-01
  7.20000000E-01  7.20000000E-01  7.20000000E-01  7.20000000E-01  8.50000000E-01
  7.20000000E-01  8.50000000E-01  7.20000000E-01  8.50000000E-01  8.50000000E-01
  7.20000000E-01  8.50000000E-01  8.50000000E-01  7.20000000E-01  8.50000000E-01
  8.50000000E-01  8.50000000E-01  7.20000000E-01  8.50000000E-01  8.50000000E-01
  7.20000000E-01  8.50000000E-01  8.50000000E-01  7.20000000E-01  8.50000000E-01
  8.50000000E-01  7.20000000E-01  8.50000000E-01  8.50000000E-01  8.50000000E-01
  8.50000000E-01  7.20000000E-01  7.20000000E-01  8.50000000E-01  8.50000000E-01
  8.50000000E-01  7.20000000E-01  8.50000000E-01  8.50000000E-01  8.50000000E-01
  8.50000000E-01  9.60000000E-01  7.20000000E-01  7.20000000E-01  7.20000000E-01
  7.20000000E-01  7.20000000E-01  7.20000000E-01  7.20000000E-01  7.20000000E-01
  9.60000000E-01  7.20000000E-01  8.50000000E-01  7.20000000E-01  7.20000000E-01
  8.50000000E-01  7.20000000E-01  7.20000000E-01  7.20000000E-01  8.50000000E-01
  7.20000000E-01  8.50000000E-01  8.50000000E-01  8.50000000E-01  7.20000000E-01
  7.20000000E-01  7.20000000E-01  7.20000000E-01  8.50000000E-01  7.20000000E-01
  8.50000000E-01  7.20000000E-01  8.50000000E-01  8.50000000E-01  7.20000000E-01
  8.50000000E-01  8.50000000E-01  7.20000000E-01  8.50000000E-01  8.50000000E-01
  8.50000000E-01  7.20000000E-01  8.50000000E-01  8.50000000E-01  7.20000000E-01
  8.50000000E-01  8.50000000E-01  7.20000000E-01  8.50000000E-01  8.50000000E-01
  7.20000000E-01  8.50000000E-01  8.50000000E-01  8.50000000E-01  8.50000000E-01
  7.20000000E-01  7.20000000E-01  8.50000000E-01  8.50000000E-01  8.50000000E-01
  7.20000000E-01  8.50000000E-01  8.50000000E-01  8.50000000E-01  8.50000000E-01
  9.60000000E-01  7.20000000E-01  7.20000000E-01  7.20000000E-01  7.20000000E-01
  7.20000000E-01  7.20000000E-01  7.20000000E-01  7.20000000E-01  9.60000000E-01
  7.20000000E-01  8.50000000E-01  7.20000000E-01  7.20000000E-01  8.50000000E-01
  7.20000000E-01  7.20000000E-01  7.20000000E-01  8.50000000E-01  7.20000000E-01
  8.50000000E-01  8.50000000E-01  8.50000000E-01  7.20000000E-01  7.20000000E-01
  7.20000000E-01  7.20000000E-01  8.50000000E-01  7.20000000E-01  8.50000000E-01
  7.20000000E-01  8.50000000E-01  8.50000000E-01  7.20000000E-01  8.50000000E-01
  8.50000000E-01  7.20000000E-01  8.50000000E-01  8.50000000E-01  8.50000000E-01
  7.20000000E-01  8.50000000E-01  8.50000000E-01  7.20000000E-01  8.50000000E-01
  8.50000000E-01  7.20000000E-01  8.50000000E-01  8.50000000E-01  7.20000000E-01
  8.50000000E-01  8.50000000E-01  8.50000000E-01  8.50000000E-01  7.20000000E-01
  7.20000000E-01  8.50000000E-01  8.50000000E-01  8.50000000E-01  7.20000000E-01
  8.50000000E-01  8.50000000E-01  8.50000000E-01  8.50000000E-01  9.60000000E-01
  7.20000000E-01  7.20000000E-01  7.20000000E-01  7.20000000E-01  7.20000000E-01
  7.20000000E-01  7.20000000E-01  7.20000000E-01  9.60000000E-01  7.20000000E-01
  8.50000000E-01  7.20000000E-01  7.20000000E-01  8.50000000E-01  7.20000000E-01
  7.20000000E-01  7.20000000E-01  8.50000000E-01  7.20000000E-01  8.50000000E-01
  8.50000000E-01  8.50000000E-01  7.20000000E-01  7.20000000E-01  7.20000000E-01
  7.20000000E-01  8.50000000E-01  7.20000000E-01  8.50000000E-01  7.20000000E-01
  8.50000000E-01  8.50000000E-01  7.20000000E-01  8.50000000E-01  8.50000000E-01
  7.20000000E-01  8.50000000E-01  8.50000000E-01  8.50000000E-01  7.20000000E-01
  8.50000000E-01  8.50000000E-01  7.20000000E-01  8.50000000E-01  8.50000000E-01
  7.20000000E-01  8.50000000E-01  8.50000000E-01  7.20000000E-01  8.50000000E-01
  8.50000000E-01  8.50000000E-01  8.50000000E-01  7.20000000E-01  7.20000000E-01
  8.50000000E-01  8.50000000E-01  8.50000000E-01  7.20000000E-01  8.50000000E-01
  8.50000000E-01  8.50000000E-01  8.50000000E-01  9.60000000E-01  7.20000000E-01
  7.20000000E-01  7.20000000E-01  7.20000000E-01  7.20000000E-01  7.20000000E-01
  7.20000000E-01  7.20000000E-01  9.60000000E-01  7.20000000E-01  8.50000000E-01
  7.20000000E-01  7.20000000E-01  8.50000000E-01  7.20000000E-01  7.20000000E-01
  7.20000000E-01  8.50000000E-01  7.20000000E-01  8.50000000E-01  8.50000000E-01
  8.50000000E-01  7.20000000E-01  7.20000000E-01  7.20000000E-01  7.20000000E-01
  8.50000000E-01  7.20000000E-01  8.50000000E-01  7.20000000E-01  8.50000000E-01
  8.50000000E-01  7.20000000E-01  8.50000000E-01  8.50000000E-01  7.20000000E-01
  8.50000000E-01  8.50000000E-01  8.50000000E-01  7.20000000E-01  8.50000000E-01
  8.50000000E-01  7.20000000E-01  8.50000000E-01  8.50000000E-01  7.20000000E-01
  8.50000000E-01  8.50000000E-01  7.20000000E-01  8.50000000E-01  8.50000000E-01
  8.50000000E-01  8.50000000E-01  7.20000000E-01  7.20000000E-01  8.50000000E-01
  8.50000000E-01  8.50000000E-01  7.20000000E-01  8.50000000E-01  8.50000000E-01
  8.50000000E-01  8.50000000E-01  9.60000000E-01  7.20000000E-01  7.20000000E-01
  7.20000000E-01  7.20000000E-01  7.20000000E-01  7.20000000E-01  7.20000000E-01
  7.20000000E-01  9.60000000E-01  7.20000000E-01  8.50000000E-01  7.20000000E-01
  7.20000000E-01  8.50000000E-01  7.20000000E-01  7.20000000E-01  7.20000000E-01
  8.50000000E-01  7.20000000E-01  8.50000000E-01  8.50000000E-01  8.50000000E-01
  7.20000000E-01  7.20000000E-01  7.20000000E-01  7.20000000E-01  8.50000000E-01
  7.20000000E-01  8.50000000E-01  7.20000000E-01  8.50000000E-01  8.50000000E-01
  7.20000000E-01  8.50000000E-01  8.50000000E-01  7.20000000E-01  8.50000000E-01
  8.50000000E-01  8.50000000E-01  7.20000000E-01  8.50000000E-01  8.50000000E-01
  7.20000000E-01  8.50000000E-01  8.50000000E-01  7.20000000E-01  8.50000000E-01
  8.50000000E-01  7.20000000E-01  8.50000000E-01  8.50000000E-01  8.50000000E-01
  8.50000000E-01  7.20000000E-01  7.20000000E-01  8.50000000E-01  8.50000000E-01
  8.50000000E-01  7.20000000E-01  8.50000000E-01  8.50000000E-01  8.50000000E-01
  8.50000000E-01  9.60000000E-01  7.20000000E-01  7.20000000E-01  7.20000000E-01
  7.20000000E-01  7.20000000E-01  7.20000000E-01  7.20000000E-01  7.20000000E-01
  9.60000000E-01  7.20000000E-01  8.50000000E-01  7.20000000E-01  7.20000000E-01
  8.50000000E-01  7.20000000E-01  7.20000000E-01  7.20000000E-01  8.50000000E-01
  7.20000000E-01  8.50000000E-01  8.50000000E-01  8.50000000E-01  7.20000000E-01
  7.20000000E-01  7.20000000E-01  7.20000000E-01  8.50000000E-01  7.20000000E-01
  8.50000000E-01  7.20000000E-01  8.50000000E-01  8.50000000E-01  7.20000000E-01
  8.50000000E-01  8.50000000E-01  7.20000000E-01  8.50000000E-01  8.50000000E-01
  8.50000000E-01  7.20000000E-01  8.50000000E-01  8.50000000E-01  7.20000000E-01
  8.50000000E-01  8.50000000E-01  7.20000000E-01  8.50000000E-01  8.50000000E-01
  7.20000000E-01  8.50000000E-01  8.50000000E-01  8.50000000E-01  8.50000000E-01
  7.20000000E-01  7.20000000E-01  8.50000000E-01  8.50000000E-01  8.50000000E-01
  7.20000000E-01  8.50000000E-01  8.50000000E-01  8.50000000E-01  8.50000000E-01
  9.60000000E-01  7.20000000E-01  7.20000000E-01  7.20000000E-01  7.20000000E-01
  7.20000000E-01  7.20000000E-01  7.20000000E-01  7.20000000E-01  9.60000000E-01
  7.20000000E-01  8.50000000E-01  7.20000000E-01  7.20000000E-01  8.50000000E-01
  7.20000000E-01  7.20000000E-01  7.20000000E-01  8.50000000E-01  7.20000000E-01
  8.50000000E-01  8.50000000E-01  8.50000000E-01  7.20000000E-01  7.20000000E-01
  7.20000000E-01  7.20000000E-01  8.50000000E-01  7.20000000E-01  8.50000000E-01
  7.20000000E-01  8.50000000E-01  8.50000000E-01  7.20000000E-01  8.50000000E-01
  8.50000000E-01  7.20000000E-01  8.50000000E-01  8.50000000E-01  8.50000000E-01
  7.20000000E-01  8.50000000E-01  8.50000000E-01  7.20000000E-01  8.50000000E-01
  8.50000000E-01  7.20000000E-01  8.50000000E-01  8.50000000E-01  7.20000000E-01
  8.50000000E-01  8.50000000E-01  8.50000000E-01  8.50000000E-01  7.20000000E-01
  7.20000000E-01  8.50000000E-01  8.50000000E-01  8.50000000E-01  7.20000000E-01
  8.50000000E-01  8.50000000E-01  8.50000000E-01  8.50000000E-01  9.60000000E-01
  7.20000000E-01  7.20000000E-01  7.20000000E-01  7.20000000E-01  7.20000000E-01
  7.20000000E-01  7.20000000E-01  7.20000000E-01  9.60000000E-01  7.20000000E-01
  8.50000000E-01  7.20000000E-01  7.20000000E-01  8.50000000E-01  7.20000000E-01
  7.20000000E-01  7.20000000E-01  8.50000000E-01  7.20000000E-01  8.50000000E-01
  8.50000000E-01  8.50000000E-01  7.20000000E-01  7.20000000E-01  7.20000000E-01
  7.20000000E-01  8.50000000E-01  7.20000000E-01  8.50000000E-01  7.20000000E-01
  8.50000000E-01  8.50000000E-01  7.20000000E-01  8.50000000E-01  8.50000000E-01
  7.20000000E-01  8.50000000E-01  8.50000000E-01  8.50000000E-01  7.20000000E-01
  8.50000000E-01  8.50000000E-01  7.20000000E-01  8.50000000E-01  8.50000000E-01
  7.20000000E-01  8.50000000E-01  8.50000000E-01  7.20000000E-01  8.50000000E-01
  8.50000000E-01  8.50000000E-01  8.50000000E-01  7.20000000E-01  7.20000000E-01
  8.50000000E-01  8.50000000E-01  8.50000000E-01  7.20000000E-01  8.50000000E-01
  8.50000000E-01  8.50000000E-01  8.50000000E-01  9.60000000E-01  7.20000000E-01
  7.20000000E-01  7.20000000E-01  7.20000000E-01  7.20000000E-01  7.20000000E-01
  7.20000000E-01  7.20000000E-01  9.60000000E-01  7.20000000E-01  8.50000000E-01
  7.20000000E-01  7.20000000E-01  8.50000000E-01  7.20000000E-01  7.20000000E-01
  7.20000000E-01  8.50000000E-01  7.20000000E-01  8.50000000E-01  8.50000000E-01
  8.50000000E-01  7.20000000E-01  7.20000000E-01  7.20000000E-01  7.20000000E-01
  8.50000000E-01  7.20000000E-01  8.50000000E-01  7.20000000E-01  8.50000000E-01
  8.50000000E-01  7.20000000E-01  8.50000000E-01  8.50000000E-01  7.20000000E-01
  8.50000000E-01  8.50000000E-01  8.50000000E-01  7.20000000E-01  8.50000000E-01
  8.50000000E-01  7.20000000E-01  8.50000000E-01  8.50000000E-01  7.20000000E-01
  8.50000000E-01  8.50000000E-01  7.20000000E-01  8.50000000E-01  8.50000000E-01
  8.50000000E-01  8.50000000E-01  7.20000000E-01  7.20000000E-01  8.50000000E-01
  8.50000000E-01  8.50000000E-01  7.20000000E-01  8.50000000E-01  8.50000000E-01
  8.50000000E-01  8.50000000E-01  9.60000000E-01  7.20000000E-01  7.20000000E-01
  7.20000000E-01  7.20000000E-01  7.20000000E-01  7.20000000E-01  7.20000000E-01
  7.20000000E-01  9.60000000E-01  7.20000000E-01  8.50000000E-01  7.20000000E-01
  7.20000000E-01  8.50000000E-01  7.20000000E-01  7.20000000E-01  7.20000000E-01
  8.50000000E-01  7.20000000E-01  8.50000000E-01  8.50000000E-01  8.50000000E-01
  7.20000000E-01  7.20000000E-01  7.20000000E-01  7.20000000E-01  8.50000000E-01
  7.20000000E-01  8.50000000E-01  7.20000000E-01  8.50000000E-01  8.50000000E-01
  7.20000000E-01  8.50000000E-01  8.50000000E-01  7.20000000E-01  8.50000000E-01
  8.50000000E-01  8.50000000E-01  7.20000000E-01  8.50000000E-01  8.50000000E-01
  7.20000000E-01  8.50000000E-01  8.50000000E-01  7.20000000E-01  8.50000000E-01
  8.50000000E-01  7.20000000E-01  8.50000000E-01  8.50000000E-01  8.50000000E-01
  8.50000000E-01  7.20000000E-01  7.20000000E-01  8.50000000E-01  8.50000000E-01
  8.50000000E-01  7.20000000E-01  8.50000000E-01  8.50000000E-01  8.50000000E-01
  8.50000000E-01  9.60000000E-01  7.20000000E-01  7.20000000E-01  7.20000000E-01
  7.20000000E-01  7.20000000E-01  7.20000000E-01  7.20000000E-01  7.20000000E-01
  9.60000000E-01  7.20000000E-01  8.50000000E-01  7.20000000E-01  7.20000000E-01
  8.50000000E-01  7.20000000E-01  7.20000000E-01  7.20000000E-01  8.50000000E-01
  7.20000000E-01  8.50000000E-01  8.50000000E-01  8.50000000E-01  7.20000000E-01
  7.20000000E-01  7.20000000E-01  7.20000000E-01  8.50000000E-01  7.20000000E-01
  8.50000000E-01  7.20000000E-01  8.50000000E-01  8.50000000E-01  7.20000000E-01
  8.50000000E-01  8.50000000E-01  7.20000000E-01  8.50000000E-01  8.50000000E-01
  8.50000000E-01  7.20000000E-01  8.50000000E-01  8.50000000E-01  7.20000000E-01
  8.50000000E-01  8.50000000E-01  7.20000000E-01  8.50000000E-01  8.50000000E-01
  7.20000000E-01  8.50000000E-01  8.50000000E-01  8.50000000E-01  8.50000000E-01
  7.20000000E-01  7.20000000E-01  8.50000000E-01  8.50000000E-01  8.50000000E-01
  7.20000000E-01  8.50000000E-01  8.50000000E-01  8.50000000E-01  8.50000000E-01
  9.60000000E-01  7.20000000E-01  7.20000000E-01  7.20000000E-01  7.20000000E-01
  7.20000000E-01  7.20000000E-01  7.20000000E-01  7.20000000E-01  9.60000000E-01
  7.20000000E-01  8.50000000E-01  7.20000000E-01  7.20000000E-01  8.50000000E-01
  7.20000000E-01  7.20000000E-01  7.20000000E-01  8.50000000E-01  7.20000000E-01
  8.50000000E-01  8.50000000E-01  8.50000000E-01  7.20000000E-01  7.20000000E-01
  7.20000000E-01  7.20000000E-01  8.50000000E-01  7.20000000E-01  8.50000000E-01
  7.20000000E-01  8.50000000E-01  8.50000000E-01  7.20000000E-01  8.50000000E-01
  8.50000000E-01  7.20000000E-01  8.50000000E-01  8.50000000E-01  8.50000000E-01
  7.20000000E-01  8.50000000E-01  8.50000000E-01  7.20000000E-01  8.50000000E-01
  8.50000000E-01  7.20000000E-01  8.50000000E-01  8.50000000E-01  7.20000000E-01
  8.50000000E-01  8.50000000E-01  8.50000000E-01  8.50000000E-01  7.20000000E-01
  7.20000000E-01  8.50000000E-01  8.50000000E-01  8.50000000E-01  7.20000000E-01
  8.50000000E-01  8.50000000E-01  8.50000000E-01  8.50000000E-01  9.60000000E-01
  7.20000000E-01  7.20000000E-01  7.20000000E-01  7.20000000E-01  7.20000000E-01
  7.20000000E-01  7.20000000E-01  7.20000000E-01  9.60000000E-01  7.20000000E-01
  8.50000000E-01  7.20000000E-01  7.20000000E-01  8.50000000E-01  7.20000000E-01
  7.20000000E-01  7.20000000E-01  8.50000000E-01  7.20000000E-01  8.50000000E-01
  8.50000000E-01  8.50000000E-01  7.20000000E-01  7.20000000E-01  7.20000000E-01
  7.20000000E-01  8.50000000E-01  7.20000000E-01  8.50000000E-01  7.20000000E-01
  8.50000000E-01  8.50000000E-01  7.20000000E-01  8.50000000E-01  8.50000000E-01
  7.20000000E-01  8.50000000E-01  8.50000000E-01  8.50000000E-01  7.20000000E-01
  8.50000000E-01  8.50000000E-01  7.20000000E-01  8.50000000E-01  8.50000000E-01
  7.20000000E-01  8.50000000E-01  8.50000000E-01  7.20000000E-01  8.50000000E-01
  8.50000000E-01  8.50000000E-01  8.50000000E-01  7.20000000E-01  7.20000000E-01
  8.50000000E-01  8.50000000E-01  8.50000000E-01  7.20000000E-01  8.50000000E-01
  8.50000000E-01  8.50000000E-01  8.50000000E-01  9.60000000E-01  7.20000000E-01
  7.20000000E-01  7.20000000E-01  7.20000000E-01  7.20000000E-01  7.20000000E-01
  7.20000000E-01  7.20000000E-01  9.60000000E-01  7.20000000E-01  8.50000000E-01
  7.20000000E-01  7.20000000E-01  8.50000000E-01  7.20000000E-01  7.20000000E-01
  7.20000000E-01  8.50000000E-01  7.20000000E-01  8.50000000E-01  8.50000000E-01
  8.50000000E-01  7.20000000E-01  7.20000000E-01  7.20000000E-01  7.20000000E-01
  8.50000000E-01  7.20000000E-01  8.50000000E-01  7.20000000E-01  8.50000000E-01
  8.50000000E-01  7.20000000E-01  8.50000000E-01  8.50000000E-01  7.20000000E-01
  8.50000000E-01  8.50000000E-01  8.50000000E-01  7.20000000E-01  8.50000000E-01
  8.50000000E-01  7.20000000E-01  8.50000000E-01  8.50000000E-01  7.20000000E-01
  8.50000000E-01  8.50000000E-01  7.20000000E-01  8.50000000E-01  8.50000000E-01
  8.50000000E-01  8.50000000E-01  7.20000000E-01  7.20000000E-01  8.50000000E-01
  8.50000000E-01  8.50000000E-01  7.20000000E-01  8.50000000E-01  8.50000000E-01
  8.50000000E-01  8.50000000E-01  9.60000000E-01  7.20000000E-01  7.20000000E-01
  7.20000000E-01  7.20000000E-01  7.20000000E-01  7.20000000E-01  7.20000000E-01
  7.20000000E-01  9.60000000E-01  7.20000000E-01  8.50000000E-01  7.20000000E-01
  7.20000000E-01  8.50000000E-01  7.20000000E-01  7.20000000E-01  7.20000000E-01
  8.50000000E-01  7.20000000E-01  8.50000000E-01  8.50000000E-01  8.50000000E-01
  7.20000000E-01  7.20000000E-01  7.20000000E-01  7.20000000E-01  8.50000000E-01
  7.20000000E-01  8.50000000E-01  7.20000000E-01  8.50000000E-01  8.50000000E-01
  7.20000000E-01  8.50000000E-01  8.50000000E-01  7.20000000E-01  8.50000000E-01
  8.50000000E-01  8.50000000E-01  7.20000000E-01  8.50000000E-01  8.50000000E-01
  7.20000000E-01  8.50000000E-01  8.50000000E-01  7.20000000E-01  8.50000000E-01
  8.50000000E-01  7.20000000E-01  8.50000000E-01  8.50000000E-01  8.50000000E-01
  8.50000000E-01  7.20000000E-01  7.20000000E-01  8.50000000E-01  8.50000000E-01
  8.50000000E-01  7.20000000E-01  8.50000000E-01  8.50000000E-01  8.50000000E-01
  8.50000000E-01  9.60000000E-01  7.20000000E-01  7.20000000E-01  7.20000000E-01
  7.20000000E-01  7.20000000E-01  7.20000000E-01  7.20000000E-01  7.20000000E-01
  9.60000000E-01  7.20000000E-01  8.50000000E-01  7.20000000E-01  7.20000000E-01
  8.50000000E-01  7.20000000E-01  7.20000000E-01  7.20000000E-01  8.50000000E-01
  7.20000000E-01  8.50000000E-01  8.50000000E-01  8.50000000E-01  7.20000000E-01
  7.20000000E-01  7.20000000E-01  7.20000000E-01  8.50000000E-01  7.20000000E-01
  8.50000000E-01  7.20000000E-01  8.50000000E-01  8.50000000E-01  7.20000000E-01
  8.50000000E-01  8.50000000E-01  7.20000000E-01  8.50000000E-01  8.50000000E-01
  8.50000000E-01  7.20000000E-01  8.50000000E-01  8.50000000E-01  7.20000000E-01
  8.50000000E-01  8.50000000E-01  7.20000000E-01  8.50000000E-01  8.50000000E-01
  7.20000000E-01  8.50000000E-01  8.50000000E-01  8.50000000E-01  8.50000000E-01
  7.20000000E-01  7.20000000E-01  8.50000000E-01  8.50000000E-01  8.50000000E-01
  7.20000000E-01  8.50000000E-01  8.50000000E-01  8.50000000E-01  8.50000000E-01
  9.60000000E-01  7.20000000E-01  7.20000000E-01  7.20000000E-01  7.20000000E-01
  7.20000000E-01  7.20000000E-01  7.20000000E-01  7.20000000E-01  9.60000000E-01
  7.20000000E-01  8.50000000E-01  7.20000000E-01  7.20000000E-01  8.50000000E-01
  7.20000000E-01  7.20000000E-01  7.20000000E-01  8.50000000E-01  7.20000000E-01
  8.50000000E-01  8.50000000E-01  8.50000000E-01  7.20000000E-01  7.20000000E-01
  7.20000000E-01  7.20000000E-01  8.50000000E-01  7.20000000E-01  8.50000000E-01
  7.20000000E-01  8.50000000E-01  8.50000000E-01  7.20000000E-01  8.50000000E-01
  8.50000000E-01  7.20000000E-01  8.50000000E-01  8.50000000E-01  8.50000000E-01
  7.20000000E-01  8.50000000E-01  8.50000000E-01  7.20000000E-01  8.50000000E-01
  8.50000000E-01  7.20000000E-01  8.50000000E-01  8.50000000E-01  7.20000000E-01
  8.50000000E-01  8.50000000E-01  8.50000000E-01  8.50000000E-01  7.20000000E-01
  7.20000000E-01  8.50000000E-01  8.50000000E-01  8.50000000E-01  7.20000000E-01
  8.50000000E-01  8.50000000E-01  8.50000000E-01  8.50000000E-01  9.60000000E-01
  7.20000000E-01  7.20000000E-01  7.20000000E-01  7.20000000E-01  7.20000000E-01
  7.20000000E-01  7.20000000E-01  7.20000000E-01  9.60000000E-01  7.20000000E-01
  8.50000000E-01  7.20000000E-01  7.20000000E-01  8.50000000E-01  7.20000000E-01
  7.20000000E-01  7.20000000E-01  8.50000000E-01  7.20000000E-01  8.50000000E-01
  8.50000000E-01  8.50000000E-01  7.20000000E-01  7.20000000E-01  7.20000000E-01
  7.20000000E-01  8.50000000E-01  7.20000000E-01  8.50000000E-01  7.20000000E-01
  8.50000000E-01  8.50000000E-01  7.20000000E-01  8.50000000E-01  8.50000000E-01
  7.20000000E-01  8.50000000E-01  8.50000000E-01  8.50000000E-01  7.20000000E-01
  8.50000000E-01  8.50000000E-01  7.20000000E-01  8.50000000E-01  8.50000000E-01
  7.20000000E-01  8.50000000E-01  8.50000000E-01  7.20000000E-01  8.50000000E-01
  8.50000000E-01  8.50000000E-01  8.50000000E-01  7.20000000E-01  7.20000000E-01
  8.50000000E-01  8.50000000E-01  8.50000000E-01  7.20000000E-01  8.50000000E-01
  8.50000000E-01  8.50000000E-01  8.50000000E-01  9.60000000E-01  7.20000000E-01
  7.20000000E-01  7.20000000E-01  7.20000000E-01  7.20000000E-01  7.20000000E-01
  7.20000000E-01  7.20000000E-01  9.60000000E-01  7.20000000E-01  8.50000000E-01
  7.20000000E-01  7.20000000E-01  8.50000000E-01  7.20000000E-01  7.20000000E-01
  7.20000000E-01  8.50000000E-01  7.20000000E-01  8.50000000E-01  8.50000000E-01
  8.50000000E-01  7.20000000E-01  7.20000000E-01  7.20000000E-01  7.20000000E-01
  8.50000000E-01  7.20000000E-01  8.50000000E-01  7.20000000E-01  8.50000000E-01
  8.50000000E-01  7.20000000E-01  8.50000000E-01  8.50000000E-01  7.20000000E-01
  8.50000000E-01  8.50000000E-01  8.50000000E-01  7.20000000E-01  8.50000000E-01
  8.50000000E-01  7.20000000E-01  8.50000000E-01  8.50000000E-01  7.20000000E-01
  8.50000000E-01  8.50000000E-01  7.20000000E-01  8.50000000E-01  8.50000000E-01
  8.50000000E-01  8.50000000E-01  7.20000000E-01  7.20000000E-01  8.50000000E-01
  8.50000000E-01  8.50000000E-01  7.20000000E-01  8.50000000E-01  8.50000000E-01
  8.50000000E-01  8.50000000E-01  9.60000000E-01  7.20000000E-01  7.20000000E-01
  7.20000000E-01  7.20000000E-01  7.20000000E-01  7.20000000E-01  7.20000000E-01
  7.20000000E-01  9.60000000E-01  7.20000000E-01  8.50000000E-01  7.20000000E-01
  7.20000000E-01  8.50000000E-01  7.20000000E-01  7.20000000E-01  7.20000000E-01
  8.50000000E-01  7.20000000E-01  8.50000000E-01  8.50000000E-01  8.50000000E-01
  7.20000000E-01  7.20000000E-01  7.20000000E-01  7.20000000E-01  8.50000000E-01
  7.20000000E-01  8.50000000E-01  7.20000000E-01  8.50000000E-01  8.50000000E-01
  7.20000000E-01  8.50000000E-01  8.50000000E-01  7.20000000E-01  8.50000000E-01
  8.50000000E-01  8.50000000E-01  7.20000000E-01  8.50000000E-01  8.50000000E-01
  7.20000000E-01  8.50000000E-01  8.50000000E-01  7.20000000E-01  8.50000000E-01
  8.50000000E-01  7.20000000E-01  8.50000000E-01  8.50000000E-01  8.50000000E-01
  8.50000000E-01  7.20000000E-01  7.20000000E-01  8.50000000E-01  8.50000000E-01
  8.50000000E-01  7.20000000E-01  8.50000000E-01  8.50000000E-01  8.50000000E-01
  8.50000000E-01  9.60000000E-01  7.20000000E-01  7.20000000E-01  7.20000000E-01
  7.20000000E-01  7.20000000E-01  7.20000000E-01  7.20000000E-01  7.20000000E-01
  9.60000000E-01  7.20000000E-01  8.50000000E-01  7.20000000E-01  7.20000000E-01
  8.50000000E-01  7.20000000E-01  7.20000000E-01  7.20000000E-01  8.50000000E-01
  7.20000000E-01  8.50000000E-01  8.50000000E-01  8.50000000E-01  7.20000000E-01
  7.20000000E-01  7.20000000E-01  7.20000000E-01  8.50000000E-01  7.20000000E-01
  8.50000000E-01  7.20000000E-01  8.50000000E-01  8.50000000E-01  7.20000000E-01
  8.50000000E-01  8.50000000E-01  7.20000000E-01  8.50000000E-01  8.50000000E-01
  8.50000000E-01  7.20000000E-01  8.50000000E-01  8.50000000E-01  7.20000000E-01
  8.50000000E-01  8.50000000E-01  7.20000000E-01  8.50000000E-01  8.50000000E-01
  7.20000000E-01  8.50000000E-01  8.50000000E-01  8.50000000E-01  8.50000000E-01
  7.20000000E-01  7.20000000E-01  8.50000000E-01  8.50000000E-01  8.50000000E-01
  7.20000000E-01  8.50000000E-01  8.50000000E-01  8.50000000E-01  8.50000000E-01
  9.60000000E-01  7.20000000E-01  7.20000000E-01  7.20000000E-01  7.20000000E-01
  7.20000000E-01  7.20000000E-01  7.20000000E-01  7.20000000E-01  9.60000000E-01
  7.20000000E-01  8.50000000E-01  7.20000000E-01  7.20000000E-01  8.50000000E-01
  7.20000000E-01  7.20000000E-01  7.20000000E-01  8.50000000E-01  7.20000000E-01
  8.50000000E-01  8.50000000E-01  8.50000000E-01  7.20000000E-01  7.20000000E-01
  7.20000000E-01  7.20000000E-01  8.50000000E-01  7.20000000E-01  8.50000000E-01
  7.20000000E-01  8.50000000E-01  8.50000000E-01  7.20000000E-01  8.50000000E-01
  8.50000000E-01  7.20000000E-01  8.50000000E-01  8.50000000E-01  8.50000000E-01
  7.20000000E-01  8.50000000E-01  8.50000000E-01  7.20000000E-01  8.50000000E-01
  8.50000000E-01  7.20000000E-01  8.50000000E-01  8.50000000E-01  7.20000000E-01
  8.50000000E-01  8.50000000E-01  8.50000000E-01  8.50000000E-01  7.20000000E-01
  7.20000000E-01  8.50000000E-01  8.50000000E-01  8.50000000E-01  7.20000000E-01
  8.50000000E-01  8.50000000E-01  8.50000000E-01  8.50000000E-01  9.60000000E-01
  7.20000000E-01  7.20000000E-01  7.20000000E-01  7.20000000E-01  7.20000000E-01
  7.20000000E-01  7.20000000E-01  7.20000000E-01  9.60000000E-01  7.20000000E-01
  8.50000000E-01  7.20000000E-01  7.20000000E-01  8.50000000E-01  7.20000000E-01
  7.20000000E-01  7.20000000E-01  8.50000000E-01  7.20000000E-01  8.50000000E-01
  8.50000000E-01  8.50000000E-01  7.20000000E-01  7.20000000E-01  7.20000000E-01
  7.20000000E-01  8.50000000E-01  7.20000000E-01  8.50000000E-01  7.20000000E-01
  8.50000000E-01  8.50000000E-01  7.20000000E-01  8.50000000E-01  8.50000000E-01
  7.20000000E-01  8.50000000E-01  8.50000000E-01  8.50000000E-01  7.20000000E-01
  8.50000000E-01  8.50000000E-01  7.20000000E-01  8.50000000E-01  8.50000000E-01
  7.20000000E-01  8.50000000E-01  8.50000000E-01  7.20000000E-01  8.50000000E-01
  8.50000000E-01  8.50000000E-01  8.50000000E-01  7.20000000E-01  7.20000000E-01
  8.50000000E-01  8.50000000E-01  8.50000000E-01  7.20000000E-01  8.50000000E-01
  8.50000000E-01  8.50000000E-01  8.50000000E-01  9.60000000E-01  7.20000000E-01
  7.20000000E-01  7.20000000E-01  7.20000000E-01  7.20000000E-01  7.20000000E-01
  7.20000000E-01  7.20000000E-01  9.60000000E-01  7.20000000E-01  8.50000000E-01
  7.20000000E-01  7.20000000E-01  8.50000000E-01  7.20000000E-01  7.20000000E-01
  7.20000000E-01  8.50000000E-01  7.20000000E-01  8.50000000E-01  8.50000000E-01
  8.50000000E-01  7.20000000E-01  7.20000000E-01  7.20000000E-01  7.20000000E-01
  8.50000000E-01  7.20000000E-01  8.50000000E-01  7.20000000E-01  8.50000000E-01
  8.50000000E-01  7.20000000E-01  8.50000000E-01  8.50000000E-01  7.20000000E-01
  8.50000000E-01  8.50000000E-01  8.50000000E-01  7.20000000E-01  8.50000000E-01
  8.50000000E-01  7.20000000E-01  8.50000000E-01  8.50000000E-01  7.20000000E-01
  8.50000000E-01  8.50000000E-01  7.20000000E-01  8.50000000E-01  8.50000000E-01
  8.50000000E-01  8.50000000E-01  7.20000000E-01  7.20000000E-01  8.50000000E-01
  8.50000000E-01  8.50000000E-01  7.20000000E-01  8.50000000E-01  8.50000000E-01
  8.50000000E-01  8.50000000E-01  9.60000000E-01  7.20000000E-01  7.20000000E-01
  7.20000000E-01  7.20000000E-01  7.20000000E-01  7.20000000E-01  7.20000000E-01
  7.20000000E-01  9.60000000E-01  7.20000000E-01  8.50000000E-01  7.20000000E-01
  7.20000000E-01  8.50000000E-01  7.20000000E-01  7.20000000E-01  7.20000000E-01
  8.50000000E-01  7.20000000E-01  8.50000000E-01  8.50000000E-01  8.50000000E-01
  7.20000000E-01  7.20000000E-01  7.20000000E-01  7.20000000E-01  8.50000000E-01
  7.20000000E-01  8.50000000E-01  7.20000000E-01  8.50000000E-01  8.50000000E-01
  7.20000000E-01  8.50000000E-01  8.50000000E-01  7.20000000E-01  8.50000000E-01
  8.50000000E-01  8.50000000E-01  7.20000000E-01  8.50000000E-01  8.50000000E-01
  7.20000000E-01  8.50000000E-01  8.50000000E-01  7.20000000E-01  8.50000000E-01
  8.50000000E-01  7.20000000E-01  8.50000000E-01  8.50000000E-01  8.50000000E-01
  8.50000000E-01  7.20000000E-01  7.20000000E-01  8.50000000E-01  8.50000000E-01
  8.50000000E-01  7.20000000E-01  8.50000000E-01  8.50000000E-01  8.50000000E-01
  8.50000000E-01  9.60000000E-01  7.20000000E-01  7.20000000E-01  7.20000000E-01
  7.20000000E-01  7.20000000E-01  7.20000000E-01  7.20000000E-01  7.20000000E-01
  9.60000000E-01  7.20000000E-01  8.50000000E-01  7.20000000E-01  7.20000000E-01
  8.50000000E-01  7.20000000E-01  7.20000000E-01  7.20000000E-01  8.50000000E-01
  7.20000000E-01  8.50000000E-01  8.50000000E-01  8.50000000E-01  7.20000000E-01
  7.20000000E-01  7.20000000E-01  7.20000000E-01  8.50000000E-01  7.20000000E-01
  8.50000000E-01  7.20000000E-01  8.50000000E-01  8.50000000E-01  7.20000000E-01
  8.50000000E-01  8.50000000E-01  7.20000000E-01  8.50000000E-01  8.50000000E-01
  8.50000000E-01  7.20000000E-01  8.50000000E-01  8.50000000E-01  7.20000000E-01
  8.50000000E-01  8.50000000E-01  7.20000000E-01  8.50000000E-01  8.50000000E-01
  7.20000000E-01  8.50000000E-01  8.50000000E-01  8.50000000E-01  8.50000000E-01
  7.20000000E-01  7.20000000E-01  8.50000000E-01  8.50000000E-01  8.50000000E-01
  7.20000000E-01  8.50000000E-01  8.50000000E-01  8.50000000E-01  8.50000000E-01
  9.60000000E-01  7.20000000E-01  7.20000000E-01  7.20000000E-01  7.20000000E-01
  7.20000000E-01  7.20000000E-01  7.20000000E-01  7.20000000E-01  9.60000000E-01
  7.20000000E-01  8.50000000E-01  7.20000000E-01  7.20000000E-01  8.50000000E-01
  7.20000000E-01  7.20000000E-01  7.20000000E-01  8.50000000E-01  7.20000000E-01
  8.50000000E-01  8.50000000E-01  8.50000000E-01  7.20000000E-01  7.20000000E-01
  7.20000000E-01  7.20000000E-01  8.50000000E-01  7.20000000E-01  8.50000000E-01
  7.20000000E-01  8.50000000E-01  8.50000000E-01  7.20000000E-01  8.50000000E-01
  8.50000000E-01  7.20000000E-01  8.50000000E-01  8.50000000E-01  8.50000000E-01
  7.20000000E-01  8.50000000E-01  8.50000000E-01  7.20000000E-01  8.50000000E-01
  8.50000000E-01  7.20000000E-01  8.50000000E-01  8.50000000E-01  7.20000000E-01
  8.50000000E-01  8.50000000E-01  8.50000000E-01  8.50000000E-01  7.20000000E-01
  7.20000000E-01  8.50000000E-01  8.50000000E-01  8.50000000E-01  7.20000000E-01
  8.50000000E-01  8.50000000E-01  8.50000000E-01  8.50000000E-01  9.60000000E-01
  7.20000000E-01  7.20000000E-01  7.20000000E-01  7.20000000E-01  7.20000000E-01
  7.20000000E-01  7.20000000E-01  7.20000000E-01  9.60000000E-01  7.20000000E-01
  8.50000000E-01  7.20000000E-01  7.20000000E-01  8.50000000E-01  7.20000000E-01
  7.20000000E-01  7.20000000E-01  8.50000000E-01  7.20000000E-01  8.50000000E-01
  8.50000000E-01  8.50000000E-01  7.20000000E-01  7.20000000E-01  7.20000000E-01
  7.20000000E-01  8.50000000E-01  7.20000000E-01  8.50000000E-01  7.20000000E-01
  8.50000000E-01  8.50000000E-01  7.20000000E-01  8.50000000E-01  8.50000000E-01
  7.20000000E-01  8.50000000E-01  8.50000000E-01  8.50000000E-01  7.20000000E-01
  8.50000000E-01  8.50000000E-01  7.20000000E-01  8.50000000E-01  8.50000000E-01
  7.20000000E-01  8.50000000E-01  8.50000000E-01  7.20000000E-01  8.50000000E-01
  8.50000000E-01  8.50000000E-01  8.50000000E-01  7.20000000E-01  7.20000000E-01
  8.50000000E-01  8.50000000E-01  8.50000000E-01  7.20000000E-01  8.50000000E-01
  8.50000000E-01  8.50000000E-01  8.50000000E-01  9.60000000E-01  7.20000000E-01
  7.20000000E-01  7.20000000E-01  7.20000000E-01  7.20000000E-01  7.20000000E-01
  7.20000000E-01  7.20000000E-01  9.60000000E-01  7.20000000E-01  8.50000000E-01
  7.20000000E-01  7.20000000E-01  8.50000000E-01  7.20000000E-01  7.20000000E-01
  7.20000000E-01  8.50000000E-01  7.20000000E-01  8.50000000E-01  8.50000000E-01
  8.50000000E-01  7.20000000E-01  7.20000000E-01  7.20000000E-01  7.20000000E-01
  8.50000000E-01  7.20000000E-01  8.50000000E-01  7.20000000E-01  8.50000000E-01
  8.50000000E-01  7.20000000E-01  8.50000000E-01  8.50000000E-01  7.20000000E-01
  8.50000000E-01  8.50000000E-01  8.50000000E-01  7.20000000E-01  8.50000000E-01
  8.50000000E-01  7.20000000E-01  8.50000000E-01  8.50000000E-01  7.20000000E-01
  8.50000000E-01  8.50000000E-01  7.20000000E-01  8.50000000E-01  8.50000000E-01
  8.50000000E-01  8.50000000E-01  7.20000000E-01  7.20000000E-01  8.50000000E-01
  8.50000000E-01  8.50000000E-01  7.20000000E-01  8.50000000E-01  8.50000000E-01
  8.50000000E-01  8.50000000E-01  9.60000000E-01  7.20000000E-01  7.20000000E-01
  7.20000000E-01  7.20000000E-01  7.20000000E-01  7.20000000E-01  7.20000000E-01
  7.20000000E-01  9.60000000E-01  7.20000000E-01  8.50000000E-01  7.20000000E-01
  7.20000000E-01  8.50000000E-01  7.20000000E-01  7.20000000E-01  7.20000000E-01
  8.50000000E-01  7.20000000E-01  8.50000000E-01  8.50000000E-01  8.50000000E-01
  7.20000000E-01  7.20000000E-01  7.20000000E-01  7.20000000E-01  8.50000000E-01
  7.20000000E-01  8.50000000E-01  7.20000000E-01  8.50000000E-01  8.50000000E-01
  7.20000000E-01  8.50000000E-01  8.50000000E-01  7.20000000E-01  8.50000000E-01
  8.50000000E-01  8.50000000E-01  7.20000000E-01  8.50000000E-01  8.50000000E-01
  7.20000000E-01  8.50000000E-01  8.50000000E-01  7.20000000E-01  8.50000000E-01
  8.50000000E-01  7.20000000E-01  8.50000000E-01  8.50000000E-01  8.50000000E-01
  8.50000000E-01  7.20000000E-01  7.20000000E-01  8.50000000E-01  8.50000000E-01
  8.50000000E-01  7.20000000E-01  8.50000000E-01  8.50000000E-01  8.50000000E-01
  8.50000000E-01  9.60000000E-01  7.20000000E-01  7.20000000E-01  7.20000000E-01
  7.20000000E-01  7.20000000E-01  7.20000000E-01  7.20000000E-01  7.20000000E-01
  9.60000000E-01  7.20000000E-01  8.50000000E-01  7.20000000E-01  7.20000000E-01
  8.50000000E-01  7.20000000E-01  7.20000000E-01  7.20000000E-01  8.50000000E-01
  7.20000000E-01  8.50000000E-01  8.50000000E-01  8.50000000E-01  7.20000000E-01
  7.20000000E-01  7.20000000E-01  7.20000000E-01  8.50000000E-01  7.20000000E-01
  8.50000000E-01  7.20000000E-01  8.50000000E-01  8.50000000E-01  7.20000000E-01
  8.50000000E-01  8.50000000E-01  7.20000000E-01  8.50000000E-01  8.50000000E-01
  8.50000000E-01  7.20000000E-01  8.50000000E-01  8.50000000E-01  7.20000000E-01
  8.50000000E-01  8.50000000E-01  7.20000000E-01  8.50000000E-01  8.50000000E-01
  7.20000000E-01  8.50000000E-01  8.50000000E-01  8.50000000E-01  8.50000000E-01
  7.20000000E-01  7.20000000E-01  8.50000000E-01  8.50000000E-01  8.50000000E-01
  7.20000000E-01  8.50000000E-01  8.50000000E-01  8.50000000E-01  8.50000000E-01
  9.60000000E-01  7.20000000E-01  7.20000000E-01  7.20000000E-01  7.20000000E-01
  7.20000000E-01  7.20000000E-01  7.20000000E-01  7.20000000E-01  9.60000000E-01
  7.20000000E-01  8.50000000E-01  7.20000000E-01  7.20000000E-01  8.50000000E-01
  7.20000000E-01  7.20000000E-01  7.20000000E-01  8.50000000E-01  7.20000000E-01
  8.50000000E-01  8.50000000E-01  8.50000000E-01  7.20000000E-01  7.20000000E-01
  7.20000000E-01  7.20000000E-01  8.50000000E-01  7.20000000E-01  8.50000000E-01
  7.20000000E-01  8.50000000E-01  8.50000000E-01  7.20000000E-01  8.50000000E-01
  8.50000000E-01  7.20000000E-01  8.50000000E-01  8.50000000E-01  8.50000000E-01
  7.20000000E-01  8.50000000E-01  8.50000000E-01  7.20000000E-01  8.50000000E-01
  8.50000000E-01  7.20000000E-01  8.50000000E-01  8.50000000E-01  7.20000000E-01
  8.50000000E-01  8.50000000E-01  8.50000000E-01  8.50000000E-01  7.20000000E-01
  7.20000000E-01  8.50000000E-01  8.50000000E-01  8.50000000E-01  7.20000000E-01
  8.50000000E-01  8.50000000E-01  8.50000000E-01  8.50000000E-01  9.60000000E-01
  7.20000000E-01  7.20000000E-01  7.20000000E-01  7.20000000E-01  7.20000000E-01
  7.20000000E-01  7.20000000E-01  7.20000000E-01  9.60000000E-01  7.20000000E-01
  8.50000000E-01  7.20000000E-01  7.20000000E-01  8.50000000E-01  7.20000000E-01
  7.20000000E-01  7.20000000E-01  8.50000000E-01  7.20000000E-01  8.50000000E-01
  8.50000000E-01  8.50000000E-01  7.20000000E-01  7.20000000E-01  7.20000000E-01
  7.20000000E-01  8.50000000E-01  7.20000000E-01  8.50000000E-01  7.20000000E-01
  8.50000000E-01  8.50000000E-01  7.20000000E-01  8.50000000E-01  8.50000000E-01
  7.20000000E-01  8.50000000E-01  8.50000000E-01  8.50000000E-01  7.20000000E-01
  8.50000000E-01  8.50000000E-01  7.20000000E-01  8.50000000E-01  8.50000000E-01
  7.20000000E-01  8.50000000E-01  8.50000000E-01  7.20000000E-01  8.50000000E-01
  8.50000000E-01  8.50000000E-01  8.50000000E-01  7.20000000E-01  7.20000000E-01
  8.50000000E-01  8.50000000E-01  8.50000000E-01  7.20000000E-01  8.50000000E-01
  8.50000000E-01  8.50000000E-01  8.50000000E-01  9.60000000E-01  7.20000000E-01
  7.20000000E-01  7.20000000E-01  7.20000000E-01  7.20000000E-01  7.20000000E-01
  7.20000000E-01  7.20000000E-01  9.60000000E-01  7.20000000E-01  8.50000000E-01
  7.20000000E-01  7.20000000E-01  8.50000000E-01  7.20000000E-01  7.20000000E-01
  7.20000000E-01  8.50000000E-01  7.20000000E-01  8.50000000E-01  8.50000000E-01
  8.50000000E-01  7.20000000E-01  7.20000000E-01  7.20000000E-01  7.20000000E-01
  8.50000000E-01  7.20000000E-01  8.50000000E-01  7.20000000E-01  8.50000000E-01
  8.50000000E-01  7.20000000E-01  8.50000000E-01  8.50000000E-01  7.20000000E-01
  8.50000000E-01  8.50000000E-01  8.50000000E-01  7.20000000E-01  8.50000000E-01
  8.50000000E-01  7.20000000E-01  8.50000000E-01  8.50000000E-01  7.20000000E-01
  8.50000000E-01  8.50000000E-01  7.20000000E-01  8.50000000E-01  8.50000000E-01
  8.50000000E-01  8.50000000E-01  7.20000000E-01  7.20000000E-01  8.50000000E-01
  8.50000000E-01  8.50000000E-01  7.20000000E-01  8.50000000E-01  8.50000000E-01
  8.50000000E-01  8.50000000E-01  9.60000000E-01  7.20000000E-01  7.20000000E-01
  7.20000000E-01  7.20000000E-01  7.20000000E-01  7.20000000E-01  7.20000000E-01
  7.20000000E-01  9.60000000E-01  7.20000000E-01  8.50000000E-01  7.20000000E-01
  7.20000000E-01  8.50000000E-01  7.20000000E-01  7.20000000E-01  7.20000000E-01
  8.50000000E-01  7.20000000E-01  8.50000000E-01  8.50000000E-01  8.50000000E-01
  7.20000000E-01  7.20000000E-01  7.20000000E-01  7.20000000E-01  8.50000000E-01
  7.20000000E-01  8.50000000E-01  7.20000000E-01  8.50000000E-01  8.50000000E-01
  7.20000000E-01  8.50000000E-01  8.50000000E-01  7.20000000E-01  8.50000000E-01
  8.50000000E-01  8.50000000E-01  7.20000000E-01  8.50000000E-01  8.50000000E-01
  7.20000000E-01  8.50000000E-01  8.50000000E-01  7.20000000E-01  8.50000000E-01
  8.50000000E-01  7.20000000E-01  8.50000000E-01  8.50000000E-01  8.50000000E-01
  8.50000000E-01  7.20000000E-01  7.20000000E-01  8.50000000E-01  8.50000000E-01
  8.50000000E-01  7.20000000E-01  8.50000000E-01  8.50000000E-01  8.50000000E-01
  8.50000000E-01  9.60000000E-01  7.20000000E-01  7.20000000E-01  7.20000000E-01
  7.20000000E-01  7.20000000E-01  7.20000000E-01  7.20000000E-01  7.20000000E-01
  9.60000000E-01  7.20000000E-01  8.50000000E-01  7.20000000E-01  7.20000000E-01
  8.50000000E-01  7.20000000E-01  7.20000000E-01  7.20000000E-01  8.50000000E-01
  7.20000000E-01  8.50000000E-01  8.50000000E-01  8.50000000E-01  7.20000000E-01
  7.20000000E-01  7.20000000E-01  7.20000000E-01  8.50000000E-01  7.20000000E-01
  8.50000000E-01  7.20000000E-01  8.50000000E-01  8.50000000E-01  7.20000000E-01
  8.50000000E-01  8.50000000E-01  7.20000000E-01  8.50000000E-01  8.50000000E-01
  8.50000000E-01  7.20000000E-01  8.50000000E-01  8.50000000E-01  7.20000000E-01
  8.50000000E-01  8.50000000E-01  7.20000000E-01  8.50000000E-01  8.50000000E-01
  7.20000000E-01  8.50000000E-01  8.50000000E-01  8.50000000E-01  8.50000000E-01
  7.20000000E-01  7.20000000E-01  8.50000000E-01  8.50000000E-01  8.50000000E-01
  7.20000000E-01  8.50000000E-01  8.50000000E-01  8.50000000E-01  8.50000000E-01
  9.60000000E-01  7.20000000E-01  7.20000000E-01  7.20000000E-01  7.20000000E-01
  7.20000000E-01  7.20000000E-01  7.20000000E-01  7.20000000E-01  9.60000000E-01
  7.20000000E-01  8.50000000E-01  7.20000000E-01  7.20000000E-01  8.50000000E-01
  7.20000000E-01  7.20000000E-01  7.20000000E-01  8.50000000E-01  7.20000000E-01
  8.50000000E-01  8.50000000E-01  8.50000000E-01  7.20000000E-01  7.20000000E-01
  7.20000000E-01  7.20000000E-01  8.50000000E-01  7.20000000E-01  8.50000000E-01
  7.20000000E-01  8.50000000E-01  8.50000000E-01  7.20000000E-01  8.50000000E-01
  8.50000000E-01  7.20000000E-01  8.50000000E-01  8.50000000E-01  8.50000000E-01
  7.20000000E-01  8.50000000E-01  8.50000000E-01  7.20000000E-01  8.50000000E-01
  8.50000000E-01  7.20000000E-01  8.50000000E-01  8.50000000E-01  7.20000000E-01
  8.50000000E-01  8.50000000E-01  8.50000000E-01  8.50000000E-01  7.20000000E-01
  7.20000000E-01  8.50000000E-01  8.50000000E-01  8.50000000E-01  7.20000000E-01
  8.50000000E-01  8.50000000E-01  8.50000000E-01  8.50000000E-01  9.60000000E-01
  7.20000000E-01  7.20000000E-01  7.20000000E-01  7.20000000E-01  7.20000000E-01
  7.20000000E-01  7.20000000E-01  7.20000000E-01  9.60000000E-01  7.20000000E-01
  8.50000000E-01  7.20000000E-01  7.20000000E-01  8.50000000E-01  7.20000000E-01
  7.20000000E-01  7.20000000E-01  8.50000000E-01  7.20000000E-01  8.50000000E-01
  8.50000000E-01  8.50000000E-01  7.20000000E-01  7.20000000E-01  7.20000000E-01
  7.20000000E-01  8.50000000E-01  7.20000000E-01  8.50000000E-01  7.20000000E-01
  8.50000000E-01  8.50000000E-01  7.20000000E-01  8.50000000E-01  8.50000000E-01
  7.20000000E-01  8.50000000E-01  8.50000000E-01  8.50000000E-01  7.20000000E-01
  8.50000000E-01  8.50000000E-01  7.20000000E-01  8.50000000E-01  8.50000000E-01
  7.20000000E-01  8.50000000E-01  8.50000000E-01  7.20000000E-01  8.50000000E-01
  8.50000000E-01  8.50000000E-01  8.50000000E-01  7.20000000E-01  7.20000000E-01
  8.50000000E-01  8.50000000E-01  8.50000000E-01  7.20000000E-01  8.50000000E-01
  8.50000000E-01  8.50000000E-01  8.50000000E-01  9.60000000E-01  7.20000000E-01
  7.20000000E-01  7.20000000E-01  7.20000000E-01  7.20000000E-01  7.20000000E-01
  7.20000000E-01  7.20000000E-01  9.60000000E-01  7.20000000E-01  8.50000000E-01
  7.20000000E-01  7.20000000E-01  8.50000000E-01  7.20000000E-01  7.20000000E-01
  7.20000000E-01  8.50000000E-01  7.20000000E-01  8.50000000E-01  8.50000000E-01
  8.50000000E-01  7.20000000E-01  7.20000000E-01  7.20000000E-01  7.20000000E-01
  8.50000000E-01  7.20000000E-01  8.50000000E-01  7.20000000E-01  8.50000000E-01
  8.50000000E-01  7.20000000E-01  8.50000000E-01  8.50000000E-01  7.20000000E-01
  8.50000000E-01  8.50000000E-01  8.50000000E-01  7.20000000E-01  8.50000000E-01
  8.50000000E-01  7.20000000E-01  8.50000000E-01  8.50000000E-01  7.20000000E-01
  8.50000000E-01  8.50000000E-01  7.20000000E-01  8.50000000E-01  8.50000000E-01
  8.50000000E-01  8.50000000E-01  7.20000000E-01  7.20000000E-01  8.50000000E-01
  8.50000000E-01  8.50000000E-01  7.20000000E-01  8.50000000E-01  8.50000000E-01
  8.50000000E-01  8.50000000E-01  9.60000000E-01  7.20000000E-01  7.20000000E-01
  7.20000000E-01  7.20000000E-01  7.20000000E-01  7.20000000E-01  7.20000000E-01
  7.20000000E-01  9.60000000E-01  7.20000000E-01  8.50000000E-01  7.20000000E-01
  7.20000000E-01  8.50000000E-01  7.20000000E-01  7.20000000E-01  7.20000000E-01
  8.50000000E-01  7.20000000E-01  8.50000000E-01  8.50000000E-01  8.50000000E-01
  7.20000000E-01  7.20000000E-01  7.20000000E-01  7.20000000E-01  8.50000000E-01
  7.20000000E-01  8.50000000E-01  7.20000000E-01  8.50000000E-01  8.50000000E-01
  7.20000000E-01  8.50000000E-01  8.50000000E-01  7.20000000E-01  8.50000000E-01
  8.50000000E-01  8.50000000E-01  7.20000000E-01  8.50000000E-01  8.50000000E-01
  7.20000000E-01  8.50000000E-01  8.50000000E-01  7.20000000E-01  8.50000000E-01
  8.50000000E-01  7.20000000E-01  8.50000000E-01  8.50000000E-01  8.50000000E-01
  8.50000000E-01  7.20000000E-01  7.20000000E-01  8.50000000E-01  8.50000000E-01
  8.50000000E-01  7.20000000E-01  8.50000000E-01  8.50000000E-01  8.50000000E-01
  8.50000000E-01  9.60000000E-01  7.20000000E-01  7.20000000E-01  7.20000000E-01
  7.20000000E-01  7.20000000E-01  7.20000000E-01  7.20000000E-01  7.20000000E-01
  9.60000000E-01  7.20000000E-01  8.50000000E-01  7.20000000E-01  7.20000000E-01
  8.50000000E-01  7.20000000E-01  7.20000000E-01  7.20000000E-01  8.50000000E-01
  7.20000000E-01  8.50000000E-01  8.50000000E-01  8.50000000E-01  7.20000000E-01
  7.20000000E-01  7.20000000E-01  7.20000000E-01  8.50000000E-01  7.20000000E-01
  8.50000000E-01  7.20000000E-01  8.50000000E-01  8.50000000E-01  7.20000000E-01
  8.50000000E-01  8.50000000E-01  7.20000000E-01  8.50000000E-01  8.50000000E-01
  8.50000000E-01  7.20000000E-01  8.50000000E-01  8.50000000E-01  7.20000000E-01
  8.50000000E-01  8.50000000E-01  7.20000000E-01  8.50000000E-01  8.50000000E-01
  7.20000000E-01  8.50000000E-01  8.50000000E-01  8.50000000E-01  8.50000000E-01
  7.20000000E-01  7.20000000E-01  8.50000000E-01  8.50000000E-01  8.50000000E-01
  7.20000000E-01  8.50000000E-01  8.50000000E-01  8.50000000E-01  8.50000000E-01
  9.60000000E-01  7.20000000E-01  7.20000000E-01  7.20000000E-01  7.20000000E-01
  7.20000000E-01  7.20000000E-01  7.20000000E-01  7.20000000E-01  9.60000000E-01
  7.20000000E-01  8.50000000E-01  7.20000000E-01  7.20000000E-01  8.50000000E-01
  7.20000000E-01  7.20000000E-01  7.20000000E-01  8.50000000E-01  7.20000000E-01
  8.50000000E-01  8.50000000E-01  8.50000000E-01  7.20000000E-01  7.20000000E-01
  7.20000000E-01  7.20000000E-01  8.50000000E-01  7.20000000E-01  8.50000000E-01
  7.20000000E-01  8.50000000E-01  8.50000000E-01  7.20000000E-01  8.50000000E-01
  8.50000000E-01  7.20000000E-01  8.50000000E-01  8.50000000E-01  8.50000000E-01
  7.20000000E-01  8.50000000E-01  8.50000000E-01  7.20000000E-01  8.50000000E-01
  8.50000000E-01  7.20000000E-01  8.50000000E-01  8.50000000E-01  7.20000000E-01
  8.50000000E-01  8.50000000E-01  8.50000000E-01  8.50000000E-01  7.20000000E-01
  7.20000000E-01  8.50000000E-01  8.50000000E-01  8.50000000E-01  7.20000000E-01
  8.50000000E-01  8.50000000E-01  8.50000000E-01  8.50000000E-01  9.60000000E-01
  7.20000000E-01  7.20000000E-01  7.20000000E-01  7.20000000E-01  7.20000000E-01
  7.20000000E-01  7.20000000E-01  7.20000000E-01  9.60000000E-01  7.20000000E-01
  8.50000000E-01  7.20000000E-01  7.20000000E-01  8.50000000E-01  7.20000000E-01
  7.20000000E-01  7.20000000E-01  8.50000000E-01  7.20000000E-01  8.50000000E-01
  8.50000000E-01  8.50000000E-01  7.20000000E-01  7.20000000E-01  7.20000000E-01
  7.20000000E-01  8.50000000E-01  7.20000000E-01  8.50000000E-01  7.20000000E-01
  8.50000000E-01  8.50000000E-01  7.20000000E-01  8.50000000E-01  8.50000000E-01
  7.20000000E-01  8.50000000E-01  8.50000000E-01  8.50000000E-01  7.20000000E-01
  8.50000000E-01  8.50000000E-01  7.20000000E-01  8.50000000E-01  8.50000000E-01
  7.20000000E-01  8.50000000E-01  8.50000000E-01  7.20000000E-01  8.50000000E-01
  8.50000000E-01  8.50000000E-01  8.50000000E-01  7.20000000E-01  7.20000000E-01
  8.50000000E-01  8.50000000E-01  8.50000000E-01  7.20000000E-01  8.50000000E-01
  8.50000000E-01  8.50000000E-01  8.50000000E-01  9.60000000E-01  7.20000000E-01
  7.20000000E-01  7.20000000E-01  7.20000000E-01  7.20000000E-01  7.20000000E-01
  7.20000000E-01  7.20000000E-01  9.60000000E-01  7.20000000E-01  8.50000000E-01
  7.20000000E-01  7.20000000E-01  8.50000000E-01  7.20000000E-01  7.20000000E-01
  7.20000000E-01  8.50000000E-01  7.20000000E-01  8.50000000E-01  8.50000000E-01
  8.50000000E-01  7.20000000E-01  7.20000000E-01  7.20000000E-01  7.20000000E-01
  8.50000000E-01  7.20000000E-01  8.50000000E-01  7.20000000E-01  8.50000000E-01
  8.50000000E-01  7.20000000E-01  8.50000000E-01  8.50000000E-01  7.20000000E-01
  8.50000000E-01  8.50000000E-01  8.50000000E-01  7.20000000E-01  8.50000000E-01
  8.50000000E-01  7.20000000E-01  8.50000000E-01  8.50000000E-01  7.20000000E-01
  8.50000000E-01  8.50000000E-01  7.20000000E-01  8.50000000E-01  8.50000000E-01
  8.50000000E-01  8.50000000E-01  7.20000000E-01  7.20000000E-01  8.50000000E-01
  8.50000000E-01  8.50000000E-01  7.20000000E-01  8.50000000E-01  8.50000000E-01
  8.50000000E-01  8.50000000E-01  9.60000000E-01  7.20000000E-01  7.20000000E-01
  7.20000000E-01  7.20000000E-01  7.20000000E-01  7.20000000E-01  7.20000000E-01
  7.20000000E-01  9.60000000E-01  7.20000000E-01  8.50000000E-01  7.20000000E-01
  7.20000000E-01  8.50000000E-01  7.20000000E-01  7.20000000E-01  7.20000000E-01
  8.50000000E-01  7.20000000E-01  8.50000000E-01  8.50000000E-01  8.50000000E-01
  7.20000000E-01  7.20000000E-01  7.20000000E-01  7.20000000E-01  8.50000000E-01
  7.20000000E-01  8.50000000E-01  7.20000000E-01  8.50000000E-01  8.50000000E-01
  7.20000000E-01  8.50000000E-01  8.50000000E-01  7.20000000E-01  8.50000000E-01
  8.50000000E-01  8.50000000E-01  7.20000000E-01  8.50000000E-01  8.50000000E-01
  7.20000000E-01  8.50000000E-01  8.50000000E-01  7.20000000E-01  8.50000000E-01
  8.50000000E-01  7.20000000E-01  8.50000000E-01  8.50000000E-01  8.50000000E-01
  8.50000000E-01  7.20000000E-01  7.20000000E-01  8.50000000E-01  8.50000000E-01
  8.50000000E-01  7.20000000E-01  8.50000000E-01  8.50000000E-01  8.50000000E-01
  8.50000000E-01  9.60000000E-01  7.20000000E-01  7.20000000E-01  7.20000000E-01
  7.20000000E-01  7.20000000E-01  7.20000000E-01  7.20000000E-01  7.20000000E-01
  9.60000000E-01  7.20000000E-01  8.50000000E-01  7.20000000E-01  7.20000000E-01
  8.50000000E-01  7.20000000E-01  7.20000000E-01  7.20000000E-01  8.50000000E-01
  7.20000000E-01  8.50000000E-01  8.50000000E-01  8.50000000E-01  7.20000000E-01
  7.20000000E-01  7.20000000E-01  7.20000000E-01  8.50000000E-01  7.20000000E-01
  8.50000000E-01  7.20000000E-01  8.50000000E-01  8.50000000E-01  7.20000000E-01
  8.50000000E-01  8.50000000E-01  7.20000000E-01  8.50000000E-01  8.50000000E-01
  8.50000000E-01  7.20000000E-01  8.50000000E-01  8.50000000E-01  7.20000000E-01
  8.50000000E-01  8.50000000E-01  7.20000000E-01  8.50000000E-01  8.50000000E-01
  7.20000000E-01  8.50000000E-01  8.50000000E-01  8.50000000E-01  8.50000000E-01
  7.20000000E-01  7.20000000E-01  8.50000000E-01  8.50000000E-01  8.50000000E-01
  7.20000000E-01  8.50000000E-01  8.50000000E-01  8.50000000E-01  8.50000000E-01
  9.60000000E-01  7.20000000E-01  7.20000000E-01  7.20000000E-01  7.20000000E-01
  7.20000000E-01  7.20000000E-01  7.20000000E-01  7.20000000E-01  9.60000000E-01
  7.20000000E-01  8.50000000E-01  7.20000000E-01  7.20000000E-01  8.50000000E-01
  7.20000000E-01  7.20000000E-01  7.20000000E-01  8.50000000E-01  7.20000000E-01
  8.50000000E-01  8.50000000E-01  8.50000000E-01  7.20000000E-01  7.20000000E-01
  7.20000000E-01  7.20000000E-01  8.50000000E-01  7.20000000E-01  8.50000000E-01
  7.20000000E-01  8.50000000E-01  8.50000000E-01  7.20000000E-01  8.50000000E-01
  8.50000000E-01  7.20000000E-01  8.50000000E-01  8.50000000E-01  8.50000000E-01
  7.20000000E-01  8.50000000E-01  8.50000000E-01  7.20000000E-01  8.50000000E-01
  8.50000000E-01  7.20000000E-01  8.50000000E-01  8.50000000E-01  7.20000000E-01
  8.50000000E-01  8.50000000E-01  8.50000000E-01  8.50000000E-01  7.20000000E-01
  7.20000000E-01  8.50000000E-01  8.50000000E-01  8.50000000E-01  7.20000000E-01
  8.50000000E-01  8.50000000E-01  8.50000000E-01  8.50000000E-01  9.60000000E-01
  7.20000000E-01  7.20000000E-01  7.20000000E-01  7.20000000E-01  7.20000000E-01
  7.20000000E-01  7.20000000E-01  7.20000000E-01  9.60000000E-01  7.20000000E-01
  8.50000000E-01  7.20000000E-01  7.20000000E-01  8.50000000E-01  7.20000000E-01
  7.20000000E-01  7.20000000E-01  8.50000000E-01  7.20000000E-01  8.50000000E-01
  8.50000000E-01  8.50000000E-01  7.20000000E-01  7.20000000E-01  7.20000000E-01
  7.20000000E-01  8.50000000E-01  7.20000000E-01  8.50000000E-01  7.20000000E-01
  8.50000000E-01  8.50000000E-01  7.20000000E-01  8.50000000E-01  8.50000000E-01
  7.20000000E-01  8.50000000E-01  8.50000000E-01  8.50000000E-01  7.20000000E-01
  8.50000000E-01  8.50000000E-01  7.20000000E-01  8.50000000E-01  8.50000000E-01
  7.20000000E-01  8.50000000E-01  8.50000000E-01  7.20000000E-01  8.50000000E-01
  8.50000000E-01  8.50000000E-01  8.50000000E-01  7.20000000E-01  7.20000000E-01
  8.50000000E-01  8.50000000E-01  8.50000000E-01  7.20000000E-01  8.50000000E-01
  8.50000000E-01  8.50000000E-01  8.50000000E-01  9.60000000E-01  7.20000000E-01
  7.20000000E-01  7.20000000E-01  7.20000000E-01  7.20000000E-01  7.20000000E-01
  7.20000000E-01  7.20000000E-01  9.60000000E-01  7.20000000E-01  8.50000000E-01
  7.20000000E-01  7.20000000E-01  8.50000000E-01  7.20000000E-01  7.20000000E-01
  7.20000000E-01  8.50000000E-01  7.20000000E-01  8.50000000E-01  8.50000000E-01
  8.50000000E-01  7.20000000E-01  7.20000000E-01  7.20000000E-01  7.20000000E-01
  8.50000000E-01  7.20000000E-01  8.50000000E-01  7.20000000E-01  8.50000000E-01
  8.50000000E-01  7.20000000E-01  8.50000000E-01  8.50000000E-01  7.20000000E-01
  8.50000000E-01  8.50000000E-01  8.50000000E-01  7.20000000E-01  8.50000000E-01
  8.50000000E-01  7.20000000E-01  8.50000000E-01  8.50000000E-01  7.20000000E-01
  8.50000000E-01  8.50000000E-01  7.20000000E-01  8.50000000E-01  8.50000000E-01
  8.50000000E-01  8.50000000E-01  7.20000000E-01  7.20000000E-01  8.50000000E-01
  8.50000000E-01  8.50000000E-01  7.20000000E-01  8.50000000E-01  8.50000000E-01
  8.50000000E-01  8.50000000E-01  9.60000000E-01  7.20000000E-01  7.20000000E-01
  7.20000000E-01  7.20000000E-01  7.20000000E-01  7.20000000E-01  7.20000000E-01
  7.20000000E-01  9.60000000E-01  7.20000000E-01  8.50000000E-01  7.20000000E-01
  7.20000000E-01  8.50000000E-01  7.20000000E-01  7.20000000E-01  7.20000000E-01
  8.50000000E-01  7.20000000E-01  8.50000000E-01  8.50000000E-01  8.50000000E-01
  7.20000000E-01  7.20000000E-01  7.20000000E-01  7.20000000E-01  8.50000000E-01
  7.20000000E-01  8.50000000E-01  7.20000000E-01  8.50000000E-01  8.50000000E-01
  7.20000000E-01  8.50000000E-01  8.50000000E-01  7.20000000E-01  8.50000000E-01
  8.50000000E-01  8.50000000E-01  7.20000000E-01  8.50000000E-01  8.50000000E-01
  7.20000000E-01  8.50000000E-01  8.50000000E-01  7.20000000E-01  8.50000000E-01
  8.50000000E-01  7.20000000E-01  8.50000000E-01  8.50000000E-01  8.50000000E-01
  8.50000000E-01  7.20000000E-01  7.20000000E-01  8.50000000E-01  8.50000000E-01
  8.50000000E-01  7.20000000E-01  8.50000000E-01  8.50000000E-01  8.50000000E-01
  8.50000000E-01  9.60000000E-01  7.20000000E-01  7.20000000E-01  7.20000000E-01
  7.20000000E-01  7.20000000E-01  7.20000000E-01  7.20000000E-01  7.20000000E-01
  9.60000000E-01  7.20000000E-01  8.50000000E-01  7.20000000E-01  7.20000000E-01
  8.50000000E-01  7.20000000E-01  7.20000000E-01  7.20000000E-01  8.50000000E-01
  7.20000000E-01  8.50000000E-01  8.50000000E-01  8.50000000E-01  7.20000000E-01
  7.20000000E-01  7.20000000E-01  7.20000000E-01  8.50000000E-01  7.20000000E-01
  8.50000000E-01  7.20000000E-01  8.50000000E-01  8.50000000E-01  7.20000000E-01
  8.50000000E-01  8.50000000E-01  7.20000000E-01  8.50000000E-01  8.50000000E-01
  8.50000000E-01  7.20000000E-01  8.50000000E-01  8.50000000E-01  7.20000000E-01
  8.50000000E-01  8.50000000E-01  7.20000000E-01  8.50000000E-01  8.50000000E-01
  7.20000000E-01  8.50000000E-01  8.50000000E-01  8.50000000E-01  8.50000000E-01
  7.20000000E-01  7.20000000E-01  8.50000000E-01  8.50000000E-01  8.50000000E-01
  7.20000000E-01  8.50000000E-01  8.50000000E-01  8.50000000E-01  8.50000000E-01
  9.60000000E-01  7.20000000E-01  7.20000000E-01  7.20000000E-01  7.20000000E-01
  7.20000000E-01  7.20000000E-01  7.20000000E-01  7.20000000E-01  9.60000000E-01
  7.20000000E-01  8.50000000E-01  7.20000000E-01  7.20000000E-01  8.50000000E-01
  7.20000000E-01  7.20000000E-01  7.20000000E-01  8.50000000E-01  7.20000000E-01
  8.50000000E-01  8.50000000E-01  8.50000000E-01  7.20000000E-01  7.20000000E-01
  7.20000000E-01  7.20000000E-01  8.50000000E-01  7.20000000E-01  8.50000000E-01
  7.20000000E-01  8.50000000E-01  8.50000000E-01  7.20000000E-01  8.50000000E-01
  8.50000000E-01  7.20000000E-01  8.50000000E-01  8.50000000E-01  8.50000000E-01
  7.20000000E-01  8.50000000E-01  8.50000000E-01  7.20000000E-01  8.50000000E-01
  8.50000000E-01  7.20000000E-01  8.50000000E-01  8.50000000E-01  7.20000000E-01
  8.50000000E-01  8.50000000E-01  8.50000000E-01  8.50000000E-01  7.20000000E-01
  7.20000000E-01  8.50000000E-01  8.50000000E-01  8.50000000E-01  7.20000000E-01
  8.50000000E-01  8.50000000E-01  8.50000000E-01  8.50000000E-01  9.60000000E-01
  7.20000000E-01  7.20000000E-01  7.20000000E-01  7.20000000E-01  7.20000000E-01
  7.20000000E-01  7.20000000E-01  7.20000000E-01  9.60000000E-01  7.20000000E-01
  8.50000000E-01  7.20000000E-01  7.20000000E-01  8.50000000E-01  7.20000000E-01
  7.20000000E-01  7.20000000E-01  8.50000000E-01  7.20000000E-01  8.50000000E-01
  8.50000000E-01  8.50000000E-01  7.20000000E-01  7.20000000E-01  7.20000000E-01
  7.20000000E-01  8.50000000E-01  7.20000000E-01  8.50000000E-01  7.20000000E-01
  8.50000000E-01  8.50000000E-01  7.20000000E-01  8.50000000E-01  8.50000000E-01
  7.20000000E-01  8.50000000E-01  8.50000000E-01  8.50000000E-01  7.20000000E-01
  8.50000000E-01  8.50000000E-01  7.20000000E-01  8.50000000E-01  8.50000000E-01
  7.20000000E-01  8.50000000E-01  8.50000000E-01  7.20000000E-01  8.50000000E-01
  8.50000000E-01  8.50000000E-01  8.50000000E-01  7.20000000E-01  7.20000000E-01
  8.50000000E-01  8.50000000E-01  8.50000000E-01  7.20000000E-01  8.50000000E-01
  8.50000000E-01  8.50000000E-01  8.50000000E-01  9.60000000E-01  7.20000000E-01
  7.20000000E-01  7.20000000E-01  7.20000000E-01  7.20000000E-01  7.20000000E-01
  7.20000000E-01  7.20000000E-01  9.60000000E-01  7.20000000E-01  8.50000000E-01
  7.20000000E-01  7.20000000E-01  8.50000000E-01  7.20000000E-01  7.20000000E-01
  7.20000000E-01  8.50000000E-01  7.20000000E-01  8.50000000E-01  8.50000000E-01
  8.50000000E-01  7.20000000E-01  7.20000000E-01  7.20000000E-01  7.20000000E-01
  8.50000000E-01  7.20000000E-01  8.50000000E-01  7.20000000E-01  8.50000000E-01
  8.50000000E-01  7.20000000E-01  8.50000000E-01  8.50000000E-01  7.20000000E-01
  8.50000000E-01  8.50000000E-01  8.50000000E-01  7.20000000E-01  8.50000000E-01
  8.50000000E-01  7.20000000E-01  8.50000000E-01  8.50000000E-01  7.20000000E-01
  8.50000000E-01  8.50000000E-01  7.20000000E-01  8.50000000E-01  8.50000000E-01
  8.50000000E-01  8.50000000E-01  7.20000000E-01  7.20000000E-01  8.50000000E-01
  8.50000000E-01  8.50000000E-01  7.20000000E-01  8.50000000E-01  8.50000000E-01
  8.50000000E-01  8.50000000E-01  9.60000000E-01  7.20000000E-01  7.20000000E-01
  7.20000000E-01  7.20000000E-01  7.20000000E-01  7.20000000E-01  7.20000000E-01
  7.20000000E-01  9.60000000E-01  7.20000000E-01  8.50000000E-01  7.20000000E-01
  7.20000000E-01  8.50000000E-01  7.20000000E-01  7.20000000E-01  7.20000000E-01
  8.50000000E-01  7.20000000E-01  8.50000000E-01  8.50000000E-01  8.50000000E-01
  7.20000000E-01  7.20000000E-01  7.20000000E-01  7.20000000E-01  8.50000000E-01
  7.20000000E-01  8.50000000E-01  7.20000000E-01  8.50000000E-01  8.50000000E-01
  7.20000000E-01  8.50000000E-01  8.50000000E-01  7.20000000E-01  8.50000000E-01
  8.50000000E-01  8.50000000E-01  7.20000000E-01  8.50000000E-01  8.50000000E-01
  7.20000000E-01  8.50000000E-01  8.50000000E-01  7.20000000E-01  8.50000000E-01
  8.50000000E-01  7.20000000E-01  8.50000000E-01  8.50000000E-01  8.50000000E-01
  8.50000000E-01  7.20000000E-01  7.20000000E-01  8.50000000E-01  8.50000000E-01
  8.50000000E-01  7.20000000E-01  8.50000000E-01  8.50000000E-01  8.50000000E-01
  8.50000000E-01  9.60000000E-01  7.20000000E-01  7.20000000E-01  7.20000000E-01
  7.20000000E-01  7.20000000E-01  7.20000000E-01  7.20000000E-01  7.20000000E-01
  9.60000000E-01  7.20000000E-01  8.50000000E-01  7.20000000E-01  7.20000000E-01
  8.50000000E-01  7.20000000E-01  7.20000000E-01  7.20000000E-01  8.50000000E-01
  7.20000000E-01  8.50000000E-01  8.50000000E-01  8.50000000E-01  7.20000000E-01
  7.20000000E-01  7.20000000E-01  7.20000000E-01  8.50000000E-01  7.20000000E-01
  8.50000000E-01  7.20000000E-01  8.50000000E-01  8.50000000E-01  7.20000000E-01
  8.50000000E-01  8.50000000E-01  7.20000000E-01  8.50000000E-01  8.50000000E-01
  8.50000000E-01  7.20000000E-01  8.50000000E-01  8.50000000E-01  7.20000000E-01
  8.50000000E-01  8.50000000E-01  7.20000000E-01  8.50000000E-01  8.50000000E-01
  7.20000000E-01  8.50000000E-01  8.50000000E-01  8.50000000E-01  8.50000000E-01
  7.20000000E-01  7.20000000E-01  8.50000000E-01  8.50000000E-01  8.50000000E-01
  7.20000000E-01  8.50000000E-01  8.50000000E-01  8.50000000E-01  8.50000000E-01
  9.60000000E-01  7.20000000E-01  7.20000000E-01  7.20000000E-01  7.20000000E-01
  7.20000000E-01  7.20000000E-01  7.20000000E-01  7.20000000E-01  9.60000000E-01
  7.20000000E-01  8.50000000E-01  7.20000000E-01  7.20000000E-01  8.50000000E-01
  7.20000000E-01  7.20000000E-01  7.20000000E-01  8.50000000E-01  7.20000000E-01
  8.50000000E-01  8.50000000E-01  8.50000000E-01  7.20000000E-01  7.20000000E-01
  7.20000000E-01  7.20000000E-01  8.50000000E-01  7.20000000E-01  8.50000000E-01
  7.20000000E-01  8.50000000E-01  8.50000000E-01  7.20000000E-01  8.50000000E-01
  8.50000000E-01  7.20000000E-01  8.50000000E-01  8.50000000E-01  8.50000000E-01
  7.20000000E-01  8.50000000E-01  8.50000000E-01  7.20000000E-01  8.50000000E-01
  8.50000000E-01  7.20000000E-01  8.50000000E-01  8.50000000E-01  7.20000000E-01
  8.50000000E-01  8.50000000E-01  8.50000000E-01  8.50000000E-01  7.20000000E-01
  7.20000000E-01  8.50000000E-01  8.50000000E-01  8.50000000E-01  7.20000000E-01
  8.50000000E-01  8.50000000E-01  8.50000000E-01  8.50000000E-01  9.60000000E-01
  7.20000000E-01  7.20000000E-01  7.20000000E-01  7.20000000E-01  7.20000000E-01
  7.20000000E-01  7.20000000E-01  7.20000000E-01  9.60000000E-01  7.20000000E-01
  8.50000000E-01  7.20000000E-01  7.20000000E-01  8.50000000E-01  7.20000000E-01
  7.20000000E-01  7.20000000E-01  8.50000000E-01  7.20000000E-01  8.50000000E-01
  8.50000000E-01  8.50000000E-01  7.20000000E-01  7.20000000E-01  7.20000000E-01
  7.20000000E-01  8.50000000E-01  7.20000000E-01  8.50000000E-01  7.20000000E-01
  8.50000000E-01  8.50000000E-01  7.20000000E-01  8.50000000E-01  8.50000000E-01
  7.20000000E-01  8.50000000E-01  8.50000000E-01  8.50000000E-01  7.20000000E-01
  8.50000000E-01  8.50000000E-01  7.20000000E-01  8.50000000E-01  8.50000000E-01
  7.20000000E-01  8.50000000E-01  8.50000000E-01  7.20000000E-01  8.50000000E-01
  8.50000000E-01  8.50000000E-01  8.50000000E-01  7.20000000E-01  7.20000000E-01
  8.50000000E-01  8.50000000E-01  8.50000000E-01  7.20000000E-01  8.50000000E-01
  8.50000000E-01  8.50000000E-01  8.50000000E-01  9.60000000E-01  7.20000000E-01
  7.20000000E-01  7.20000000E-01  7.20000000E-01  7.20000000E-01  7.20000000E-01
  7.20000000E-01  7.20000000E-01  9.60000000E-01  7.20000000E-01  8.50000000E-01
  7.20000000E-01  7.20000000E-01  8.50000000E-01  7.20000000E-01  7.20000000E-01
  7.20000000E-01  8.50000000E-01  7.20000000E-01  8.50000000E-01  8.50000000E-01
  8.50000000E-01  7.20000000E-01  7.20000000E-01  7.20000000E-01  7.20000000E-01
  8.50000000E-01  7.20000000E-01  8.50000000E-01  7.20000000E-01  8.50000000E-01
  8.50000000E-01  7.20000000E-01  8.50000000E-01  8.50000000E-01  7.20000000E-01
  8.50000000E-01  8.50000000E-01  8.50000000E-01  7.20000000E-01  8.50000000E-01
  8.50000000E-01  7.20000000E-01  8.50000000E-01  8.50000000E-01  7.20000000E-01
  8.50000000E-01  8.50000000E-01  7.20000000E-01  8.50000000E-01  8.50000000E-01
  8.50000000E-01  8.50000000E-01  7.20000000E-01  7.20000000E-01  8.50000000E-01
  8.50000000E-01  8.50000000E-01  7.20000000E-01  8.50000000E-01  8.50000000E-01
  8.50000000E-01  8.50000000E-01  9.60000000E-01  7.20000000E-01  7.20000000E-01
  7.20000000E-01  7.20000000E-01  7.20000000E-01  7.20000000E-01  7.20000000E-01
  7.20000000E-01  9.60000000E-01  7.20000000E-01  8.50000000E-01  7.20000000E-01
  7.20000000E-01  8.50000000E-01  7.20000000E-01  7.20000000E-01  7.20000000E-01
  8.50000000E-01  7.20000000E-01  8.50000000E-01  8.50000000E-01  8.50000000E-01
  7.20000000E-01  7.20000000E-01  7.20000000E-01  7.20000000E-01  8.50000000E-01
  7.20000000E-01  8.50000000E-01  7.20000000E-01  8.50000000E-01  8.50000000E-01
  7.20000000E-01  8.50000000E-01  8.50000000E-01  7.20000000E-01  8.50000000E-01
  8.50000000E-01  8.50000000E-01  7.20000000E-01  8.50000000E-01  8.50000000E-01
  7.20000000E-01  8.50000000E-01  8.50000000E-01  7.20000000E-01  8.50000000E-01
  8.50000000E-01  7.20000000E-01  8.50000000E-01  8.50000000E-01  8.50000000E-01
  8.50000000E-01  7.20000000E-01  7.20000000E-01  8.50000000E-01  8.50000000E-01
  8.50000000E-01  7.20000000E-01  8.50000000E-01  8.50000000E-01  8.50000000E-01
  8.50000000E-01  9.60000000E-01  7.20000000E-01  7.20000000E-01  7.20000000E-01
  7.20000000E-01  7.20000000E-01  7.20000000E-01  7.20000000E-01  7.20000000E-01
  9.60000000E-01  7.20000000E-01  8.50000000E-01  7.20000000E-01  7.20000000E-01
  8.50000000E-01  7.20000000E-01  7.20000000E-01  7.20000000E-01  8.50000000E-01
  7.20000000E-01  8.50000000E-01  8.50000000E-01  8.50000000E-01  7.20000000E-01
  7.20000000E-01  7.20000000E-01  7.20000000E-01  8.50000000E-01  7.20000000E-01
  8.50000000E-01  7.20000000E-01  8.50000000E-01  8.50000000E-01  7.20000000E-01
  8.50000000E-01  8.50000000E-01  7.20000000E-01  8.50000000E-01  8.50000000E-01
  8.50000000E-01  7.20000000E-01  8.50000000E-01  8.50000000E-01  7.20000000E-01
  8.50000000E-01  8.50000000E-01  7.20000000E-01  8.50000000E-01  8.50000000E-01
  7.20000000E-01  8.50000000E-01  8.50000000E-01  8.50000000E-01  8.50000000E-01
  7.20000000E-01  7.20000000E-01  8.50000000E-01  8.50000000E-01  8.50000000E-01
  7.20000000E-01  8.50000000E-01  8.50000000E-01  8.50000000E-01  8.50000000E-01
  9.60000000E-01  7.20000000E-01  7.20000000E-01  7.20000000E-01  7.20000000E-01
  7.20000000E-01  7.20000000E-01  7.20000000E-01  7.20000000E-01  9.60000000E-01
  7.20000000E-01  8.50000000E-01  7.20000000E-01  7.20000000E-01  8.50000000E-01
  7.20000000E-01  7.20000000E-01  7.20000000E-01  8.50000000E-01  7.20000000E-01
  8.50000000E-01  8.50000000E-01  8.50000000E-01  7.20000000E-01  7.20000000E-01
  7.20000000E-01  7.20000000E-01  8.50000000E-01  7.20000000E-01  8.50000000E-01
  7.20000000E-01  8.50000000E-01  8.50000000E-01  7.20000000E-01  8.50000000E-01
  8.50000000E-01  7.20000000E-01  8.50000000E-01  8.50000000E-01  8.50000000E-01
  7.20000000E-01  8.50000000E-01  8.50000000E-01  7.20000000E-01  8.50000000E-01
  8.50000000E-01  7.20000000E-01  8.50000000E-01  8.50000000E-01  7.20000000E-01
  8.50000000E-01  8.50000000E-01  8.50000000E-01  8.50000000E-01  7.20000000E-01
  7.20000000E-01  8.50000000E-01  8.50000000E-01  8.50000000E-01  7.20000000E-01
  8.50000000E-01  8.50000000E-01  8.50000000E-01  8.50000000E-01  9.60000000E-01
  7.20000000E-01  7.20000000E-01  7.20000000E-01  7.20000000E-01  7.20000000E-01
  7.20000000E-01  7.20000000E-01  7.20000000E-01  9.60000000E-01  7.20000000E-01
  8.50000000E-01  7.20000000E-01  7.20000000E-01  8.50000000E-01  7.20000000E-01
  7.20000000E-01  7.20000000E-01  8.50000000E-01  7.20000000E-01  8.50000000E-01
  8.50000000E-01  8.50000000E-01  7.20000000E-01  7.20000000E-01  7.20000000E-01
  7.20000000E-01  8.50000000E-01  7.20000000E-01  8.50000000E-01  7.20000000E-01
  8.50000000E-01  8.50000000E-01  7.20000000E-01  8.50000000E-01  8.50000000E-01
  7.20000000E-01  8.50000000E-01  8.50000000E-01  8.50000000E-01  7.20000000E-01
  8.50000000E-01  8.50000000E-01  7.20000000E-01  8.50000000E-01  8.50000000E-01
  7.20000000E-01  8.50000000E-01  8.50000000E-01  7.20000000E-01  8.50000000E-01
  8.50000000E-01  8.50000000E-01  8.50000000E-01  7.20000000E-01  7.20000000E-01
  8.50000000E-01  8.50000000E-01  8.50000000E-01  7.20000000E-01  8.50000000E-01
  8.50000000E-01  8.50000000E-01  8.50000000E-01  9.60000000E-01  7.20000000E-01
  7.20000000E-01  7.20000000E-01  7.20000000E-01  7.20000000E-01  7.20000000E-01
  7.20000000E-01  7.20000000E-01  9.60000000E-01  7.20000000E-01  8.50000000E-01
  7.20000000E-01  7.20000000E-01  8.50000000E-01  7.20000000E-01  7.20000000E-01
  7.20000000E-01  8.50000000E-01  7.20000000E-01  8.50000000E-01  8.50000000E-01
  8.50000000E-01  7.20000000E-01  7.20000000E-01  7.20000000E-01  7.20000000E-01
  8.50000000E-01  7.20000000E-01  8.50000000E-01  7.20000000E-01  8.50000000E-01
  8.50000000E-01  7.20000000E-01  8.50000000E-01  8.50000000E-01  7.20000000E-01
  8.50000000E-01  8.50000000E-01  8.50000000E-01  7.20000000E-01  8.50000000E-01
  8.50000000E-01  7.20000000E-01  8.50000000E-01  8.50000000E-01  7.20000000E-01
  8.50000000E-01  8.50000000E-01  7.20000000E-01  8.50000000E-01  8.50000000E-01
  8.50000000E-01  8.50000000E-01  7.20000000E-01  7.20000000E-01  8.50000000E-01
  8.50000000E-01  8.50000000E-01  7.20000000E-01  8.50000000E-01  8.50000000E-01
  8.50000000E-01  8.50000000E-01  9.60000000E-01  7.20000000E-01  7.20000000E-01
  7.20000000E-01  7.20000000E-01  7.20000000E-01  7.20000000E-01  7.20000000E-01
  7.20000000E-01  9.60000000E-01  7.20000000E-01  8.50000000E-01  7.20000000E-01
  7.20000000E-01  8.50000000E-01  7.20000000E-01  7.20000000E-01  7.20000000E-01
  8.50000000E-01  7.20000000E-01  8.50000000E-01  8.50000000E-01  8.50000000E-01
  7.20000000E-01  7.20000000E-01  7.20000000E-01  7.20000000E-01  8.50000000E-01
  7.20000000E-01  8.50000000E-01  7.20000000E-01  8.50000000E-01  8.50000000E-01
  7.20000000E-01  8.50000000E-01  8.50000000E-01  7.20000000E-01  8.50000000E-01
  8.50000000E-01  8.50000000E-01  7.20000000E-01  8.50000000E-01  8.50000000E-01
  7.20000000E-01  8.50000000E-01  8.50000000E-01  7.20000000E-01  8.50000000E-01
  8.50000000E-01  7.20000000E-01  8.50000000E-01  8.50000000E-01  8.50000000E-01
  8.50000000E-01  7.20000000E-01  7.20000000E-01  8.50000000E-01  8.50000000E-01
  8.50000000E-01  7.20000000E-01  8.50000000E-01  8.50000000E-01  8.50000000E-01
  8.50000000E-01  9.60000000E-01  7.20000000E-01  7.20000000E-01  7.20000000E-01
  7.20000000E-01  7.20000000E-01  7.20000000E-01  7.20000000E-01  7.20000000E-01
  9.60000000E-01  7.20000000E-01  8.50000000E-01  7.20000000E-01  7.20000000E-01
  8.50000000E-01  7.20000000E-01  7.20000000E-01  7.20000000E-01  8.50000000E-01
  7.20000000E-01  8.50000000E-01  8.50000000E-01  8.50000000E-01  7.20000000E-01
  7.20000000E-01  7.20000000E-01  7.20000000E-01  8.50000000E-01  7.20000000E-01
  8.50000000E-01  7.20000000E-01  8.50000000E-01  8.50000000E-01  7.20000000E-01
  8.50000000E-01  8.50000000E-01  7.20000000E-01  8.50000000E-01  8.50000000E-01
  8.50000000E-01  7.20000000E-01  8.50000000E-01  8.50000000E-01  7.20000000E-01
  8.50000000E-01  8.50000000E-01  7.20000000E-01  8.50000000E-01  8.50000000E-01
  7.20000000E-01  8.50000000E-01  8.50000000E-01  8.50000000E-01  8.50000000E-01
  7.20000000E-01  7.20000000E-01  8.50000000E-01  8.50000000E-01  8.50000000E-01
  7.20000000E-01  8.50000000E-01  8.50000000E-01  8.50000000E-01  8.50000000E-01
  9.60000000E-01  7.20000000E-01  7.20000000E-01  7.20000000E-01  7.20000000E-01
  7.20000000E-01  7.20000000E-01  7.20000000E-01  7.20000000E-01  9.60000000E-01
  7.20000000E-01  8.50000000E-01  7.20000000E-01  7.20000000E-01  8.50000000E-01
  7.20000000E-01  7.20000000E-01  7.20000000E-01  8.50000000E-01  7.20000000E-01
  8.50000000E-01  8.50000000E-01  8.50000000E-01  7.20000000E-01  7.20000000E-01
  7.20000000E-01  7.20000000E-01  8.50000000E-01  7.20000000E-01  8.50000000E-01
  7.20000000E-01  8.50000000E-01  8.50000000E-01  7.20000000E-01  8.50000000E-01
  8.50000000E-01  7.20000000E-01  8.50000000E-01  8.50000000E-01  8.50000000E-01
  7.20000000E-01  8.50000000E-01  8.50000000E-01  7.20000000E-01  8.50000000E-01
  8.50000000E-01  7.20000000E-01  8.50000000E-01  8.50000000E-01  7.20000000E-01
  8.50000000E-01  8.50000000E-01  8.50000000E-01  8.50000000E-01  7.20000000E-01
  7.20000000E-01  8.50000000E-01  8.50000000E-01  8.50000000E-01  7.20000000E-01
  8.50000000E-01  8.50000000E-01  8.50000000E-01  8.50000000E-01  9.60000000E-01
  7.20000000E-01  7.20000000E-01  7.20000000E-01  7.20000000E-01  7.20000000E-01
  7.20000000E-01  7.20000000E-01  7.20000000E-01  9.60000000E-01  7.20000000E-01
  8.50000000E-01  7.20000000E-01  7.20000000E-01  8.50000000E-01  7.20000000E-01
  7.20000000E-01  7.20000000E-01  8.50000000E-01  7.20000000E-01  8.50000000E-01
  8.50000000E-01  8.50000000E-01  7.20000000E-01  7.20000000E-01  7.20000000E-01
  7.20000000E-01  8.50000000E-01  7.20000000E-01  8.50000000E-01  7.20000000E-01
  8.50000000E-01  8.50000000E-01  7.20000000E-01  8.50000000E-01  8.50000000E-01
  7.20000000E-01  8.50000000E-01  8.50000000E-01  8.50000000E-01  7.20000000E-01
  8.50000000E-01  8.50000000E-01  7.20000000E-01  8.50000000E-01  8.50000000E-01
  7.20000000E-01  8.50000000E-01  8.50000000E-01  7.20000000E-01  8.50000000E-01
  8.50000000E-01  8.50000000E-01  8.50000000E-01  7.20000000E-01  7.20000000E-01
  8.50000000E-01  8.50000000E-01  8.50000000E-01  7.20000000E-01  8.50000000E-01
  8.50000000E-01  8.50000000E-01  8.50000000E-01  9.60000000E-01  7.20000000E-01
  7.20000000E-01  7.20000000E-01  7.20000000E-01  7.20000000E-01  7.20000000E-01
  7.20000000E-01  7.20000000E-01  9.60000000E-01  7.20000000E-01  8.50000000E-01
  7.20000000E-01  7.20000000E-01  8.50000000E-01  7.20000000E-01  7.20000000E-01
  7.20000000E-01  8.50000000E-01  7.20000000E-01  8.50000000E-01  8.50000000E-01
  8.50000000E-01  7.20000000E-01  7.20000000E-01  7.20000000E-01  7.20000000E-01
  8.50000000E-01  7.20000000E-01  8.50000000E-01  7.20000000E-01  8.50000000E-01
  8.50000000E-01  7.20000000E-01  8.50000000E-01  8.50000000E-01  7.20000000E-01
  8.50000000E-01  8.50000000E-01  8.50000000E-01  7.20000000E-01  8.50000000E-01
  8.50000000E-01  7.20000000E-01  8.50000000E-01  8.50000000E-01  7.20000000E-01
  8.50000000E-01  8.50000000E-01  7.20000000E-01  8.50000000E-01  8.50000000E-01
  8.50000000E-01  8.50000000E-01  7.20000000E-01  7.20000000E-01  8.50000000E-01
  8.50000000E-01  8.50000000E-01  7.20000000E-01  8.50000000E-01  8.50000000E-01
  8.50000000E-01  8.50000000E-01  9.60000000E-01  7.20000000E-01  7.20000000E-01
  7.20000000E-01  7.20000000E-01  7.20000000E-01  7.20000000E-01  7.20000000E-01
  7.20000000E-01  9.60000000E-01  7.20000000E-01  8.50000000E-01  7.20000000E-01
  7.20000000E-01  8.50000000E-01  7.20000000E-01  7.20000000E-01  7.20000000E-01
  8.50000000E-01  7.20000000E-01  8.50000000E-01  8.50000000E-01  8.50000000E-01
  7.20000000E-01  7.20000000E-01  7.20000000E-01  7.20000000E-01  8.50000000E-01
  7.20000000E-01  8.50000000E-01  7.20000000E-01  8.50000000E-01  8.50000000E-01
  7.20000000E-01  8.50000000E-01  8.50000000E-01  7.20000000E-01  8.50000000E-01
  8.50000000E-01  8.50000000E-01  7.20000000E-01  8.50000000E-01  8.50000000E-01
  7.20000000E-01  8.50000000E-01  8.50000000E-01  7.20000000E-01  8.50000000E-01
  8.50000000E-01  7.20000000E-01  8.50000000E-01  8.50000000E-01  8.50000000E-01
  8.50000000E-01  7.20000000E-01  7.20000000E-01  8.50000000E-01  8.50000000E-01
  8.50000000E-01  7.20000000E-01  8.50000000E-01  8.50000000E-01  8.50000000E-01
  8.50000000E-01  9.60000000E-01  7.20000000E-01  7.20000000E-01  7.20000000E-01
  7.20000000E-01  7.20000000E-01  7.20000000E-01  7.20000000E-01  7.20000000E-01
  9.60000000E-01  7.20000000E-01  8.50000000E-01  7.20000000E-01  7.20000000E-01
  8.50000000E-01  7.20000000E-01  7.20000000E-01  7.20000000E-01  8.50000000E-01
  7.20000000E-01  8.50000000E-01  8.50000000E-01  8.50000000E-01  7.20000000E-01
  7.20000000E-01  7.20000000E-01  7.20000000E-01  8.50000000E-01  7.20000000E-01
  8.50000000E-01  7.20000000E-01  8.50000000E-01  8.50000000E-01  7.20000000E-01
  8.50000000E-01  8.50000000E-01  7.20000000E-01  8.50000000E-01  8.50000000E-01
  8.50000000E-01  7.20000000E-01  8.50000000E-01  8.50000000E-01  7.20000000E-01
  8.50000000E-01  8.50000000E-01  7.20000000E-01  8.50000000E-01  8.50000000E-01
  7.20000000E-01  8.50000000E-01  8.50000000E-01  8.50000000E-01  8.50000000E-01
  7.20000000E-01  7.20000000E-01  8.50000000E-01  8.50000000E-01  8.50000000E-01
  7.20000000E-01  8.50000000E-01  8.50000000E-01  8.50000000E-01  8.50000000E-01
  9.60000000E-01  7.20000000E-01  7.20000000E-01  7.20000000E-01  7.20000000E-01
  7.20000000E-01  7.20000000E-01  7.20000000E-01  7.20000000E-01  9.60000000E-01
  7.20000000E-01  8.50000000E-01  7.20000000E-01  7.20000000E-01  8.50000000E-01
  7.20000000E-01  7.20000000E-01  7.20000000E-01  8.50000000E-01  7.20000000E-01
  8.50000000E-01  8.50000000E-01  8.50000000E-01  7.20000000E-01  7.20000000E-01
  7.20000000E-01  7.20000000E-01  8.50000000E-01  7.20000000E-01  8.50000000E-01
  7.20000000E-01  8.50000000E-01  8.50000000E-01  7.20000000E-01  8.50000000E-01
  8.50000000E-01  7.20000000E-01  8.50000000E-01  8.50000000E-01  8.50000000E-01
  7.20000000E-01  8.50000000E-01  8.50000000E-01  7.20000000E-01  8.50000000E-01
  8.50000000E-01  7.20000000E-01  8.50000000E-01  8.50000000E-01  7.20000000E-01
  8.50000000E-01  8.50000000E-01  8.50000000E-01  8.50000000E-01  7.20000000E-01
  7.20000000E-01  8.50000000E-01  8.50000000E-01  8.50000000E-01  7.20000000E-01
  8.50000000E-01  8.50000000E-01  8.50000000E-01  8.50000000E-01  9.60000000E-01
  7.20000000E-01  7.20000000E-01  7.20000000E-01  7.20000000E-01  7.20000000E-01
  7.20000000E-01  7.20000000E-01  7.20000000E-01  9.60000000E-01  7.20000000E-01
  8.50000000E-01  7.20000000E-01  7.20000000E-01  8.50000000E-01  7.20000000E-01
  7.20000000E-01  7.20000000E-01  8.50000000E-01  7.20000000E-01  8.50000000E-01
  8.50000000E-01  8.50000000E-01  7.20000000E-01  7.20000000E-01  7.20000000E-01
  7.20000000E-01  8.50000000E-01  7.20000000E-01  8.50000000E-01  7.20000000E-01
  8.50000000E-01  8.50000000E-01  7.20000000E-01  8.50000000E-01  8.50000000E-01
  7.20000000E-01  8.50000000E-01  8.50000000E-01  8.50000000E-01  7.20000000E-01
  8.50000000E-01  8.50000000E-01  7.20000000E-01  8.50000000E-01  8.50000000E-01
  7.20000000E-01  8.50000000E-01  8.50000000E-01  7.20000000E-01  8.50000000E-01
  8.50000000E-01  8.50000000E-01  8.50000000E-01  7.20000000E-01  7.20000000E-01
  8.50000000E-01  8.50000000E-01  8.50000000E-01  7.20000000E-01  8.50000000E-01
  8.50000000E-01  8.50000000E-01  8.50000000E-01  9.60000000E-01  7.20000000E-01
  7.20000000E-01  7.20000000E-01  7.20000000E-01  7.20000000E-01  7.20000000E-01
  7.20000000E-01  7.20000000E-01  9.60000000E-01  7.20000000E-01  8.50000000E-01
  7.20000000E-01  7.20000000E-01  8.50000000E-01  7.20000000E-01  7.20000000E-01
  7.20000000E-01  8.50000000E-01  7.20000000E-01  8.50000000E-01  8.50000000E-01
  8.50000000E-01  7.20000000E-01  7.20000000E-01  7.20000000E-01  7.20000000E-01
  8.50000000E-01  7.20000000E-01  8.50000000E-01  7.20000000E-01  8.50000000E-01
  8.50000000E-01  7.20000000E-01  8.50000000E-01  8.50000000E-01  7.20000000E-01
  8.50000000E-01  8.50000000E-01  8.50000000E-01  7.20000000E-01  8.50000000E-01
  8.50000000E-01  7.20000000E-01  8.50000000E-01  8.50000000E-01  7.20000000E-01
  8.50000000E-01  8.50000000E-01  7.20000000E-01  8.50000000E-01  8.50000000E-01
  8.50000000E-01  8.50000000E-01  7.20000000E-01  7.20000000E-01  8.50000000E-01
  8.50000000E-01  8.50000000E-01  7.20000000E-01  8.50000000E-01  8.50000000E-01
  8.50000000E-01  8.50000000E-01  9.60000000E-01  7.20000000E-01  7.20000000E-01
  7.20000000E-01  7.20000000E-01  7.20000000E-01  7.20000000E-01  7.20000000E-01
  7.20000000E-01  9.60000000E-01  7.20000000E-01  8.50000000E-01  7.20000000E-01
  7.20000000E-01  8.50000000E-01  7.20000000E-01  7.20000000E-01  7.20000000E-01
  8.50000000E-01  7.20000000E-01  8.50000000E-01  8.50000000E-01  8.50000000E-01
  7.20000000E-01  7.20000000E-01  7.20000000E-01  7.20000000E-01  8.50000000E-01
  7.20000000E-01  8.50000000E-01  7.20000000E-01  8.50000000E-01  8.50000000E-01
  7.20000000E-01  8.50000000E-01  8.50000000E-01  7.20000000E-01  8.50000000E-01
  8.50000000E-01  8.50000000E-01  7.20000000E-01  8.50000000E-01  8.50000000E-01
  7.20000000E-01  8.50000000E-01  8.50000000E-01  7.20000000E-01  8.50000000E-01
  8.50000000E-01  7.20000000E-01  8.50000000E-01  8.50000000E-01  8.50000000E-01
  8.50000000E-01  7.20000000E-01  7.20000000E-01  8.50000000E-01  8.50000000E-01
  8.50000000E-01  7.20000000E-01  8.50000000E-01  8.50000000E-01  8.50000000E-01
  8.50000000E-01  9.60000000E-01  7.20000000E-01  7.20000000E-01  7.20000000E-01
  7.20000000E-01  7.20000000E-01  7.20000000E-01  7.20000000E-01  7.20000000E-01
  9.60000000E-01  7.20000000E-01  8.50000000E-01  7.20000000E-01  7.20000000E-01
  8.50000000E-01  7.20000000E-01  7.20000000E-01  7.20000000E-01  8.50000000E-01
  7.20000000E-01  8.50000000E-01  8.50000000E-01  8.50000000E-01  7.20000000E-01
  7.20000000E-01  7.20000000E-01  7.20000000E-01  8.50000000E-01  7.20000000E-01
  8.50000000E-01  7.20000000E-01  8.50000000E-01  8.50000000E-01  7.20000000E-01
  8.50000000E-01  8.50000000E-01  7.20000000E-01  8.50000000E-01  8.50000000E-01
  8.50000000E-01  7.20000000E-01  8.50000000E-01  8.50000000E-01  7.20000000E-01
  8.50000000E-01  8.50000000E-01  7.20000000E-01  8.50000000E-01  8.50000000E-01
  7.20000000E-01  8.50000000E-01  8.50000000E-01  8.50000000E-01  8.50000000E-01
  7.20000000E-01  7.20000000E-01  8.50000000E-01  8.50000000E-01  8.50000000E-01
  7.20000000E-01  8.50000000E-01  8.50000000E-01  8.50000000E-01  8.50000000E-01
  9.60000000E-01  7.20000000E-01  7.20000000E-01  7.20000000E-01  7.20000000E-01
  7.20000000E-01  7.20000000E-01  7.20000000E-01  7.20000000E-01  9.60000000E-01
  7.20000000E-01  8.50000000E-01  7.20000000E-01  7.20000000E-01  8.50000000E-01
  7.20000000E-01  7.20000000E-01  7.20000000E-01  8.50000000E-01  7.20000000E-01
  8.50000000E-01  8.50000000E-01  8.50000000E-01  7.20000000E-01  7.20000000E-01
  7.20000000E-01  7.20000000E-01  8.50000000E-01  7.20000000E-01  8.50000000E-01
  7.20000000E-01  8.50000000E-01  8.50000000E-01  7.20000000E-01  8.50000000E-01
  8.50000000E-01  7.20000000E-01  8.50000000E-01  8.50000000E-01  8.50000000E-01
  7.20000000E-01  8.50000000E-01  8.50000000E-01  7.20000000E-01  8.50000000E-01
  8.50000000E-01  7.20000000E-01  8.50000000E-01  8.50000000E-01  7.20000000E-01
  8.50000000E-01  8.50000000E-01  8.50000000E-01  8.50000000E-01  7.20000000E-01
  7.20000000E-01  8.50000000E-01  8.50000000E-01  8.50000000E-01  7.20000000E-01
  8.50000000E-01  8.50000000E-01  8.50000000E-01  8.50000000E-01  9.60000000E-01
  7.20000000E-01  7.20000000E-01  7.20000000E-01  7.20000000E-01  7.20000000E-01
  7.20000000E-01  7.20000000E-01  7.20000000E-01  9.60000000E-01  7.20000000E-01
  8.50000000E-01  7.20000000E-01  7.20000000E-01  8.50000000E-01  7.20000000E-01
  7.20000000E-01  7.20000000E-01  8.50000000E-01  7.20000000E-01  8.50000000E-01
  8.50000000E-01  8.50000000E-01  7.20000000E-01  7.20000000E-01  7.20000000E-01
  7.20000000E-01  8.50000000E-01  7.20000000E-01  8.50000000E-01  7.20000000E-01
  8.50000000E-01  8.50000000E-01  7.20000000E-01  8.50000000E-01  8.50000000E-01
  7.20000000E-01  8.50000000E-01  8.50000000E-01  8.50000000E-01  7.20000000E-01
  8.50000000E-01  8.50000000E-01  7.20000000E-01  8.50000000E-01  8.50000000E-01
  7.20000000E-01  8.50000000E-01  8.50000000E-01  7.20000000E-01  8.50000000E-01
  8.50000000E-01  8.50000000E-01  8.50000000E-01  7.20000000E-01  7.20000000E-01
  8.50000000E-01  8.50000000E-01  8.50000000E-01  7.20000000E-01  8.50000000E-01
  8.50000000E-01  8.50000000E-01  8.50000000E-01  9.60000000E-01  7.20000000E-01
  7.20000000E-01  7.20000000E-01  7.20000000E-01  7.20000000E-01  7.20000000E-01
  7.20000000E-01  7.20000000E-01  9.60000000E-01  7.20000000E-01  8.50000000E-01
  7.20000000E-01  7.20000000E-01  8.50000000E-01  7.20000000E-01  7.20000000E-01
  7.20000000E-01  8.50000000E-01  7.20000000E-01  8.50000000E-01  8.50000000E-01
  8.50000000E-01  7.20000000E-01  7.20000000E-01  7.20000000E-01  7.20000000E-01
  8.50000000E-01  7.20000000E-01  8.50000000E-01  7.20000000E-01  8.50000000E-01
  8.50000000E-01  7.20000000E-01  8.50000000E-01  8.50000000E-01  7.20000000E-01
  8.50000000E-01  8.50000000E-01  8.50000000E-01  7.20000000E-01  8.50000000E-01
  8.50000000E-01  7.20000000E-01  8.50000000E-01  8.50000000E-01  7.20000000E-01
  8.50000000E-01  8.50000000E-01  7.20000000E-01  8.50000000E-01  8.50000000E-01
  8.50000000E-01  8.50000000E-01  7.20000000E-01  7.20000000E-01  8.50000000E-01
  8.50000000E-01  8.50000000E-01  7.20000000E-01  8.50000000E-01  8.50000000E-01
  8.50000000E-01  8.50000000E-01  9.60000000E-01  7.20000000E-01  7.20000000E-01
  7.20000000E-01  7.20000000E-01  7.20000000E-01  7.20000000E-01  7.20000000E-01
  7.20000000E-01  9.60000000E-01  7.20000000E-01  8.50000000E-01  7.20000000E-01
  7.20000000E-01  8.50000000E-01  7.20000000E-01  7.20000000E-01  7.20000000E-01
  8.50000000E-01  7.20000000E-01  8.50000000E-01  8.50000000E-01  8.50000000E-01
  7.20000000E-01  7.20000000E-01  7.20000000E-01  7.20000000E-01  8.50000000E-01
  7.20000000E-01  8.50000000E-01  7.20000000E-01  8.50000000E-01  8.50000000E-01
  7.20000000E-01  8.50000000E-01  8.50000000E-01  7.20000000E-01  8.50000000E-01
  8.50000000E-01  8.50000000E-01  7.20000000E-01  8.50000000E-01  8.50000000E-01
  7.20000000E-01  8.50000000E-01  8.50000000E-01  7.20000000E-01  8.50000000E-01
  8.50000000E-01  7.20000000E-01  8.50000000E-01  8.50000000E-01  8.50000000E-01
  8.50000000E-01  7.20000000E-01  7.20000000E-01  8.50000000E-01  8.50000000E-01
  8.50000000E-01  7.20000000E-01  8.50000000E-01  8.50000000E-01  8.50000000E-01
  8.50000000E-01  9.60000000E-01  7.20000000E-01  7.20000000E-01  7.20000000E-01
  7.20000000E-01  7.20000000E-01  7.20000000E-01  7.20000000E-01  7.20000000E-01
  9.60000000E-01  7.20000000E-01  8.50000000E-01  7.20000000E-01  7.20000000E-01
  8.50000000E-01  7.20000000E-01  7.20000000E-01  7.20000000E-01  8.50000000E-01
  7.20000000E-01  8.50000000E-01  8.50000000E-01  8.50000000E-01  7.20000000E-01
  7.20000000E-01  7.20000000E-01  7.20000000E-01  8.50000000E-01  7.20000000E-01
  8.50000000E-01  7.20000000E-01  8.50000000E-01  8.50000000E-01  7.20000000E-01
  8.50000000E-01  8.50000000E-01  7.20000000E-01  8.50000000E-01  8.50000000E-01
  8.50000000E-01  7.20000000E-01  8.50000000E-01  8.50000000E-01  7.20000000E-01
  8.50000000E-01  8.50000000E-01  7.20000000E-01  8.50000000E-01  8.50000000E-01
  7.20000000E-01  8.50000000E-01  8.50000000E-01  8.50000000E-01  8.50000000E-01
  7.20000000E-01  7.20000000E-01  8.50000000E-01  8.50000000E-01  8.50000000E-01
  7.20000000E-01  8.50000000E-01  8.50000000E-01  8.50000000E-01  8.50000000E-01
  9.60000000E-01  7.20000000E-01  7.20000000E-01  7.20000000E-01  7.20000000E-01
  7.20000000E-01  7.20000000E-01  7.20000000E-01  7.20000000E-01  9.60000000E-01
  7.20000000E-01  8.50000000E-01  7.20000000E-01  7.20000000E-01  8.50000000E-01
  7.20000000E-01  7.20000000E-01  7.20000000E-01  8.50000000E-01  7.20000000E-01
  8.50000000E-01  8.50000000E-01  8.50000000E-01  7.20000000E-01  7.20000000E-01
  7.20000000E-01  7.20000000E-01  8.50000000E-01  7.20000000E-01  8.50000000E-01
  7.20000000E-01  8.50000000E-01  8.50000000E-01  7.20000000E-01  8.50000000E-01
  8.50000000E-01  7.20000000E-01  8.50000000E-01  8.50000000E-01  8.50000000E-01
  7.20000000E-01  8.50000000E-01  8.50000000E-01  7.20000000E-01  8.50000000E-01
  8.50000000E-01  7.20000000E-01  8.50000000E-01  8.50000000E-01  7.20000000E-01
  8.50000000E-01  8.50000000E-01  8.50000000E-01  8.50000000E-01  7.20000000E-01
  7.20000000E-01  8.50000000E-01  8.50000000E-01  8.50000000E-01  7.20000000E-01
  8.50000000E-01  8.50000000E-01  8.50000000E-01  8.50000000E-01  9.60000000E-01
  7.20000000E-01  7.20000000E-01  7.20000000E-01  7.20000000E-01  7.20000000E-01
  7.20000000E-01  7.20000000E-01  7.20000000E-01  9.60000000E-01  7.20000000E-01
  8.50000000E-01  7.20000000E-01  7.20000000E-01  8.50000000E-01  7.20000000E-01
  7.20000000E-01  7.20000000E-01  8.50000000E-01  7.20000000E-01  8.50000000E-01
  8.50000000E-01  8.50000000E-01  7.20000000E-01  7.20000000E-01  7.20000000E-01
  7.20000000E-01  8.50000000E-01  7.20000000E-01  8.50000000E-01  7.20000000E-01
  8.50000000E-01  8.50000000E-01  7.20000000E-01  8.50000000E-01  8.50000000E-01
  7.20000000E-01  8.50000000E-01  8.50000000E-01  8.50000000E-01  7.20000000E-01
  8.50000000E-01  8.50000000E-01  7.20000000E-01  8.50000000E-01  8.50000000E-01
  7.20000000E-01  8.50000000E-01  8.50000000E-01  7.20000000E-01  8.50000000E-01
  8.50000000E-01  8.50000000E-01  8.50000000E-01  7.20000000E-01  7.20000000E-01
  8.50000000E-01  8.50000000E-01  8.50000000E-01  7.20000000E-01  8.50000000E-01
  8.50000000E-01  8.50000000E-01  8.50000000E-01  9.60000000E-01  7.20000000E-01
  7.20000000E-01  7.20000000E-01  7.20000000E-01  7.20000000E-01  7.20000000E-01
  7.20000000E-01  7.20000000E-01  9.60000000E-01  7.20000000E-01  8.50000000E-01
  7.20000000E-01  7.20000000E-01  8.50000000E-01  7.20000000E-01  7.20000000E-01
  7.20000000E-01  8.50000000E-01  7.20000000E-01  8.50000000E-01  8.50000000E-01
  8.50000000E-01  7.20000000E-01  7.20000000E-01  7.20000000E-01  7.20000000E-01
  8.50000000E-01  7.20000000E-01  8.50000000E-01  7.20000000E-01  8.50000000E-01
  8.50000000E-01  7.20000000E-01  8.50000000E-01  8.50000000E-01  7.20000000E-01
  8.50000000E-01  8.50000000E-01  8.50000000E-01  7.20000000E-01  8.50000000E-01
  8.50000000E-01  7.20000000E-01  8.50000000E-01  8.50000000E-01  7.20000000E-01
  8.50000000E-01  8.50000000E-01  7.20000000E-01  8.50000000E-01  8.50000000E-01
  8.50000000E-01  8.50000000E-01  7.20000000E-01  7.20000000E-01  8.50000000E-01
  8.50000000E-01  8.50000000E-01  7.20000000E-01  8.50000000E-01  8.50000000E-01
  8.50000000E-01  8.50000000E-01  9.60000000E-01  7.20000000E-01  7.20000000E-01
  7.20000000E-01  7.20000000E-01  7.20000000E-01  7.20000000E-01  7.20000000E-01
  7.20000000E-01  9.60000000E-01  7.20000000E-01  8.50000000E-01  7.20000000E-01
  7.20000000E-01  8.50000000E-01  7.20000000E-01  7.20000000E-01  7.20000000E-01
  8.50000000E-01  7.20000000E-01  8.50000000E-01  8.50000000E-01  8.50000000E-01
  7.20000000E-01  7.20000000E-01  7.20000000E-01  7.20000000E-01  8.50000000E-01
  7.20000000E-01  8.50000000E-01  7.20000000E-01  8.50000000E-01  8.50000000E-01
  7.20000000E-01  8.50000000E-01  8.50000000E-01  7.20000000E-01  8.50000000E-01
  8.50000000E-01  8.50000000E-01  7.20000000E-01  8.50000000E-01  8.50000000E-01
  7.20000000E-01  8.50000000E-01  8.50000000E-01  7.20000000E-01  8.50000000E-01
  8.50000000E-01  7.20000000E-01  8.50000000E-01  8.50000000E-01  8.50000000E-01
  8.50000000E-01  7.20000000E-01  7.20000000E-01  8.50000000E-01  8.50000000E-01
  8.50000000E-01  7.20000000E-01  8.50000000E-01  8.50000000E-01  8.50000000E-01
  8.50000000E-01  9.60000000E-01  7.20000000E-01  7.20000000E-01  7.20000000E-01
  7.20000000E-01  7.20000000E-01  7.20000000E-01  7.20000000E-01  7.20000000E-01
  9.60000000E-01  7.20000000E-01  8.50000000E-01  7.20000000E-01  7.20000000E-01
  8.50000000E-01  7.20000000E-01  7.20000000E-01  7.20000000E-01  8.50000000E-01
  7.20000000E-01  8.50000000E-01  8.50000000E-01  8.50000000E-01  7.20000000E-01
  7.20000000E-01  7.20000000E-01  7.20000000E-01  8.50000000E-01  7.20000000E-01
  8.50000000E-01  7.20000000E-01  8.50000000E-01  8.50000000E-01  7.20000000E-01
  8.50000000E-01  8.50000000E-01  7.20000000E-01  8.50000000E-01  8.50000000E-01
  8.50000000E-01  7.20000000E-01  8.50000000E-01  8.50000000E-01  7.20000000E-01
  8.50000000E-01  8.50000000E-01  7.20000000E-01  8.50000000E-01  8.50000000E-01
  7.20000000E-01  8.50000000E-01  8.50000000E-01  8.50000000E-01  8.50000000E-01
  7.20000000E-01  7.20000000E-01  8.50000000E-01  8.50000000E-01  8.50000000E-01
  7.20000000E-01  8.50000000E-01  8.50000000E-01  8.50000000E-01  8.50000000E-01
  9.60000000E-01  7.20000000E-01  7.20000000E-01  7.20000000E-01  7.20000000E-01
  7.20000000E-01  7.20000000E-01  7.20000000E-01  7.20000000E-01  9.60000000E-01
  7.20000000E-01  8.50000000E-01  7.20000000E-01  7.20000000E-01  8.50000000E-01
  7.20000000E-01  7.20000000E-01  7.20000000E-01  8.50000000E-01  7.20000000E-01
  8.50000000E-01  8.50000000E-01  8.50000000E-01  7.20000000E-01  7.20000000E-01
  7.20000000E-01  7.20000000E-01  8.50000000E-01  7.20000000E-01  8.50000000E-01
  7.20000000E-01  8.50000000E-01  8.50000000E-01  7.20000000E-01  8.50000000E-01
  8.50000000E-01  7.20000000E-01  8.50000000E-01  8.50000000E-01  8.50000000E-01
  7.20000000E-01  8.50000000E-01  8.50000000E-01  7.20000000E-01  8.50000000E-01
  8.50000000E-01  7.20000000E-01  8.50000000E-01  8.50000000E-01  7.20000000E-01
  8.50000000E-01  8.50000000E-01  8.50000000E-01  8.50000000E-01  7.20000000E-01
  7.20000000E-01  8.50000000E-01  8.50000000E-01  8.50000000E-01  7.20000000E-01
  8.50000000E-01  8.50000000E-01  8.50000000E-01  8.50000000E-01  9.60000000E-01
  7.20000000E-01  7.20000000E-01  7.20000000E-01  7.20000000E-01  7.20000000E-01
  7.20000000E-01  7.20000000E-01  7.20000000E-01  9.60000000E-01  7.20000000E-01
  8.50000000E-01  7.20000000E-01  7.20000000E-01  8.50000000E-01  7.20000000E-01
  7.20000000E-01  7.20000000E-01  8.50000000E-01  7.20000000E-01  8.50000000E-01
  8.50000000E-01  8.50000000E-01  7.20000000E-01  7.20000000E-01  7.20000000E-01
  7.20000000E-01  8.50000000E-01  7.20000000E-01  8.50000000E-01  7.20000000E-01
  8.50000000E-01  8.50000000E-01  7.20000000E-01  8.50000000E-01  8.50000000E-01
  7.20000000E-01  8.50000000E-01  8.50000000E-01  8.50000000E-01  7.20000000E-01
  8.50000000E-01  8.50000000E-01  7.20000000E-01  8.50000000E-01  8.50000000E-01
  7.20000000E-01  8.50000000E-01  8.50000000E-01  7.20000000E-01  8.50000000E-01
  8.50000000E-01  8.50000000E-01  8.50000000E-01  7.20000000E-01  7.20000000E-01
  8.50000000E-01  8.50000000E-01  8.50000000E-01  7.20000000E-01  8.50000000E-01
  8.50000000E-01  8.50000000E-01  8.50000000E-01  9.60000000E-01  7.20000000E-01
  7.20000000E-01  7.20000000E-01  7.20000000E-01  7.20000000E-01  7.20000000E-01
  7.20000000E-01  7.20000000E-01  9.60000000E-01  7.20000000E-01  8.50000000E-01
  7.20000000E-01  7.20000000E-01  8.50000000E-01  7.20000000E-01  7.20000000E-01
  7.20000000E-01  8.50000000E-01  7.20000000E-01  8.50000000E-01  8.50000000E-01
  8.50000000E-01  7.20000000E-01  7.20000000E-01  7.20000000E-01  7.20000000E-01
  8.50000000E-01  7.20000000E-01  8.50000000E-01  7.20000000E-01  8.50000000E-01
  8.50000000E-01  7.20000000E-01  8.50000000E-01  8.50000000E-01  7.20000000E-01
  8.50000000E-01  8.50000000E-01  8.50000000E-01  7.20000000E-01  8.50000000E-01
  8.50000000E-01  7.20000000E-01  8.50000000E-01  8.50000000E-01  7.20000000E-01
  8.50000000E-01  8.50000000E-01  7.20000000E-01  8.50000000E-01  8.50000000E-01
  8.50000000E-01  8.50000000E-01  7.20000000E-01  7.20000000E-01  8.50000000E-01
  8.50000000E-01  8.50000000E-01  7.20000000E-01  8.50000000E-01  8.50000000E-01
  8.50000000E-01  8.50000000E-01  9.60000000E-01  7.20000000E-01  7.20000000E-01
  7.20000000E-01  7.20000000E-01  7.20000000E-01  7.20000000E-01  7.20000000E-01
  7.20000000E-01  9.60000000E-01  7.20000000E-01  8.50000000E-01  7.20000000E-01
  7.20000000E-01  8.50000000E-01  7.20000000E-01  7.20000000E-01  7.20000000E-01
  8.50000000E-01  7.20000000E-01  8.50000000E-01  8.50000000E-01  8.50000000E-01
  7.20000000E-01  7.20000000E-01  7.20000000E-01  7.20000000E-01  8.50000000E-01
  7.20000000E-01  8.50000000E-01  7.20000000E-01  8.50000000E-01  8.50000000E-01
  7.20000000E-01  8.50000000E-01  8.50000000E-01  7.20000000E-01  8.50000000E-01
  8.50000000E-01  8.50000000E-01  7.20000000E-01  8.50000000E-01  8.50000000E-01
  7.20000000E-01  8.50000000E-01  8.50000000E-01  7.20000000E-01  8.50000000E-01
  8.50000000E-01  7.20000000E-01  8.50000000E-01  8.50000000E-01  8.50000000E-01
  8.50000000E-01  7.20000000E-01  7.20000000E-01  8.50000000E-01  8.50000000E-01
  8.50000000E-01  7.20000000E-01  8.50000000E-01  8.50000000E-01  8.50000000E-01
  8.50000000E-01  9.60000000E-01  7.20000000E-01  7.20000000E-01  7.20000000E-01
  7.20000000E-01  7.20000000E-01  7.20000000E-01  7.20000000E-01  7.20000000E-01
  9.60000000E-01  7.20000000E-01  8.50000000E-01  7.20000000E-01  7.20000000E-01
  8.50000000E-01  7.20000000E-01  7.20000000E-01  7.20000000E-01  8.50000000E-01
  7.20000000E-01  8.50000000E-01  8.50000000E-01  8.50000000E-01  7.20000000E-01
  7.20000000E-01  7.20000000E-01  7.20000000E-01  8.50000000E-01  7.20000000E-01
  8.50000000E-01  7.20000000E-01  8.50000000E-01  8.50000000E-01  7.20000000E-01
  8.50000000E-01  8.50000000E-01  7.20000000E-01  8.50000000E-01  8.50000000E-01
  8.50000000E-01  7.20000000E-01  8.50000000E-01  8.50000000E-01  7.20000000E-01
  8.50000000E-01  8.50000000E-01  7.20000000E-01  8.50000000E-01  8.50000000E-01
  7.20000000E-01  8.50000000E-01  8.50000000E-01  8.50000000E-01  8.50000000E-01
  7.20000000E-01  7.20000000E-01  8.50000000E-01  8.50000000E-01  8.50000000E-01
  7.20000000E-01  8.50000000E-01  8.50000000E-01  8.50000000E-01  8.50000000E-01
  9.60000000E-01  7.20000000E-01  7.20000000E-01  7.20000000E-01  7.20000000E-01
  7.20000000E-01  7.20000000E-01  7.20000000E-01  7.20000000E-01  9.60000000E-01
  7.20000000E-01  8.50000000E-01  7.20000000E-01  7.20000000E-01  8.50000000E-01
  7.20000000E-01  7.20000000E-01  7.20000000E-01  8.50000000E-01  7.20000000E-01
  8.50000000E-01  8.50000000E-01  8.50000000E-01  7.20000000E-01  7.20000000E-01
  7.20000000E-01  7.20000000E-01  8.50000000E-01  7.20000000E-01  8.50000000E-01
  7.20000000E-01  8.50000000E-01  8.50000000E-01  7.20000000E-01  8.50000000E-01
  8.50000000E-01  7.20000000E-01  8.50000000E-01  8.50000000E-01  8.50000000E-01
  7.20000000E-01  8.50000000E-01  8.50000000E-01  7.20000000E-01  8.50000000E-01
  8.50000000E-01  7.20000000E-01  8.50000000E-01  8.50000000E-01  7.20000000E-01
  8.50000000E-01  8.50000000E-01  8.50000000E-01  8.50000000E-01  7.20000000E-01
  7.20000000E-01  8.50000000E-01  8.50000000E-01  8.50000000E-01  7.20000000E-01
  8.50000000E-01  8.50000000E-01  8.50000000E-01  8.50000000E-01  9.60000000E-01
  7.20000000E-01  7.20000000E-01  7.20000000E-01  7.20000000E-01  7.20000000E-01
  7.20000000E-01  7.20000000E-01  7.20000000E-01  9.60000000E-01  7.20000000E-01
  8.50000000E-01  7.20000000E-01  7.20000000E-01  8.50000000E-01  7.20000000E-01
  7.20000000E-01  7.20000000E-01  8.50000000E-01  7.20000000E-01  8.50000000E-01
  8.50000000E-01  8.50000000E-01  7.20000000E-01  7.20000000E-01  7.20000000E-01
  7.20000000E-01  8.50000000E-01  7.20000000E-01  8.50000000E-01  7.20000000E-01
  8.50000000E-01  8.50000000E-01  7.20000000E-01  8.50000000E-01  8.50000000E-01
  7.20000000E-01  8.50000000E-01  8.50000000E-01  8.50000000E-01  7.20000000E-01
  8.50000000E-01  8.50000000E-01  7.20000000E-01  8.50000000E-01  8.50000000E-01
  7.20000000E-01  8.50000000E-01  8.50000000E-01  7.20000000E-01  8.50000000E-01
  8.50000000E-01  8.50000000E-01  8.50000000E-01  7.20000000E-01  7.20000000E-01
  8.50000000E-01  8.50000000E-01  8.50000000E-01  7.20000000E-01  8.50000000E-01
  8.50000000E-01  8.50000000E-01  8.50000000E-01  9.60000000E-01  7.20000000E-01
  7.20000000E-01  7.20000000E-01  7.20000000E-01  7.20000000E-01  7.20000000E-01
  7.20000000E-01  7.20000000E-01  9.60000000E-01  7.20000000E-01  8.50000000E-01
  7.20000000E-01  7.20000000E-01  8.50000000E-01  7.20000000E-01  7.20000000E-01
  7.20000000E-01  8.50000000E-01  7.20000000E-01  8.50000000E-01  8.50000000E-01
  8.50000000E-01  7.20000000E-01  7.20000000E-01  7.20000000E-01  7.20000000E-01
  8.50000000E-01  7.20000000E-01  8.50000000E-01  7.20000000E-01  8.50000000E-01
  8.50000000E-01  7.20000000E-01  8.50000000E-01  8.50000000E-01  7.20000000E-01
  8.50000000E-01  8.50000000E-01  8.50000000E-01  7.20000000E-01  8.50000000E-01
  8.50000000E-01  7.20000000E-01  8.50000000E-01  8.50000000E-01  7.20000000E-01
  8.50000000E-01  8.50000000E-01  7.20000000E-01  8.50000000E-01  8.50000000E-01
  8.50000000E-01  8.50000000E-01  7.20000000E-01  7.20000000E-01  8.50000000E-01
  8.50000000E-01  8.50000000E-01  7.20000000E-01  8.50000000E-01  8.50000000E-01
  8.50000000E-01  8.50000000E-01  9.60000000E-01  7.20000000E-01  7.20000000E-01
  7.20000000E-01  7.20000000E-01  7.20000000E-01  7.20000000E-01  7.20000000E-01
  7.20000000E-01  9.60000000E-01  7.20000000E-01  8.50000000E-01  7.20000000E-01
  7.20000000E-01  8.50000000E-01  7.20000000E-01  7.20000000E-01  7.20000000E-01
  8.50000000E-01  7.20000000E-01  8.50000000E-01  8.50000000E-01  8.50000000E-01
  7.20000000E-01  7.20000000E-01  7.20000000E-01  7.20000000E-01  8.50000000E-01
  7.20000000E-01  8.50000000E-01  7.20000000E-01  8.50000000E-01  8.50000000E-01
  7.20000000E-01  8.50000000E-01  8.50000000E-01  7.20000000E-01  8.50000000E-01
  8.50000000E-01  8.50000000E-01  7.20000000E-01  8.50000000E-01  8.50000000E-01
  7.20000000E-01  8.50000000E-01  8.50000000E-01  7.20000000E-01  8.50000000E-01
  8.50000000E-01  7.20000000E-01  8.50000000E-01  8.50000000E-01  8.50000000E-01
  8.50000000E-01  7.20000000E-01  7.20000000E-01  8.50000000E-01  8.50000000E-01
  8.50000000E-01  7.20000000E-01  8.50000000E-01  8.50000000E-01  8.50000000E-01
  8.50000000E-01  9.60000000E-01  7.20000000E-01  7.20000000E-01  7.20000000E-01
  7.20000000E-01  7.20000000E-01  7.20000000E-01  7.20000000E-01  7.20000000E-01
  9.60000000E-01  7.20000000E-01  8.50000000E-01  7.20000000E-01  7.20000000E-01
  8.50000000E-01  7.20000000E-01  7.20000000E-01  7.20000000E-01  8.50000000E-01
  7.20000000E-01  8.50000000E-01  8.50000000E-01  8.50000000E-01  7.20000000E-01
  7.20000000E-01  7.20000000E-01  7.20000000E-01  8.50000000E-01  7.20000000E-01
  8.50000000E-01  7.20000000E-01  8.50000000E-01  8.50000000E-01  7.20000000E-01
  8.50000000E-01  8.50000000E-01  7.20000000E-01  8.50000000E-01  8.50000000E-01
  8.50000000E-01  7.20000000E-01  8.50000000E-01  8.50000000E-01  7.20000000E-01
  8.50000000E-01  8.50000000E-01  7.20000000E-01  8.50000000E-01  8.50000000E-01
  7.20000000E-01  8.50000000E-01  8.50000000E-01  8.50000000E-01  8.50000000E-01
  7.20000000E-01  7.20000000E-01  8.50000000E-01  8.50000000E-01  8.50000000E-01
  7.20000000E-01  8.50000000E-01  8.50000000E-01  8.50000000E-01  8.50000000E-01
  9.60000000E-01  7.20000000E-01  7.20000000E-01  7.20000000E-01  7.20000000E-01
  7.20000000E-01  7.20000000E-01  7.20000000E-01  7.20000000E-01  9.60000000E-01
  7.20000000E-01  8.50000000E-01  7.20000000E-01  7.20000000E-01  8.50000000E-01
  7.20000000E-01  7.20000000E-01  7.20000000E-01  8.50000000E-01  7.20000000E-01
  8.50000000E-01  8.50000000E-01  8.50000000E-01  7.20000000E-01  7.20000000E-01
  7.20000000E-01  7.20000000E-01  8.50000000E-01  7.20000000E-01  8.50000000E-01
  7.20000000E-01  8.50000000E-01  8.50000000E-01  7.20000000E-01  8.50000000E-01
  8.50000000E-01  7.20000000E-01  8.50000000E-01  8.50000000E-01  8.50000000E-01
  7.20000000E-01  8.50000000E-01  8.50000000E-01  7.20000000E-01  8.50000000E-01
  8.50000000E-01  7.20000000E-01  8.50000000E-01  8.50000000E-01  7.20000000E-01
  8.50000000E-01  8.50000000E-01  8.50000000E-01  8.50000000E-01  7.20000000E-01
  7.20000000E-01  8.50000000E-01  8.50000000E-01  8.50000000E-01  7.20000000E-01
  8.50000000E-01  8.50000000E-01  8.50000000E-01  8.50000000E-01  9.60000000E-01
  7.20000000E-01  7.20000000E-01  7.20000000E-01  7.20000000E-01  7.20000000E-01
  7.20000000E-01  7.20000000E-01  7.20000000E-01  9.60000000E-01  7.20000000E-01
  8.50000000E-01  7.20000000E-01  7.20000000E-01  8.50000000E-01  7.20000000E-01
  7.20000000E-01  7.20000000E-01  8.50000000E-01  7.20000000E-01  8.50000000E-01
  8.50000000E-01  8.50000000E-01  7.20000000E-01  7.20000000E-01  7.20000000E-01
  7.20000000E-01  8.50000000E-01  7.20000000E-01  8.50000000E-01  7.20000000E-01
  8.50000000E-01  8.50000000E-01  7.20000000E-01  8.50000000E-01  8.50000000E-01
  7.20000000E-01  8.50000000E-01  8.50000000E-01  8.50000000E-01  7.20000000E-01
  8.50000000E-01  8.50000000E-01  7.20000000E-01  8.50000000E-01  8.50000000E-01
  7.20000000E-01  8.50000000E-01  8.50000000E-01  7.20000000E-01  8.50000000E-01
  8.50000000E-01  8.50000000E-01  8.50000000E-01  7.20000000E-01  7.20000000E-01
  8.50000000E-01  8.50000000E-01  8.50000000E-01  7.20000000E-01  8.50000000E-01
  8.50000000E-01  8.50000000E-01  8.50000000E-01  9.60000000E-01  7.20000000E-01
  7.20000000E-01  7.20000000E-01  7.20000000E-01  7.20000000E-01  7.20000000E-01
  7.20000000E-01  7.20000000E-01  9.60000000E-01  7.20000000E-01  8.50000000E-01
  7.20000000E-01  7.20000000E-01  8.50000000E-01  7.20000000E-01  7.20000000E-01
  7.20000000E-01  8.50000000E-01  7.20000000E-01  8.50000000E-01  8.50000000E-01
  8.50000000E-01  7.20000000E-01  7.20000000E-01  7.20000000E-01  7.20000000E-01
  8.50000000E-01  7.20000000E-01  8.50000000E-01  7.20000000E-01  8.50000000E-01
  8.50000000E-01  7.20000000E-01  8.50000000E-01  8.50000000E-01  7.20000000E-01
  8.50000000E-01  8.50000000E-01  8.50000000E-01  7.20000000E-01  8.50000000E-01
  8.50000000E-01  7.20000000E-01  8.50000000E-01  8.50000000E-01  7.20000000E-01
  8.50000000E-01  8.50000000E-01  7.20000000E-01  8.50000000E-01  8.50000000E-01
  8.50000000E-01  8.50000000E-01  7.20000000E-01  7.20000000E-01  8.50000000E-01
  8.50000000E-01  8.50000000E-01  7.20000000E-01  8.50000000E-01  8.50000000E-01
  8.50000000E-01  8.50000000E-01  9.60000000E-01  7.20000000E-01  7.20000000E-01
  7.20000000E-01  7.20000000E-01  7.20000000E-01  7.20000000E-01  7.20000000E-01
  7.20000000E-01  9.60000000E-01  7.20000000E-01  8.50000000E-01  7.20000000E-01
  7.20000000E-01  8.50000000E-01  7.20000000E-01  7.20000000E-01  7.20000000E-01
  8.50000000E-01  7.20000000E-01  8.50000000E-01  8.50000000E-01  8.50000000E-01
  7.20000000E-01  7.20000000E-01  7.20000000E-01  7.20000000E-01  8.50000000E-01
  7.20000000E-01  8.50000000E-01  7.20000000E-01  8.50000000E-01  8.50000000E-01
  7.20000000E-01  8.50000000E-01  8.50000000E-01  7.20000000E-01  8.50000000E-01
  8.50000000E-01  8.50000000E-01  7.20000000E-01  8.50000000E-01  8.50000000E-01
  7.20000000E-01  8.50000000E-01  8.50000000E-01  7.20000000E-01  8.50000000E-01
  8.50000000E-01  7.20000000E-01  8.50000000E-01  8.50000000E-01  8.50000000E-01
  8.50000000E-01  7.20000000E-01  7.20000000E-01  8.50000000E-01  8.50000000E-01
  8.50000000E-01  7.20000000E-01  8.50000000E-01  8.50000000E-01  8.50000000E-01
  8.50000000E-01  9.60000000E-01  7.20000000E-01  7.20000000E-01  7.20000000E-01
  7.20000000E-01  7.20000000E-01  7.20000000E-01  7.20000000E-01  7.20000000E-01
  9.60000000E-01  7.20000000E-01  8.50000000E-01  7.20000000E-01  7.20000000E-01
  8.50000000E-01  7.20000000E-01  7.20000000E-01  7.20000000E-01  8.50000000E-01
  7.20000000E-01  8.50000000E-01  8.50000000E-01  8.50000000E-01  7.20000000E-01
  7.20000000E-01  7.20000000E-01  7.20000000E-01  8.50000000E-01  7.20000000E-01
  8.50000000E-01  7.20000000E-01  8.50000000E-01  8.50000000E-01  7.20000000E-01
  8.50000000E-01  8.50000000E-01  7.20000000E-01  8.50000000E-01  8.50000000E-01
  8.50000000E-01  7.20000000E-01  8.50000000E-01  8.50000000E-01  7.20000000E-01
  8.50000000E-01  8.50000000E-01  7.20000000E-01  8.50000000E-01  8.50000000E-01
  7.20000000E-01  8.50000000E-01  8.50000000E-01  8.50000000E-01  8.50000000E-01
  7.20000000E-01  7.20000000E-01  8.50000000E-01  8.50000000E-01  8.50000000E-01
  7.20000000E-01  8.50000000E-01  8.50000000E-01  8.50000000E-01  8.50000000E-01
  9.60000000E-01  7.20000000E-01  7.20000000E-01  7.20000000E-01  7.20000000E-01
  7.20000000E-01  7.20000000E-01  7.20000000E-01  7.20000000E-01  9.60000000E-01
  7.20000000E-01  8.50000000E-01  7.20000000E-01  7.20000000E-01  8.50000000E-01
  7.20000000E-01  7.20000000E-01  7.20000000E-01  8.50000000E-01  7.20000000E-01
  8.50000000E-01  8.50000000E-01  8.50000000E-01  7.20000000E-01  7.20000000E-01
  7.20000000E-01  7.20000000E-01  8.50000000E-01  7.20000000E-01  8.50000000E-01
  7.20000000E-01  8.50000000E-01  8.50000000E-01  7.20000000E-01  8.50000000E-01
  8.50000000E-01  7.20000000E-01  8.50000000E-01  8.50000000E-01  8.50000000E-01
  7.20000000E-01  8.50000000E-01  8.50000000E-01  7.20000000E-01  8.50000000E-01
  8.50000000E-01  7.20000000E-01  8.50000000E-01  8.50000000E-01  7.20000000E-01
  8.50000000E-01  8.50000000E-01  8.50000000E-01  8.50000000E-01  7.20000000E-01
  7.20000000E-01  8.50000000E-01  8.50000000E-01  8.50000000E-01  7.20000000E-01
  8.50000000E-01  8.50000000E-01  8.50000000E-01  8.50000000E-01  9.60000000E-01
  7.20000000E-01  7.20000000E-01  7.20000000E-01  7.20000000E-01  7.20000000E-01
  7.20000000E-01  7.20000000E-01  7.20000000E-01  9.60000000E-01  7.20000000E-01
  8.50000000E-01  7.20000000E-01  7.20000000E-01  8.50000000E-01  7.20000000E-01
  7.20000000E-01  7.20000000E-01  8.50000000E-01  7.20000000E-01  8.50000000E-01
  8.50000000E-01  8.50000000E-01  7.20000000E-01  7.20000000E-01  7.20000000E-01
  7.20000000E-01  8.50000000E-01  7.20000000E-01  8.50000000E-01  7.20000000E-01
  8.50000000E-01  8.50000000E-01  7.20000000E-01  8.50000000E-01  8.50000000E-01
  7.20000000E-01  8.50000000E-01  8.50000000E-01  8.50000000E-01  7.20000000E-01
  8.50000000E-01  8.50000000E-01  7.20000000E-01  8.50000000E-01  8.50000000E-01
  7.20000000E-01  8.50000000E-01  8.50000000E-01  7.20000000E-01  8.50000000E-01
  8.50000000E-01  8.50000000E-01  8.50000000E-01  7.20000000E-01  7.20000000E-01
  8.50000000E-01  8.50000000E-01  8.50000000E-01  7.20000000E-01  8.50000000E-01
  8.50000000E-01  8.50000000E-01  8.50000000E-01  9.60000000E-01  7.20000000E-01
  7.20000000E-01  7.20000000E-01  7.20000000E-01  7.20000000E-01  7.20000000E-01
  7.20000000E-01  7.20000000E-01  9.60000000E-01  7.20000000E-01  8.50000000E-01
  7.20000000E-01  7.20000000E-01  8.50000000E-01  7.20000000E-01  7.20000000E-01
  7.20000000E-01  8.50000000E-01  7.20000000E-01  8.50000000E-01  8.50000000E-01
  8.50000000E-01  7.20000000E-01  7.20000000E-01  7.20000000E-01  7.20000000E-01
  8.50000000E-01  7.20000000E-01  8.50000000E-01  7.20000000E-01  8.50000000E-01
  8.50000000E-01  7.20000000E-01  8.50000000E-01  8.50000000E-01  7.20000000E-01
  8.50000000E-01  8.50000000E-01  8.50000000E-01  7.20000000E-01  8.50000000E-01
  8.50000000E-01  7.20000000E-01  8.50000000E-01  8.50000000E-01  7.20000000E-01
  8.50000000E-01  8.50000000E-01  7.20000000E-01  8.50000000E-01  8.50000000E-01
  8.50000000E-01  8.50000000E-01  7.20000000E-01  7.20000000E-01  8.50000000E-01
  8.50000000E-01  8.50000000E-01  7.20000000E-01  8.50000000E-01  8.50000000E-01
  8.50000000E-01  8.50000000E-01  9.60000000E-01  7.20000000E-01  7.20000000E-01
  7.20000000E-01  7.20000000E-01  7.20000000E-01  7.20000000E-01  7.20000000E-01
  7.20000000E-01  9.60000000E-01  7.20000000E-01  8.50000000E-01  7.20000000E-01
  7.20000000E-01  8.50000000E-01  7.20000000E-01  7.20000000E-01  7.20000000E-01
  8.50000000E-01  7.20000000E-01  8.50000000E-01  8.50000000E-01  8.50000000E-01
  7.20000000E-01  7.20000000E-01  7.20000000E-01  7.20000000E-01  8.50000000E-01
  7.20000000E-01  8.50000000E-01  7.20000000E-01  8.50000000E-01  8.50000000E-01
  7.20000000E-01  8.50000000E-01  8.50000000E-01  7.20000000E-01  8.50000000E-01
  8.50000000E-01  8.50000000E-01  7.20000000E-01  8.50000000E-01  8.50000000E-01
  7.20000000E-01  8.50000000E-01  8.50000000E-01  7.20000000E-01  8.50000000E-01
  8.50000000E-01  7.20000000E-01  8.50000000E-01  8.50000000E-01  8.50000000E-01
  8.50000000E-01  7.20000000E-01  7.20000000E-01  8.50000000E-01  8.50000000E-01
  8.50000000E-01  7.20000000E-01  8.50000000E-01  8.50000000E-01  8.50000000E-01
  8.50000000E-01  9.60000000E-01  7.20000000E-01  7.20000000E-01  7.20000000E-01
  7.20000000E-01  7.20000000E-01  7.20000000E-01  7.20000000E-01  7.20000000E-01
  9.60000000E-01  7.20000000E-01  8.50000000E-01  7.20000000E-01  7.20000000E-01
  8.50000000E-01  7.20000000E-01  7.20000000E-01  7.20000000E-01  8.50000000E-01
  7.20000000E-01  8.50000000E-01  8.50000000E-01  8.50000000E-01  7.20000000E-01
  7.20000000E-01  7.20000000E-01  7.20000000E-01  8.50000000E-01  7.20000000E-01
  8.50000000E-01  7.20000000E-01  8.50000000E-01  8.50000000E-01  7.20000000E-01
  8.50000000E-01  8.50000000E-01  7.20000000E-01  8.50000000E-01  8.50000000E-01
  8.50000000E-01  7.20000000E-01  8.50000000E-01  8.50000000E-01  7.20000000E-01
  8.50000000E-01  8.50000000E-01  7.20000000E-01  8.50000000E-01  8.50000000E-01
  7.20000000E-01  8.50000000E-01  8.50000000E-01  8.50000000E-01  8.50000000E-01
  7.20000000E-01  7.20000000E-01  8.50000000E-01  8.50000000E-01  8.50000000E-01
  7.20000000E-01  8.50000000E-01  8.50000000E-01  8.50000000E-01  8.50000000E-01
  9.60000000E-01  7.20000000E-01  7.20000000E-01  7.20000000E-01  7.20000000E-01
  7.20000000E-01  7.20000000E-01  7.20000000E-01  7.20000000E-01  9.60000000E-01
  7.20000000E-01  8.50000000E-01  7.20000000E-01  7.20000000E-01  8.50000000E-01
  7.20000000E-01  7.20000000E-01  7.20000000E-01  8.50000000E-01  7.20000000E-01
  8.50000000E-01  8.50000000E-01  8.50000000E-01  7.20000000E-01  7.20000000E-01
  7.20000000E-01  7.20000000E-01  8.50000000E-01  7.20000000E-01  8.50000000E-01
  7.20000000E-01  8.50000000E-01  8.50000000E-01  7.20000000E-01  8.50000000E-01
  8.50000000E-01  7.20000000E-01  8.50000000E-01  8.50000000E-01  8.50000000E-01
  7.20000000E-01  8.50000000E-01  8.50000000E-01  7.20000000E-01  8.50000000E-01
  8.50000000E-01  7.20000000E-01  8.50000000E-01  8.50000000E-01  7.20000000E-01
  8.50000000E-01  8.50000000E-01  8.50000000E-01  8.50000000E-01  7.20000000E-01
  7.20000000E-01  8.50000000E-01  8.50000000E-01  8.50000000E-01  7.20000000E-01
  8.50000000E-01  8.50000000E-01  8.50000000E-01  8.50000000E-01  9.60000000E-01
  7.20000000E-01  7.20000000E-01  7.20000000E-01  7.20000000E-01  7.20000000E-01
  7.20000000E-01  7.20000000E-01  7.20000000E-01  9.60000000E-01  7.20000000E-01
  8.50000000E-01  7.20000000E-01  7.20000000E-01  8.50000000E-01  7.20000000E-01
  7.20000000E-01  7.20000000E-01  8.50000000E-01  7.20000000E-01  8.50000000E-01
  8.50000000E-01  8.50000000E-01  7.20000000E-01  7.20000000E-01  7.20000000E-01
  7.20000000E-01  8.50000000E-01  7.20000000E-01  8.50000000E-01  7.20000000E-01
  8.50000000E-01  8.50000000E-01  7.20000000E-01  8.50000000E-01  8.50000000E-01
  7.20000000E-01  8.50000000E-01  8.50000000E-01  8.50000000E-01  7.20000000E-01
  8.50000000E-01  8.50000000E-01  7.20000000E-01  8.50000000E-01  8.50000000E-01
  7.20000000E-01  8.50000000E-01  8.50000000E-01  7.20000000E-01  8.50000000E-01
  8.50000000E-01  8.50000000E-01  8.50000000E-01  7.20000000E-01  7.20000000E-01
  8.50000000E-01  8.50000000E-01  8.50000000E-01  7.20000000E-01  8.50000000E-01
  8.50000000E-01  8.50000000E-01  8.50000000E-01  9.60000000E-01  7.20000000E-01
  7.20000000E-01  7.20000000E-01  7.20000000E-01  7.20000000E-01  7.20000000E-01
  7.20000000E-01  7.20000000E-01  9.60000000E-01  7.20000000E-01  8.50000000E-01
  7.20000000E-01  7.20000000E-01  8.50000000E-01  7.20000000E-01  7.20000000E-01
  7.20000000E-01  8.50000000E-01  7.20000000E-01  8.50000000E-01  8.50000000E-01
  8.50000000E-01  7.20000000E-01  7.20000000E-01  7.20000000E-01  7.20000000E-01
  8.50000000E-01  7.20000000E-01  8.50000000E-01  7.20000000E-01  8.50000000E-01
  8.50000000E-01  7.20000000E-01  8.50000000E-01  8.50000000E-01  7.20000000E-01
  8.50000000E-01  8.50000000E-01  8.50000000E-01  7.20000000E-01  8.50000000E-01
  8.50000000E-01  7.20000000E-01  8.50000000E-01  8.50000000E-01  7.20000000E-01
  8.50000000E-01  8.50000000E-01  7.20000000E-01  8.50000000E-01  8.50000000E-01
  8.50000000E-01  8.50000000E-01  7.20000000E-01  7.20000000E-01  8.50000000E-01
  8.50000000E-01  8.50000000E-01  7.20000000E-01  8.50000000E-01  8.50000000E-01
  8.50000000E-01  8.50000000E-01  9.60000000E-01  7.20000000E-01  7.20000000E-01
  7.20000000E-01  7.20000000E-01  7.20000000E-01  7.20000000E-01  7.20000000E-01
  7.20000000E-01  9.60000000E-01  7.20000000E-01  8.50000000E-01  7.20000000E-01
  7.20000000E-01  8.50000000E-01  7.20000000E-01  7.20000000E-01  7.20000000E-01
  8.50000000E-01  7.20000000E-01  8.50000000E-01  8.50000000E-01  8.50000000E-01
  7.20000000E-01  7.20000000E-01  7.20000000E-01  7.20000000E-01  8.50000000E-01
  7.20000000E-01  8.50000000E-01  7.20000000E-01  8.50000000E-01  8.50000000E-01
  7.20000000E-01  8.50000000E-01  8.50000000E-01  7.20000000E-01  8.50000000E-01
  8.50000000E-01  8.50000000E-01  7.20000000E-01  8.50000000E-01  8.50000000E-01
  7.20000000E-01  8.50000000E-01  8.50000000E-01  7.20000000E-01  8.50000000E-01
  8.50000000E-01  7.20000000E-01  8.50000000E-01  8.50000000E-01  8.50000000E-01
  8.50000000E-01  7.20000000E-01  7.20000000E-01  8.50000000E-01  8.50000000E-01
  8.50000000E-01  7.20000000E-01  8.50000000E-01  8.50000000E-01  8.50000000E-01
  8.50000000E-01  9.60000000E-01  7.20000000E-01  7.20000000E-01  7.20000000E-01
  7.20000000E-01  7.20000000E-01  7.20000000E-01  7.20000000E-01  7.20000000E-01
  9.60000000E-01  7.20000000E-01  8.50000000E-01  7.20000000E-01  7.20000000E-01
  8.50000000E-01  7.20000000E-01  7.20000000E-01  7.20000000E-01  8.50000000E-01
  7.20000000E-01  8.50000000E-01  8.50000000E-01  8.50000000E-01  7.20000000E-01
  7.20000000E-01  7.20000000E-01  7.20000000E-01  8.50000000E-01  7.20000000E-01
  8.50000000E-01  7.20000000E-01  8.50000000E-01  8.50000000E-01  7.20000000E-01
  8.50000000E-01  8.50000000E-01  7.20000000E-01  8.50000000E-01  8.50000000E-01
  8.50000000E-01  7.20000000E-01  8.50000000E-01  8.50000000E-01  7.20000000E-01
  8.50000000E-01  8.50000000E-01  7.20000000E-01  8.50000000E-01  8.50000000E-01
  7.20000000E-01  8.50000000E-01  8.50000000E-01  8.50000000E-01  8.50000000E-01
  7.20000000E-01  7.20000000E-01  8.50000000E-01  8.50000000E-01  8.50000000E-01
  7.20000000E-01  8.50000000E-01  8.50000000E-01  8.50000000E-01  8.50000000E-01
  9.60000000E-01  7.20000000E-01  7.20000000E-01  7.20000000E-01  7.20000000E-01
  7.20000000E-01  7.20000000E-01  7.20000000E-01  7.20000000E-01  9.60000000E-01
  7.20000000E-01  8.50000000E-01  7.20000000E-01  7.20000000E-01  8.50000000E-01
  7.20000000E-01  7.20000000E-01  7.20000000E-01  8.50000000E-01  7.20000000E-01
  8.50000000E-01  8.50000000E-01  8.50000000E-01  7.20000000E-01  7.20000000E-01
  7.20000000E-01  7.20000000E-01  8.50000000E-01  7.20000000E-01  8.50000000E-01
  7.20000000E-01  8.50000000E-01  8.50000000E-01  7.20000000E-01  8.50000000E-01
  8.50000000E-01  7.20000000E-01  8.50000000E-01  8.50000000E-01  8.50000000E-01
  7.20000000E-01  8.50000000E-01  8.50000000E-01  7.20000000E-01  8.50000000E-01
  8.50000000E-01  7.20000000E-01  8.50000000E-01  8.50000000E-01  7.20000000E-01
  8.50000000E-01  8.50000000E-01  8.50000000E-01  8.50000000E-01  7.20000000E-01
  7.20000000E-01  8.50000000E-01  8.50000000E-01  8.50000000E-01  7.20000000E-01
  8.50000000E-01  8.50000000E-01  8.50000000E-01  8.50000000E-01  9.60000000E-01
  7.20000000E-01  7.20000000E-01  7.20000000E-01  7.20000000E-01  7.20000000E-01
  7.20000000E-01  7.20000000E-01  7.20000000E-01  9.60000000E-01  7.20000000E-01
  8.50000000E-01  7.20000000E-01  7.20000000E-01  8.50000000E-01  7.20000000E-01
  7.20000000E-01  7.20000000E-01  8.50000000E-01  7.20000000E-01  8.50000000E-01
  8.50000000E-01  8.50000000E-01  7.20000000E-01  7.20000000E-01  7.20000000E-01
  7.20000000E-01  8.50000000E-01  7.20000000E-01  8.50000000E-01  7.20000000E-01
  8.50000000E-01  8.50000000E-01  7.20000000E-01  8.50000000E-01  8.50000000E-01
  7.20000000E-01  8.50000000E-01  8.50000000E-01  8.50000000E-01  7.20000000E-01
  8.50000000E-01  8.50000000E-01  7.20000000E-01  8.50000000E-01  8.50000000E-01
  7.20000000E-01  8.50000000E-01  8.50000000E-01  7.20000000E-01  8.50000000E-01
  8.50000000E-01  8.50000000E-01  8.50000000E-01  7.20000000E-01  7.20000000E-01
  8.50000000E-01  8.50000000E-01  8.50000000E-01  7.20000000E-01  8.50000000E-01
  8.50000000E-01  8.50000000E-01  8.50000000E-01  9.60000000E-01  7.20000000E-01
  7.20000000E-01  7.20000000E-01  7.20000000E-01  7.20000000E-01  7.20000000E-01
  7.20000000E-01  7.20000000E-01  9.60000000E-01  7.20000000E-01  8.50000000E-01
  7.20000000E-01  7.20000000E-01  8.50000000E-01  7.20000000E-01  7.20000000E-01
  7.20000000E-01  8.50000000E-01  7.20000000E-01  8.50000000E-01  8.50000000E-01
  8.50000000E-01  7.20000000E-01  7.20000000E-01  7.20000000E-01  7.20000000E-01
  8.50000000E-01  7.20000000E-01  8.50000000E-01  7.20000000E-01  8.50000000E-01
  8.50000000E-01  7.20000000E-01  8.50000000E-01  8.50000000E-01  7.20000000E-01
  8.50000000E-01  8.50000000E-01  8.50000000E-01  7.20000000E-01  8.50000000E-01
  8.50000000E-01  7.20000000E-01  8.50000000E-01  8.50000000E-01  7.20000000E-01
  8.50000000E-01  8.50000000E-01  7.20000000E-01  8.50000000E-01  8.50000000E-01
  8.50000000E-01  8.50000000E-01  7.20000000E-01  7.20000000E-01  8.50000000E-01
  8.50000000E-01  8.50000000E-01  7.20000000E-01  8.50000000E-01  8.50000000E-01
  8.50000000E-01  8.50000000E-01  9.60000000E-01  7.20000000E-01  7.20000000E-01
  7.20000000E-01  7.20000000E-01  7.20000000E-01  7.20000000E-01  7.20000000E-01
  7.20000000E-01  9.60000000E-01  7.20000000E-01  8.50000000E-01  7.20000000E-01
  7.20000000E-01  8.50000000E-01  7.20000000E-01  7.20000000E-01  7.20000000E-01
  8.50000000E-01  7.20000000E-01  8.50000000E-01  8.50000000E-01  8.50000000E-01
  7.20000000E-01  7.20000000E-01  7.20000000E-01  7.20000000E-01  8.50000000E-01
  7.20000000E-01  8.50000000E-01  7.20000000E-01  8.50000000E-01  8.50000000E-01
  7.20000000E-01  8.50000000E-01  8.50000000E-01  7.20000000E-01  8.50000000E-01
  8.50000000E-01  8.50000000E-01  7.20000000E-01  8.50000000E-01  8.50000000E-01
  7.20000000E-01  8.50000000E-01  8.50000000E-01  7.20000000E-01  8.50000000E-01
  8.50000000E-01  7.20000000E-01  8.50000000E-01  8.50000000E-01  8.50000000E-01
  8.50000000E-01  7.20000000E-01  7.20000000E-01  8.50000000E-01  8.50000000E-01
  8.50000000E-01  7.20000000E-01  8.50000000E-01  8.50000000E-01  8.50000000E-01
  8.50000000E-01  9.60000000E-01  7.20000000E-01  7.20000000E-01  7.20000000E-01
  7.20000000E-01  7.20000000E-01  7.20000000E-01  7.20000000E-01  7.20000000E-01
  9.60000000E-01  7.20000000E-01  8.50000000E-01  7.20000000E-01  7.20000000E-01
  8.50000000E-01  7.20000000E-01  7.20000000E-01  7.20000000E-01  8.50000000E-01
  7.20000000E-01  8.50000000E-01  8.50000000E-01  8.50000000E-01  7.20000000E-01
  7.20000000E-01  7.20000000E-01  7.20000000E-01  8.50000000E-01  7.20000000E-01
  8.50000000E-01  7.20000000E-01  8.50000000E-01  8.50000000E-01  7.20000000E-01
  8.50000000E-01  8.50000000E-01  7.20000000E-01  8.50000000E-01  8.50000000E-01
  8.50000000E-01  7.20000000E-01  8.50000000E-01  8.50000000E-01  7.20000000E-01
  8.50000000E-01  8.50000000E-01  7.20000000E-01  8.50000000E-01  8.50000000E-01
  7.20000000E-01  8.50000000E-01  8.50000000E-01  8.50000000E-01  8.50000000E-01
  7.20000000E-01  7.20000000E-01  8.50000000E-01  8.50000000E-01  8.50000000E-01
  7.20000000E-01  8.50000000E-01  8.50000000E-01  8.50000000E-01  8.50000000E-01
  9.60000000E-01  7.20000000E-01  7.20000000E-01  7.20000000E-01  7.20000000E-01
  7.20000000E-01  7.20000000E-01  7.20000000E-01  7.20000000E-01  9.60000000E-01
  7.20000000E-01  8.50000000E-01  7.20000000E-01  7.20000000E-01  8.50000000E-01
  7.20000000E-01  7.20000000E-01  7.20000000E-01  8.50000000E-01  7.20000000E-01
  8.50000000E-01  8.50000000E-01  8.50000000E-01  7.20000000E-01  7.20000000E-01
  7.20000000E-01  7.20000000E-01  8.50000000E-01  7.20000000E-01  8.50000000E-01
  7.20000000E-01  8.50000000E-01  8.50000000E-01  7.20000000E-01  8.50000000E-01
  8.50000000E-01  7.20000000E-01  8.50000000E-01  8.50000000E-01  8.50000000E-01
  7.20000000E-01  8.50000000E-01  8.50000000E-01  7.20000000E-01  8.50000000E-01
  8.50000000E-01  7.20000000E-01  8.50000000E-01  8.50000000E-01  7.20000000E-01
  8.50000000E-01  8.50000000E-01  8.50000000E-01  8.50000000E-01  7.20000000E-01
  7.20000000E-01  8.50000000E-01  8.50000000E-01  8.50000000E-01  7.20000000E-01
  8.50000000E-01  8.50000000E-01  8.50000000E-01  8.50000000E-01  9.60000000E-01
  7.20000000E-01  7.20000000E-01  7.20000000E-01  7.20000000E-01  7.20000000E-01
  7.20000000E-01  7.20000000E-01  7.20000000E-01  9.60000000E-01  7.20000000E-01
  8.50000000E-01  7.20000000E-01  7.20000000E-01  8.50000000E-01  7.20000000E-01
  7.20000000E-01  7.20000000E-01  8.50000000E-01  7.20000000E-01  8.50000000E-01
  8.50000000E-01  8.50000000E-01  7.20000000E-01  7.20000000E-01  7.20000000E-01
  7.20000000E-01  8.50000000E-01  7.20000000E-01  8.50000000E-01  7.20000000E-01
  8.50000000E-01  8.50000000E-01  7.20000000E-01  8.50000000E-01  8.50000000E-01
  7.20000000E-01  8.50000000E-01  8.50000000E-01  8.50000000E-01  7.20000000E-01
  8.50000000E-01  8.50000000E-01  7.20000000E-01  8.50000000E-01  8.50000000E-01
  7.20000000E-01  8.50000000E-01  8.50000000E-01  7.20000000E-01  8.50000000E-01
  8.50000000E-01  8.50000000E-01  8.50000000E-01  7.20000000E-01  7.20000000E-01
  8.50000000E-01  8.50000000E-01  8.50000000E-01  7.20000000E-01  8.50000000E-01
  8.50000000E-01  8.50000000E-01  8.50000000E-01  9.60000000E-01  7.20000000E-01
  7.20000000E-01  7.20000000E-01  7.20000000E-01  7.20000000E-01  7.20000000E-01
  7.20000000E-01  7.20000000E-01  9.60000000E-01  7.20000000E-01  8.50000000E-01
  7.20000000E-01  7.20000000E-01  8.50000000E-01  7.20000000E-01  7.20000000E-01
  7.20000000E-01  8.50000000E-01  7.20000000E-01  8.50000000E-01  8.50000000E-01
  8.50000000E-01  7.20000000E-01  7.20000000E-01  7.20000000E-01  7.20000000E-01
  8.50000000E-01  7.20000000E-01  8.50000000E-01  7.20000000E-01  8.50000000E-01
  8.50000000E-01  7.20000000E-01  8.50000000E-01  8.50000000E-01  7.20000000E-01
  8.50000000E-01  8.50000000E-01  8.50000000E-01  7.20000000E-01  8.50000000E-01
  8.50000000E-01  7.20000000E-01  8.50000000E-01  8.50000000E-01  7.20000000E-01
  8.50000000E-01  8.50000000E-01  7.20000000E-01  8.50000000E-01  8.50000000E-01
  8.50000000E-01  8.50000000E-01  7.20000000E-01  7.20000000E-01  8.50000000E-01
  8.50000000E-01  8.50000000E-01  7.20000000E-01  8.50000000E-01  8.50000000E-01
  8.50000000E-01  8.50000000E-01  9.60000000E-01  7.20000000E-01  7.20000000E-01
  7.20000000E-01  7.20000000E-01  7.20000000E-01  7.20000000E-01  7.20000000E-01
  7.20000000E-01  9.60000000E-01  7.20000000E-01  8.50000000E-01  7.20000000E-01
  7.20000000E-01  8.50000000E-01  7.20000000E-01  7.20000000E-01  7.20000000E-01
  8.50000000E-01  7.20000000E-01  8.50000000E-01  8.50000000E-01  8.50000000E-01
  7.20000000E-01  7.20000000E-01  7.20000000E-01  7.20000000E-01  8.50000000E-01
  7.20000000E-01  8.50000000E-01  7.20000000E-01  8.50000000E-01  8.50000000E-01
  7.20000000E-01  8.50000000E-01  8.50000000E-01  7.20000000E-01  8.50000000E-01
  8.50000000E-01  8.50000000E-01  7.20000000E-01  8.50000000E-01  8.50000000E-01
  7.20000000E-01  8.50000000E-01  8.50000000E-01  7.20000000E-01  8.50000000E-01
  8.50000000E-01  7.20000000E-01  8.50000000E-01  8.50000000E-01  8.50000000E-01
  8.50000000E-01  7.20000000E-01  7.20000000E-01  8.50000000E-01  8.50000000E-01
  8.50000000E-01  7.20000000E-01  8.50000000E-01  8.50000000E-01  8.50000000E-01
  8.50000000E-01  9.60000000E-01  7.20000000E-01  7.20000000E-01  7.20000000E-01
  7.20000000E-01  7.20000000E-01  7.20000000E-01  7.20000000E-01  7.20000000E-01
  9.60000000E-01  7.20000000E-01  8.50000000E-01  7.20000000E-01  7.20000000E-01
  8.50000000E-01  7.20000000E-01  7.20000000E-01  7.20000000E-01  8.50000000E-01
  7.20000000E-01  8.50000000E-01  8.50000000E-01  8.50000000E-01  7.20000000E-01
  7.20000000E-01  7.20000000E-01  7.20000000E-01  8.50000000E-01  7.20000000E-01
  8.50000000E-01  7.20000000E-01  8.50000000E-01  8.50000000E-01  7.20000000E-01
  8.50000000E-01  8.50000000E-01  7.20000000E-01  8.50000000E-01  8.50000000E-01
  8.50000000E-01  7.20000000E-01  8.50000000E-01  8.50000000E-01  7.20000000E-01
  8.50000000E-01  8.50000000E-01  7.20000000E-01  8.50000000E-01  8.50000000E-01
  7.20000000E-01  8.50000000E-01  8.50000000E-01  8.50000000E-01  8.50000000E-01
  7.20000000E-01  7.20000000E-01  8.50000000E-01  8.50000000E-01  8.50000000E-01
  7.20000000E-01  8.50000000E-01  8.50000000E-01  8.50000000E-01  8.50000000E-01
  9.60000000E-01  7.20000000E-01  7.20000000E-01  7.20000000E-01  7.20000000E-01
  7.20000000E-01  7.20000000E-01  7.20000000E-01  7.20000000E-01  9.60000000E-01
  7.20000000E-01  8.50000000E-01  7.20000000E-01  7.20000000E-01  8.50000000E-01
  7.20000000E-01  7.20000000E-01  7.20000000E-01  8.50000000E-01  7.20000000E-01
  8.50000000E-01  8.50000000E-01  8.50000000E-01  7.20000000E-01  7.20000000E-01
  7.20000000E-01  7.20000000E-01  8.50000000E-01  7.20000000E-01  8.50000000E-01
  7.20000000E-01  8.50000000E-01  8.50000000E-01  7.20000000E-01  8.50000000E-01
  8.50000000E-01  7.20000000E-01  8.50000000E-01  8.50000000E-01  8.50000000E-01
  7.20000000E-01  8.50000000E-01  8.50000000E-01  7.20000000E-01  8.50000000E-01
  8.50000000E-01  7.20000000E-01  8.50000000E-01  8.50000000E-01  7.20000000E-01
  8.50000000E-01  8.50000000E-01  8.50000000E-01  8.50000000E-01  7.20000000E-01
  7.20000000E-01  8.50000000E-01  8.50000000E-01  8.50000000E-01  7.20000000E-01
  8.50000000E-01  8.50000000E-01  8.50000000E-01  8.50000000E-01  9.60000000E-01
  7.20000000E-01  7.20000000E-01  7.20000000E-01  7.20000000E-01  7.20000000E-01
  7.20000000E-01  7.20000000E-01  7.20000000E-01  9.60000000E-01  7.20000000E-01
  8.50000000E-01  7.20000000E-01  7.20000000E-01  8.50000000E-01  7.20000000E-01
  7.20000000E-01  7.20000000E-01  8.50000000E-01  7.20000000E-01  8.50000000E-01
  8.50000000E-01  8.50000000E-01  7.20000000E-01  7.20000000E-01  7.20000000E-01
  7.20000000E-01  8.50000000E-01  7.20000000E-01  8.50000000E-01  7.20000000E-01
  8.50000000E-01  8.50000000E-01  7.20000000E-01  8.50000000E-01  8.50000000E-01
  7.20000000E-01  8.50000000E-01  8.50000000E-01  8.50000000E-01  7.20000000E-01
  8.50000000E-01  8.50000000E-01  7.20000000E-01  8.50000000E-01  8.50000000E-01
  7.20000000E-01  8.50000000E-01  8.50000000E-01  7.20000000E-01  8.50000000E-01
  8.50000000E-01  8.50000000E-01  8.50000000E-01  7.20000000E-01  7.20000000E-01
  8.50000000E-01  8.50000000E-01  8.50000000E-01  7.20000000E-01  8.50000000E-01
  8.50000000E-01  8.50000000E-01  8.50000000E-01  9.60000000E-01  7.20000000E-01
  7.20000000E-01  7.20000000E-01  7.20000000E-01  7.20000000E-01  7.20000000E-01
  7.20000000E-01  7.20000000E-01  9.60000000E-01  7.20000000E-01  8.50000000E-01
  7.20000000E-01  7.20000000E-01  8.50000000E-01  7.20000000E-01  7.20000000E-01
  7.20000000E-01  8.50000000E-01  7.20000000E-01  8.50000000E-01  8.50000000E-01
  8.50000000E-01  7.20000000E-01  7.20000000E-01  7.20000000E-01  7.20000000E-01
  8.50000000E-01  7.20000000E-01  8.50000000E-01  7.20000000E-01  8.50000000E-01
  8.50000000E-01  7.20000000E-01  8.50000000E-01  8.50000000E-01  7.20000000E-01
  8.50000000E-01  8.50000000E-01  8.50000000E-01  7.20000000E-01  8.50000000E-01
  8.50000000E-01  7.20000000E-01  8.50000000E-01  8.50000000E-01  7.20000000E-01
  8.50000000E-01  8.50000000E-01  7.20000000E-01  8.50000000E-01  8.50000000E-01
  8.50000000E-01  8.50000000E-01  7.20000000E-01  7.20000000E-01  8.50000000E-01
  8.50000000E-01  8.50000000E-01  7.20000000E-01  8.50000000E-01  8.50000000E-01
  8.50000000E-01  8.50000000E-01  9.60000000E-01  7.20000000E-01  7.20000000E-01
  7.20000000E-01  7.20000000E-01  7.20000000E-01  7.20000000E-01  7.20000000E-01
  7.20000000E-01  9.60000000E-01  7.20000000E-01  8.50000000E-01  7.20000000E-01
  7.20000000E-01  8.50000000E-01  7.20000000E-01  7.20000000E-01  7.20000000E-01
  8.50000000E-01  7.20000000E-01  8.50000000E-01  8.50000000E-01  8.50000000E-01
  7.20000000E-01  7.20000000E-01  7.20000000E-01  7.20000000E-01  8.50000000E-01
  7.20000000E-01  8.50000000E-01  7.20000000E-01  8.50000000E-01  8.50000000E-01
  7.20000000E-01  8.50000000E-01  8.50000000E-01  7.20000000E-01  8.50000000E-01
  8.50000000E-01  8.50000000E-01  7.20000000E-01  8.50000000E-01  8.50000000E-01
  7.20000000E-01  8.50000000E-01  8.50000000E-01  7.20000000E-01  8.50000000E-01
  8.50000000E-01  7.20000000E-01  8.50000000E-01  8.50000000E-01  8.50000000E-01
  8.50000000E-01  7.20000000E-01  7.20000000E-01  8.50000000E-01  8.50000000E-01
  8.50000000E-01  7.20000000E-01  8.50000000E-01  8.50000000E-01  8.50000000E-01
  8.50000000E-01  9.60000000E-01  7.20000000E-01  7.20000000E-01  7.20000000E-01
  7.20000000E-01  7.20000000E-01  7.20000000E-01  7.20000000E-01  7.20000000E-01
  9.60000000E-01  7.20000000E-01  8.50000000E-01  7.20000000E-01  7.20000000E-01
  8.50000000E-01  7.20000000E-01  7.20000000E-01  7.20000000E-01  8.50000000E-01
  7.20000000E-01  8.50000000E-01  8.50000000E-01  8.50000000E-01  7.20000000E-01
  7.20000000E-01  7.20000000E-01  7.20000000E-01  8.50000000E-01  7.20000000E-01
  8.50000000E-01  7.20000000E-01  8.50000000E-01  8.50000000E-01  7.20000000E-01
  8.50000000E-01  8.50000000E-01  7.20000000E-01  8.50000000E-01  8.50000000E-01
  8.50000000E-01  7.20000000E-01  8.50000000E-01  8.50000000E-01  7.20000000E-01
  8.50000000E-01  8.50000000E-01  7.20000000E-01  8.50000000E-01  8.50000000E-01
  7.20000000E-01  8.50000000E-01  8.50000000E-01  8.50000000E-01  8.50000000E-01
  7.20000000E-01  7.20000000E-01  8.50000000E-01  8.50000000E-01  8.50000000E-01
  7.20000000E-01  8.50000000E-01  8.50000000E-01  8.50000000E-01  8.50000000E-01
  9.60000000E-01  7.20000000E-01  7.20000000E-01  7.20000000E-01  7.20000000E-01
  7.20000000E-01  7.20000000E-01  7.20000000E-01  7.20000000E-01  9.60000000E-01
  7.20000000E-01  8.50000000E-01  7.20000000E-01  7.20000000E-01  8.50000000E-01
  7.20000000E-01  7.20000000E-01  7.20000000E-01  8.50000000E-01  7.20000000E-01
  8.50000000E-01  8.50000000E-01  8.50000000E-01  7.20000000E-01  7.20000000E-01
  7.20000000E-01  7.20000000E-01  8.50000000E-01  7.20000000E-01  8.50000000E-01
  7.20000000E-01  8.50000000E-01  8.50000000E-01  7.20000000E-01  8.50000000E-01
  8.50000000E-01  7.20000000E-01  8.50000000E-01  8.50000000E-01  8.50000000E-01
  7.20000000E-01  8.50000000E-01  8.50000000E-01  7.20000000E-01  8.50000000E-01
  8.50000000E-01  7.20000000E-01  8.50000000E-01  8.50000000E-01  7.20000000E-01
  8.50000000E-01  8.50000000E-01  8.50000000E-01  8.50000000E-01  7.20000000E-01
  7.20000000E-01  8.50000000E-01  8.50000000E-01  8.50000000E-01  7.20000000E-01
  8.50000000E-01  8.50000000E-01  8.50000000E-01  8.50000000E-01  9.60000000E-01
  7.20000000E-01  7.20000000E-01  7.20000000E-01  7.20000000E-01  7.20000000E-01
  7.20000000E-01  7.20000000E-01  7.20000000E-01  9.60000000E-01  7.20000000E-01
  8.50000000E-01  7.20000000E-01  7.20000000E-01  8.50000000E-01  7.20000000E-01
  7.20000000E-01  7.20000000E-01  8.50000000E-01  7.20000000E-01  8.50000000E-01
  8.50000000E-01  8.50000000E-01  7.20000000E-01  7.20000000E-01  7.20000000E-01
  7.20000000E-01  8.50000000E-01  7.20000000E-01  8.50000000E-01  7.20000000E-01
  8.50000000E-01  8.50000000E-01  7.20000000E-01  8.50000000E-01  8.50000000E-01
  7.20000000E-01  8.50000000E-01  8.50000000E-01  8.50000000E-01  7.20000000E-01
  8.50000000E-01  8.50000000E-01  7.20000000E-01  8.50000000E-01  8.50000000E-01
  7.20000000E-01  8.50000000E-01  8.50000000E-01  7.20000000E-01  8.50000000E-01
  8.50000000E-01  8.50000000E-01  8.50000000E-01  7.20000000E-01  7.20000000E-01
  8.50000000E-01  8.50000000E-01  8.50000000E-01  7.20000000E-01  8.50000000E-01
  8.50000000E-01  8.50000000E-01  8.50000000E-01  9.60000000E-01  7.20000000E-01
  7.20000000E-01  7.20000000E-01  7.20000000E-01  7.20000000E-01  7.20000000E-01
  7.20000000E-01  7.20000000E-01  9.60000000E-01  7.20000000E-01  8.50000000E-01
  7.20000000E-01  7.20000000E-01  8.50000000E-01  7.20000000E-01  7.20000000E-01
  7.20000000E-01  8.50000000E-01  7.20000000E-01  8.50000000E-01  8.50000000E-01
  8.50000000E-01  7.20000000E-01  7.20000000E-01  7.20000000E-01  7.20000000E-01
  8.50000000E-01  7.20000000E-01  8.50000000E-01  7.20000000E-01  8.50000000E-01
  8.50000000E-01  7.20000000E-01  8.50000000E-01  8.50000000E-01  7.20000000E-01
  8.50000000E-01  8.50000000E-01  8.50000000E-01  7.20000000E-01  8.50000000E-01
  8.50000000E-01  7.20000000E-01  8.50000000E-01  8.50000000E-01  7.20000000E-01
  8.50000000E-01  8.50000000E-01  7.20000000E-01  8.50000000E-01  8.50000000E-01
  8.50000000E-01  8.50000000E-01  7.20000000E-01  7.20000000E-01  8.50000000E-01
  8.50000000E-01  8.50000000E-01  7.20000000E-01  8.50000000E-01  8.50000000E-01
  8.50000000E-01  8.50000000E-01  9.60000000E-01  7.20000000E-01  7.20000000E-01
  7.20000000E-01  7.20000000E-01  7.20000000E-01  7.20000000E-01  7.20000000E-01
  7.20000000E-01  9.60000000E-01  7.20000000E-01  8.50000000E-01  7.20000000E-01
  7.20000000E-01  8.50000000E-01  7.20000000E-01  7.20000000E-01  7.20000000E-01
  8.50000000E-01  7.20000000E-01  8.50000000E-01  8.50000000E-01  8.50000000E-01
  7.20000000E-01  7.20000000E-01  7.20000000E-01  7.20000000E-01  8.50000000E-01
  7.20000000E-01  8.50000000E-01  7.20000000E-01  8.50000000E-01  8.50000000E-01
  7.20000000E-01  8.50000000E-01  8.50000000E-01  7.20000000E-01  8.50000000E-01
  8.50000000E-01  8.50000000E-01  7.20000000E-01  8.50000000E-01  8.50000000E-01
  7.20000000E-01  8.50000000E-01  8.50000000E-01  7.20000000E-01  8.50000000E-01
  8.50000000E-01  7.20000000E-01  8.50000000E-01  8.50000000E-01  8.50000000E-01
  8.50000000E-01  7.20000000E-01  7.20000000E-01  8.50000000E-01  8.50000000E-01
  8.50000000E-01  7.20000000E-01  8.50000000E-01  8.50000000E-01  8.50000000E-01
  8.50000000E-01  9.60000000E-01  7.20000000E-01  7.20000000E-01  7.20000000E-01
  7.20000000E-01  7.20000000E-01  7.20000000E-01  7.20000000E-01  7.20000000E-01
  9.60000000E-01  7.20000000E-01  8.50000000E-01  7.20000000E-01  7.20000000E-01
  8.50000000E-01  7.20000000E-01  7.20000000E-01  7.20000000E-01  8.50000000E-01
  7.20000000E-01  8.50000000E-01  8.50000000E-01  8.50000000E-01  7.20000000E-01
  7.20000000E-01  7.20000000E-01  7.20000000E-01  8.50000000E-01  7.20000000E-01
  8.50000000E-01  7.20000000E-01  8.50000000E-01  8.50000000E-01  7.20000000E-01
  8.50000000E-01  8.50000000E-01  7.20000000E-01  8.50000000E-01  8.50000000E-01
  8.50000000E-01  7.20000000E-01  8.50000000E-01  8.50000000E-01  7.20000000E-01
  8.50000000E-01  8.50000000E-01  7.20000000E-01  8.50000000E-01  8.50000000E-01
  7.20000000E-01  8.50000000E-01  8.50000000E-01  8.50000000E-01  8.50000000E-01
  7.20000000E-01  7.20000000E-01  8.50000000E-01  8.50000000E-01  8.50000000E-01
  7.20000000E-01  8.50000000E-01  8.50000000E-01  8.50000000E-01  8.50000000E-01
  9.60000000E-01  7.20000000E-01  7.20000000E-01  7.20000000E-01  7.20000000E-01
  7.20000000E-01  7.20000000E-01  7.20000000E-01  7.20000000E-01  9.60000000E-01
  7.20000000E-01  8.50000000E-01  7.20000000E-01  7.20000000E-01  8.50000000E-01
  7.20000000E-01  7.20000000E-01  7.20000000E-01  8.50000000E-01  7.20000000E-01
  8.50000000E-01  8.50000000E-01  8.50000000E-01  7.20000000E-01  7.20000000E-01
  7.20000000E-01  7.20000000E-01  8.50000000E-01  7.20000000E-01  8.50000000E-01
  7.20000000E-01  8.50000000E-01  8.50000000E-01  7.20000000E-01  8.50000000E-01
  8.50000000E-01  7.20000000E-01  8.50000000E-01  8.50000000E-01  8.50000000E-01
  7.20000000E-01  8.50000000E-01  8.50000000E-01  7.20000000E-01  8.50000000E-01
  8.50000000E-01  7.20000000E-01  8.50000000E-01  8.50000000E-01  7.20000000E-01
  8.50000000E-01  8.50000000E-01  8.50000000E-01  8.50000000E-01  7.20000000E-01
  7.20000000E-01  8.50000000E-01  8.50000000E-01  8.50000000E-01  7.20000000E-01
  8.50000000E-01  8.50000000E-01  8.50000000E-01  8.50000000E-01  9.60000000E-01
  7.20000000E-01  7.20000000E-01  7.20000000E-01  7.20000000E-01  7.20000000E-01
  7.20000000E-01  7.20000000E-01  7.20000000E-01  9.60000000E-01  7.20000000E-01
  8.50000000E-01  7.20000000E-01  7.20000000E-01  8.50000000E-01  7.20000000E-01
  7.20000000E-01  7.20000000E-01  8.50000000E-01  7.20000000E-01  8.50000000E-01
  8.50000000E-01  8.50000000E-01  7.20000000E-01  7.20000000E-01  7.20000000E-01
  7.20000000E-01  8.50000000E-01  7.20000000E-01  8.50000000E-01  7.20000000E-01
  8.50000000E-01  8.50000000E-01  7.20000000E-01  8.50000000E-01  8.50000000E-01
  7.20000000E-01  8.50000000E-01  8.50000000E-01  8.50000000E-01  7.20000000E-01
  8.50000000E-01  8.50000000E-01  7.20000000E-01  8.50000000E-01  8.50000000E-01
  7.20000000E-01  8.50000000E-01  8.50000000E-01  7.20000000E-01  8.50000000E-01
  8.50000000E-01  8.50000000E-01  8.50000000E-01  7.20000000E-01  7.20000000E-01
  8.50000000E-01  8.50000000E-01  8.50000000E-01  7.20000000E-01  8.50000000E-01
  8.50000000E-01  8.50000000E-01  8.50000000E-01  9.60000000E-01  7.20000000E-01
  7.20000000E-01  7.20000000E-01  7.20000000E-01  7.20000000E-01  7.20000000E-01
  7.20000000E-01  7.20000000E-01  9.60000000E-01  7.20000000E-01  8.50000000E-01
  7.20000000E-01  7.20000000E-01  8.50000000E-01  7.20000000E-01  7.20000000E-01
  7.20000000E-01  8.50000000E-01  7.20000000E-01  8.50000000E-01  8.50000000E-01
  8.50000000E-01  7.20000000E-01  7.20000000E-01  7.20000000E-01  7.20000000E-01
  8.50000000E-01  7.20000000E-01  8.50000000E-01  7.20000000E-01  8.50000000E-01
  8.50000000E-01  7.20000000E-01  8.50000000E-01  8.50000000E-01  7.20000000E-01
  8.50000000E-01  8.50000000E-01  8.50000000E-01  7.20000000E-01  8.50000000E-01
  8.50000000E-01  7.20000000E-01  8.50000000E-01  8.50000000E-01  7.20000000E-01
  8.50000000E-01  8.50000000E-01  7.20000000E-01  8.50000000E-01  8.50000000E-01
  8.50000000E-01  8.50000000E-01  7.20000000E-01  7.20000000E-01  8.50000000E-01
  8.50000000E-01  8.50000000E-01  7.20000000E-01  8.50000000E-01  8.50000000E-01
  8.50000000E-01  8.50000000E-01  9.60000000E-01  7.20000000E-01  7.20000000E-01
  7.20000000E-01  7.20000000E-01  7.20000000E-01  7.20000000E-01  7.20000000E-01
  7.20000000E-01  9.60000000E-01  7.20000000E-01  8.50000000E-01  7.20000000E-01
  7.20000000E-01  8.50000000E-01  7.20000000E-01  7.20000000E-01  7.20000000E-01
  8.50000000E-01  7.20000000E-01  8.50000000E-01  8.50000000E-01  8.50000000E-01
  7.20000000E-01  7.20000000E-01  7.20000000E-01  7.20000000E-01  8.50000000E-01
  7.20000000E-01  8.50000000E-01  7.20000000E-01  8.50000000E-01  8.50000000E-01
  7.20000000E-01  8.50000000E-01  8.50000000E-01  7.20000000E-01  8.50000000E-01
  8.50000000E-01  8.50000000E-01  7.20000000E-01  8.50000000E-01  8.50000000E-01
  7.20000000E-01  8.50000000E-01  8.50000000E-01  7.20000000E-01  8.50000000E-01
  8.50000000E-01  7.20000000E-01  8.50000000E-01  8.50000000E-01  8.50000000E-01
  8.50000000E-01  7.20000000E-01  7.20000000E-01  8.50000000E-01  8.50000000E-01
  8.50000000E-01  7.20000000E-01  8.50000000E-01  8.50000000E-01  8.50000000E-01
  8.50000000E-01  9.60000000E-01  7.20000000E-01  7.20000000E-01  7.20000000E-01
  7.20000000E-01  7.20000000E-01  7.20000000E-01  7.20000000E-01  7.20000000E-01
  9.60000000E-01  7.20000000E-01  8.50000000E-01  7.20000000E-01  7.20000000E-01
  8.50000000E-01  7.20000000E-01  7.20000000E-01  7.20000000E-01  8.50000000E-01
  7.20000000E-01  8.50000000E-01  8.50000000E-01  8.50000000E-01  7.20000000E-01
  7.20000000E-01  7.20000000E-01  7.20000000E-01  8.50000000E-01  7.20000000E-01
  8.50000000E-01  7.20000000E-01  8.50000000E-01  8.50000000E-01  7.20000000E-01
  8.50000000E-01  8.50000000E-01  7.20000000E-01  8.50000000E-01  8.50000000E-01
  8.50000000E-01  7.20000000E-01  8.50000000E-01  8.50000000E-01  7.20000000E-01
  8.50000000E-01  8.50000000E-01  7.20000000E-01  8.50000000E-01  8.50000000E-01
  7.20000000E-01  8.50000000E-01  8.50000000E-01  8.50000000E-01  8.50000000E-01
  7.20000000E-01  7.20000000E-01  8.50000000E-01  8.50000000E-01  8.50000000E-01
  7.20000000E-01  8.50000000E-01  8.50000000E-01  8.50000000E-01  8.50000000E-01
  9.60000000E-01  7.20000000E-01  7.20000000E-01  7.20000000E-01  7.20000000E-01
  7.20000000E-01  7.20000000E-01  7.20000000E-01  7.20000000E-01  9.60000000E-01
  7.20000000E-01  8.50000000E-01  7.20000000E-01  7.20000000E-01  8.50000000E-01
  7.20000000E-01  7.20000000E-01  7.20000000E-01  8.50000000E-01  7.20000000E-01
  8.50000000E-01  8.50000000E-01  8.50000000E-01  7.20000000E-01  7.20000000E-01
  7.20000000E-01  7.20000000E-01  8.50000000E-01  7.20000000E-01  8.50000000E-01
  7.20000000E-01  8.50000000E-01  8.50000000E-01  7.20000000E-01  8.50000000E-01
  8.50000000E-01  7.20000000E-01  8.50000000E-01  8.50000000E-01  8.50000000E-01
  7.20000000E-01  8.50000000E-01  8.50000000E-01  7.20000000E-01  8.50000000E-01
  8.50000000E-01  7.20000000E-01  8.50000000E-01  8.50000000E-01  7.20000000E-01
  8.50000000E-01  8.50000000E-01  8.50000000E-01  8.50000000E-01  7.20000000E-01
  7.20000000E-01  8.50000000E-01  8.50000000E-01  8.50000000E-01  7.20000000E-01
  8.50000000E-01  8.50000000E-01  8.50000000E-01  8.50000000E-01  9.60000000E-01
  7.20000000E-01  7.20000000E-01  7.20000000E-01  7.20000000E-01  7.20000000E-01
  7.20000000E-01  7.20000000E-01  7.20000000E-01  9.60000000E-01  7.20000000E-01
  8.50000000E-01  7.20000000E-01  7.20000000E-01  8.50000000E-01  7.20000000E-01
  7.20000000E-01  7.20000000E-01  8.50000000E-01  7.20000000E-01  8.50000000E-01
  8.50000000E-01  8.50000000E-01  7.20000000E-01  7.20000000E-01  7.20000000E-01
  7.20000000E-01  8.50000000E-01  7.20000000E-01  8.50000000E-01  7.20000000E-01
  8.50000000E-01  8.50000000E-01  7.20000000E-01  8.50000000E-01  8.50000000E-01
  7.20000000E-01  8.50000000E-01  8.50000000E-01  8.50000000E-01  7.20000000E-01
  8.50000000E-01  8.50000000E-01  7.20000000E-01  8.50000000E-01  8.50000000E-01
  7.20000000E-01  8.50000000E-01  8.50000000E-01  7.20000000E-01  8.50000000E-01
  8.50000000E-01  8.50000000E-01  8.50000000E-01  7.20000000E-01  7.20000000E-01
  8.50000000E-01  8.50000000E-01  8.50000000E-01  7.20000000E-01  8.50000000E-01
  8.50000000E-01  8.50000000E-01  8.50000000E-01  9.60000000E-01  7.20000000E-01
  7.20000000E-01  7.20000000E-01  7.20000000E-01  7.20000000E-01  7.20000000E-01
  7.20000000E-01  7.20000000E-01  9.60000000E-01  7.20000000E-01  8.50000000E-01
  7.20000000E-01  7.20000000E-01  8.50000000E-01  7.20000000E-01  7.20000000E-01
  7.20000000E-01  8.50000000E-01  7.20000000E-01  8.50000000E-01  8.50000000E-01
  8.50000000E-01  7.20000000E-01  7.20000000E-01  7.20000000E-01  7.20000000E-01
  8.50000000E-01  7.20000000E-01  8.50000000E-01  7.20000000E-01  8.50000000E-01
  8.50000000E-01  7.20000000E-01  8.50000000E-01  8.50000000E-01  7.20000000E-01
  8.50000000E-01  8.50000000E-01  8.50000000E-01  7.20000000E-01  8.50000000E-01
  8.50000000E-01  7.20000000E-01  8.50000000E-01  8.50000000E-01  7.20000000E-01
  8.50000000E-01  8.50000000E-01  7.20000000E-01  8.50000000E-01  8.50000000E-01
  8.50000000E-01  8.50000000E-01  7.20000000E-01  7.20000000E-01  8.50000000E-01
  8.50000000E-01  8.50000000E-01  7.20000000E-01  8.50000000E-01  8.50000000E-01
  8.50000000E-01  8.50000000E-01  9.60000000E-01  7.20000000E-01  7.20000000E-01
  7.20000000E-01  7.20000000E-01  7.20000000E-01  7.20000000E-01  7.20000000E-01
  7.20000000E-01  9.60000000E-01  7.20000000E-01  8.50000000E-01  7.20000000E-01
  7.20000000E-01  8.50000000E-01  7.20000000E-01  7.20000000E-01  7.20000000E-01
  8.50000000E-01  7.20000000E-01  8.50000000E-01  8.50000000E-01  8.50000000E-01
  7.20000000E-01  7.20000000E-01  7.20000000E-01  7.20000000E-01  8.50000000E-01
  7.20000000E-01  8.50000000E-01  7.20000000E-01  8.50000000E-01  8.50000000E-01
  7.20000000E-01  8.50000000E-01  8.50000000E-01  7.20000000E-01  8.50000000E-01
  8.50000000E-01  8.50000000E-01  7.20000000E-01  8.50000000E-01  8.50000000E-01
  7.20000000E-01  8.50000000E-01  8.50000000E-01  7.20000000E-01  8.50000000E-01
  8.50000000E-01  7.20000000E-01  8.50000000E-01  8.50000000E-01  8.50000000E-01
  8.50000000E-01  7.20000000E-01  7.20000000E-01  8.50000000E-01  8.50000000E-01
  8.50000000E-01  7.20000000E-01  8.50000000E-01  8.50000000E-01  8.50000000E-01
  8.50000000E-01  9.60000000E-01  7.20000000E-01  7.20000000E-01  7.20000000E-01
  7.20000000E-01  7.20000000E-01  7.20000000E-01  7.20000000E-01  7.20000000E-01
  9.60000000E-01  7.20000000E-01  8.50000000E-01  7.20000000E-01  7.20000000E-01
  8.50000000E-01  7.20000000E-01  7.20000000E-01  7.20000000E-01  8.50000000E-01
  7.20000000E-01  8.50000000E-01  8.50000000E-01  8.50000000E-01  7.20000000E-01
  7.20000000E-01  7.20000000E-01  7.20000000E-01  8.50000000E-01  7.20000000E-01
  8.50000000E-01  7.20000000E-01  8.50000000E-01  8.50000000E-01  7.20000000E-01
  8.50000000E-01  8.50000000E-01  7.20000000E-01  8.50000000E-01  8.50000000E-01
  8.50000000E-01  7.20000000E-01  8.50000000E-01  8.50000000E-01  7.20000000E-01
  8.50000000E-01  8.50000000E-01  7.20000000E-01  8.50000000E-01  8.50000000E-01
  7.20000000E-01  8.50000000E-01  8.50000000E-01  8.50000000E-01  8.50000000E-01
  7.20000000E-01  7.20000000E-01  8.50000000E-01  8.50000000E-01  8.50000000E-01
  7.20000000E-01  8.50000000E-01  8.50000000E-01  8.50000000E-01  8.50000000E-01
  9.60000000E-01  7.20000000E-01  7.20000000E-01  7.20000000E-01  7.20000000E-01
  7.20000000E-01  7.20000000E-01  7.20000000E-01  7.20000000E-01  9.60000000E-01
  7.20000000E-01  8.50000000E-01  7.20000000E-01  7.20000000E-01  8.50000000E-01
  7.20000000E-01  7.20000000E-01  7.20000000E-01  8.50000000E-01  7.20000000E-01
  8.50000000E-01  8.50000000E-01  8.50000000E-01  7.20000000E-01  7.20000000E-01
  7.20000000E-01  7.20000000E-01  8.50000000E-01  7.20000000E-01  8.50000000E-01
  7.20000000E-01  8.50000000E-01  8.50000000E-01  7.20000000E-01  8.50000000E-01
  8.50000000E-01  7.20000000E-01  8.50000000E-01  8.50000000E-01  8.50000000E-01
  7.20000000E-01  8.50000000E-01  8.50000000E-01  7.20000000E-01  8.50000000E-01
  8.50000000E-01  7.20000000E-01  8.50000000E-01  8.50000000E-01  7.20000000E-01
  8.50000000E-01  8.50000000E-01  8.50000000E-01  8.50000000E-01  7.20000000E-01
  7.20000000E-01  8.50000000E-01  8.50000000E-01  8.50000000E-01  7.20000000E-01
  8.50000000E-01  8.50000000E-01  8.50000000E-01  8.50000000E-01  9.60000000E-01
  7.20000000E-01  7.20000000E-01  7.20000000E-01  7.20000000E-01  7.20000000E-01
  7.20000000E-01  7.20000000E-01  7.20000000E-01  9.60000000E-01  7.20000000E-01
  8.50000000E-01  7.20000000E-01  7.20000000E-01  8.50000000E-01  7.20000000E-01
  7.20000000E-01  7.20000000E-01  8.50000000E-01  7.20000000E-01  8.50000000E-01
  8.50000000E-01  8.50000000E-01  7.20000000E-01  7.20000000E-01  7.20000000E-01
  7.20000000E-01  8.50000000E-01  7.20000000E-01  8.50000000E-01  7.20000000E-01
  8.50000000E-01  8.50000000E-01  7.20000000E-01  8.50000000E-01  8.50000000E-01
  7.20000000E-01  8.50000000E-01  8.50000000E-01  8.50000000E-01  7.20000000E-01
  8.50000000E-01  8.50000000E-01  7.20000000E-01  8.50000000E-01  8.50000000E-01
  7.20000000E-01  8.50000000E-01  8.50000000E-01  7.20000000E-01  8.50000000E-01
  8.50000000E-01  8.50000000E-01  8.50000000E-01  7.20000000E-01  7.20000000E-01
  8.50000000E-01  8.50000000E-01  8.50000000E-01  7.20000000E-01  8.50000000E-01
  8.50000000E-01  8.50000000E-01  8.50000000E-01  9.60000000E-01  7.20000000E-01
  7.20000000E-01  7.20000000E-01  7.20000000E-01  7.20000000E-01  7.20000000E-01
  7.20000000E-01  7.20000000E-01  9.60000000E-01  7.20000000E-01  8.50000000E-01
  7.20000000E-01  7.20000000E-01  8.50000000E-01  7.20000000E-01  7.20000000E-01
  7.20000000E-01  8.50000000E-01  7.20000000E-01  8.50000000E-01  8.50000000E-01
  8.50000000E-01  7.20000000E-01  7.20000000E-01  7.20000000E-01  7.20000000E-01
  8.50000000E-01  7.20000000E-01  8.50000000E-01  7.20000000E-01  8.50000000E-01
  8.50000000E-01  7.20000000E-01  8.50000000E-01  8.50000000E-01  7.20000000E-01
  8.50000000E-01  8.50000000E-01  8.50000000E-01  7.20000000E-01  8.50000000E-01
  8.50000000E-01  7.20000000E-01  8.50000000E-01  8.50000000E-01  7.20000000E-01
  8.50000000E-01  8.50000000E-01  7.20000000E-01  8.50000000E-01  8.50000000E-01
  8.50000000E-01  8.50000000E-01  7.20000000E-01  7.20000000E-01  8.50000000E-01
  8.50000000E-01  8.50000000E-01  7.20000000E-01  8.50000000E-01  8.50000000E-01
  8.50000000E-01  8.50000000E-01  9.60000000E-01  7.20000000E-01  7.20000000E-01
  7.20000000E-01  7.20000000E-01  7.20000000E-01  7.20000000E-01  7.20000000E-01
  7.20000000E-01  9.60000000E-01  7.20000000E-01  8.50000000E-01  7.20000000E-01
  7.20000000E-01  8.50000000E-01  7.20000000E-01  7.20000000E-01  7.20000000E-01
  8.50000000E-01  7.20000000E-01  8.50000000E-01  8.50000000E-01  8.50000000E-01
  7.20000000E-01  7.20000000E-01  7.20000000E-01  7.20000000E-01  8.50000000E-01
  7.20000000E-01  8.50000000E-01  7.20000000E-01  8.50000000E-01  8.50000000E-01
  7.20000000E-01  8.50000000E-01  8.50000000E-01  7.20000000E-01  8.50000000E-01
  8.50000000E-01  8.50000000E-01  7.20000000E-01  8.50000000E-01  8.50000000E-01
  7.20000000E-01  8.50000000E-01  8.50000000E-01  7.20000000E-01  8.50000000E-01
  8.50000000E-01  7.20000000E-01  8.50000000E-01  8.50000000E-01  8.50000000E-01
  8.50000000E-01  7.20000000E-01  7.20000000E-01  8.50000000E-01  8.50000000E-01
  8.50000000E-01  7.20000000E-01  8.50000000E-01  8.50000000E-01  8.50000000E-01
  8.50000000E-01  9.60000000E-01  7.20000000E-01  7.20000000E-01  7.20000000E-01
  7.20000000E-01  7.20000000E-01  7.20000000E-01  7.20000000E-01  7.20000000E-01
  9.60000000E-01  7.20000000E-01  8.50000000E-01  7.20000000E-01  7.20000000E-01
  8.50000000E-01  7.20000000E-01  7.20000000E-01  7.20000000E-01  8.50000000E-01
  7.20000000E-01  8.50000000E-01  8.50000000E-01  8.50000000E-01  7.20000000E-01
  7.20000000E-01  7.20000000E-01  7.20000000E-01  8.50000000E-01  7.20000000E-01
  8.50000000E-01  7.20000000E-01  8.50000000E-01  8.50000000E-01  7.20000000E-01
  8.50000000E-01  8.50000000E-01  7.20000000E-01  8.50000000E-01  8.50000000E-01
  8.50000000E-01  7.20000000E-01  8.50000000E-01  8.50000000E-01  7.20000000E-01
  8.50000000E-01  8.50000000E-01  7.20000000E-01  8.50000000E-01  8.50000000E-01
  7.20000000E-01  8.50000000E-01  8.50000000E-01  8.50000000E-01  8.50000000E-01
  7.20000000E-01  7.20000000E-01  8.50000000E-01  8.50000000E-01  8.50000000E-01
  7.20000000E-01  8.50000000E-01  8.50000000E-01  8.50000000E-01  8.50000000E-01
  9.60000000E-01  7.20000000E-01  7.20000000E-01  7.20000000E-01  7.20000000E-01
  7.20000000E-01  7.20000000E-01  7.20000000E-01  7.20000000E-01  9.60000000E-01
  7.20000000E-01  8.50000000E-01  7.20000000E-01  7.20000000E-01  8.50000000E-01
  7.20000000E-01  7.20000000E-01  7.20000000E-01  8.50000000E-01  7.20000000E-01
  8.50000000E-01  8.50000000E-01  8.50000000E-01  7.20000000E-01  7.20000000E-01
  7.20000000E-01  7.20000000E-01  8.50000000E-01  7.20000000E-01  8.50000000E-01
  7.20000000E-01  8.50000000E-01  8.50000000E-01  7.20000000E-01  8.50000000E-01
  8.50000000E-01  7.20000000E-01  8.50000000E-01  8.50000000E-01  8.50000000E-01
  7.20000000E-01  8.50000000E-01  8.50000000E-01  7.20000000E-01  8.50000000E-01
  8.50000000E-01  7.20000000E-01  8.50000000E-01  8.50000000E-01  7.20000000E-01
  8.50000000E-01  8.50000000E-01  8.50000000E-01  8.50000000E-01  7.20000000E-01
  7.20000000E-01  8.50000000E-01  8.50000000E-01  8.50000000E-01  7.20000000E-01
  8.50000000E-01  8.50000000E-01  8.50000000E-01  8.50000000E-01  9.60000000E-01
  7.20000000E-01  7.20000000E-01  7.20000000E-01  7.20000000E-01  7.20000000E-01
  7.20000000E-01  7.20000000E-01  7.20000000E-01  9.60000000E-01  7.20000000E-01
  8.50000000E-01  7.20000000E-01  7.20000000E-01  8.50000000E-01  7.20000000E-01
  7.20000000E-01  7.20000000E-01  8.50000000E-01  7.20000000E-01  8.50000000E-01
  8.50000000E-01  8.50000000E-01  7.20000000E-01  7.20000000E-01  7.20000000E-01
  7.20000000E-01  8.50000000E-01  7.20000000E-01  8.50000000E-01  7.20000000E-01
  8.50000000E-01  8.50000000E-01  7.20000000E-01  8.50000000E-01  8.50000000E-01
  7.20000000E-01  8.50000000E-01  8.50000000E-01  8.50000000E-01  7.20000000E-01
  8.50000000E-01  8.50000000E-01  7.20000000E-01  8.50000000E-01  8.50000000E-01
  7.20000000E-01  8.50000000E-01  8.50000000E-01  7.20000000E-01  8.50000000E-01
  8.50000000E-01  8.50000000E-01  8.50000000E-01  7.20000000E-01  7.20000000E-01
  8.50000000E-01  8.50000000E-01  8.50000000E-01  7.20000000E-01  8.50000000E-01
  8.50000000E-01  8.50000000E-01  8.50000000E-01  9.60000000E-01  7.20000000E-01
  7.20000000E-01  7.20000000E-01  7.20000000E-01  7.20000000E-01  7.20000000E-01
  7.20000000E-01  7.20000000E-01  9.60000000E-01  7.20000000E-01  8.50000000E-01
  7.20000000E-01  7.20000000E-01  8.50000000E-01  7.20000000E-01  7.20000000E-01
  7.20000000E-01  8.50000000E-01  7.20000000E-01  8.50000000E-01  8.50000000E-01
  8.50000000E-01  7.20000000E-01  7.20000000E-01  7.20000000E-01  7.20000000E-01
  8.50000000E-01  7.20000000E-01  8.50000000E-01  7.20000000E-01  8.50000000E-01
  8.50000000E-01  7.20000000E-01  8.50000000E-01  8.50000000E-01  7.20000000E-01
  8.50000000E-01  8.50000000E-01  8.50000000E-01  7.20000000E-01  8.50000000E-01
  8.50000000E-01  7.20000000E-01  8.50000000E-01  8.50000000E-01  7.20000000E-01
  8.50000000E-01  8.50000000E-01  7.20000000E-01  8.50000000E-01  8.50000000E-01
  8.50000000E-01  8.50000000E-01  7.20000000E-01  7.20000000E-01  8.50000000E-01
  8.50000000E-01  8.50000000E-01  7.20000000E-01  8.50000000E-01  8.50000000E-01
  8.50000000E-01  8.50000000E-01  9.60000000E-01  7.20000000E-01  7.20000000E-01
  7.20000000E-01  7.20000000E-01  7.20000000E-01  7.20000000E-01  7.20000000E-01
  7.20000000E-01  9.60000000E-01  7.20000000E-01  8.50000000E-01  7.20000000E-01
  7.20000000E-01  8.50000000E-01  7.20000000E-01  7.20000000E-01  7.20000000E-01
  8.50000000E-01  7.20000000E-01  8.50000000E-01  8.50000000E-01  8.50000000E-01
  7.20000000E-01  7.20000000E-01  7.20000000E-01  7.20000000E-01  8.50000000E-01
  7.20000000E-01  8.50000000E-01  7.20000000E-01  8.50000000E-01  8.50000000E-01
  7.20000000E-01  8.50000000E-01  8.50000000E-01  7.20000000E-01  8.50000000E-01
  8.50000000E-01  8.50000000E-01  7.20000000E-01  8.50000000E-01  8.50000000E-01
  7.20000000E-01  8.50000000E-01  8.50000000E-01  7.20000000E-01  8.50000000E-01
  8.50000000E-01  7.20000000E-01  8.50000000E-01  8.50000000E-01  8.50000000E-01
  8.50000000E-01  7.20000000E-01  7.20000000E-01  8.50000000E-01  8.50000000E-01
  8.50000000E-01  7.20000000E-01  8.50000000E-01  8.50000000E-01  8.50000000E-01
  8.50000000E-01  9.60000000E-01  7.20000000E-01  7.20000000E-01  7.20000000E-01
  7.20000000E-01  7.20000000E-01  7.20000000E-01  7.20000000E-01  7.20000000E-01
  9.60000000E-01  7.20000000E-01  8.50000000E-01  7.20000000E-01  7.20000000E-01
  8.50000000E-01  7.20000000E-01  7.20000000E-01  7.20000000E-01  8.50000000E-01
  7.20000000E-01  8.50000000E-01  8.50000000E-01  8.50000000E-01  7.20000000E-01
  7.20000000E-01  7.20000000E-01  7.20000000E-01  8.50000000E-01  7.20000000E-01
  8.50000000E-01  7.20000000E-01  8.50000000E-01  8.50000000E-01  7.20000000E-01
  8.50000000E-01  8.50000000E-01  7.20000000E-01  8.50000000E-01  8.50000000E-01
  8.50000000E-01  7.20000000E-01  8.50000000E-01  8.50000000E-01  7.20000000E-01
  8.50000000E-01  8.50000000E-01  7.20000000E-01  8.50000000E-01  8.50000000E-01
  7.20000000E-01  8.50000000E-01  8.50000000E-01  8.50000000E-01  8.50000000E-01
  7.20000000E-01  7.20000000E-01  8.50000000E-01  8.50000000E-01  8.50000000E-01
  7.20000000E-01  8.50000000E-01  8.50000000E-01  8.50000000E-01  8.50000000E-01
  9.60000000E-01  7.20000000E-01  7.20000000E-01  7.20000000E-01  7.20000000E-01
  7.20000000E-01  7.20000000E-01  7.20000000E-01  7.20000000E-01  9.60000000E-01
  7.20000000E-01  8.50000000E-01  7.20000000E-01  7.20000000E-01  8.50000000E-01
  7.20000000E-01  7.20000000E-01  7.20000000E-01  8.50000000E-01  7.20000000E-01
  8.50000000E-01  8.50000000E-01  8.50000000E-01  7.20000000E-01  7.20000000E-01
  7.20000000E-01  7.20000000E-01  8.50000000E-01  7.20000000E-01  8.50000000E-01
  7.20000000E-01  8.50000000E-01  8.50000000E-01  7.20000000E-01  8.50000000E-01
  8.50000000E-01  7.20000000E-01  8.50000000E-01  8.50000000E-01  8.50000000E-01
  7.20000000E-01  8.50000000E-01  8.50000000E-01  7.20000000E-01  8.50000000E-01
  8.50000000E-01  7.20000000E-01  8.50000000E-01  8.50000000E-01  7.20000000E-01
  8.50000000E-01  8.50000000E-01  8.50000000E-01  8.50000000E-01  7.20000000E-01
  7.20000000E-01  8.50000000E-01  8.50000000E-01  8.50000000E-01  7.20000000E-01
  8.50000000E-01  8.50000000E-01  8.50000000E-01  8.50000000E-01  9.60000000E-01
  7.20000000E-01  7.20000000E-01  7.20000000E-01  7.20000000E-01  7.20000000E-01
  7.20000000E-01  7.20000000E-01  7.20000000E-01  9.60000000E-01  7.20000000E-01
  8.50000000E-01  7.20000000E-01  7.20000000E-01  8.50000000E-01  7.20000000E-01
  7.20000000E-01  7.20000000E-01  8.50000000E-01  7.20000000E-01  8.50000000E-01
  8.50000000E-01  8.50000000E-01  7.20000000E-01  7.20000000E-01  7.20000000E-01
  7.20000000E-01  8.50000000E-01  7.20000000E-01  8.50000000E-01  7.20000000E-01
  8.50000000E-01  8.50000000E-01  7.20000000E-01  8.50000000E-01  8.50000000E-01
  7.20000000E-01  8.50000000E-01  8.50000000E-01  8.50000000E-01  7.20000000E-01
  8.50000000E-01  8.50000000E-01  7.20000000E-01  8.50000000E-01  8.50000000E-01
  7.20000000E-01  8.50000000E-01  8.50000000E-01  7.20000000E-01  8.50000000E-01
  8.50000000E-01  8.50000000E-01  8.50000000E-01  7.20000000E-01  7.20000000E-01
  8.50000000E-01  8.50000000E-01  8.50000000E-01  7.20000000E-01  8.50000000E-01
  8.50000000E-01  8.50000000E-01  8.50000000E-01  9.60000000E-01  7.20000000E-01
  7.20000000E-01  7.20000000E-01  7.20000000E-01  7.20000000E-01  7.20000000E-01
  7.20000000E-01  7.20000000E-01  9.60000000E-01  7.20000000E-01  8.50000000E-01
  7.20000000E-01  7.20000000E-01  8.50000000E-01  7.20000000E-01  7.20000000E-01
  7.20000000E-01  8.50000000E-01  7.20000000E-01  8.50000000E-01  8.50000000E-01
  8.50000000E-01  7.20000000E-01  7.20000000E-01  7.20000000E-01  7.20000000E-01
  8.50000000E-01  7.20000000E-01  8.50000000E-01  7.20000000E-01  8.50000000E-01
  8.50000000E-01  7.20000000E-01  8.50000000E-01  8.50000000E-01  7.20000000E-01
  8.50000000E-01  8.50000000E-01  8.50000000E-01  7.20000000E-01  8.50000000E-01
  8.50000000E-01  7.20000000E-01  8.50000000E-01  8.50000000E-01  7.20000000E-01
  8.50000000E-01  8.50000000E-01  7.20000000E-01  8.50000000E-01  8.50000000E-01
  8.50000000E-01  8.50000000E-01  7.20000000E-01  7.20000000E-01  8.50000000E-01
  8.50000000E-01  8.50000000E-01  7.20000000E-01  8.50000000E-01  8.50000000E-01
  8.50000000E-01  8.50000000E-01  9.60000000E-01  7.20000000E-01  7.20000000E-01
  7.20000000E-01  7.20000000E-01  7.20000000E-01  7.20000000E-01  7.20000000E-01
  7.20000000E-01  9.60000000E-01  7.20000000E-01  8.50000000E-01  7.20000000E-01
  7.20000000E-01  8.50000000E-01  7.20000000E-01  7.20000000E-01  7.20000000E-01
  8.50000000E-01  7.20000000E-01  8.50000000E-01  8.50000000E-01  8.50000000E-01
  7.20000000E-01  7.20000000E-01  7.20000000E-01  7.20000000E-01  8.50000000E-01
  7.20000000E-01  8.50000000E-01  7.20000000E-01  8.50000000E-01  8.50000000E-01
  7.20000000E-01  8.50000000E-01  8.50000000E-01  7.20000000E-01  8.50000000E-01
  8.50000000E-01  8.50000000E-01  7.20000000E-01  8.50000000E-01  8.50000000E-01
  7.20000000E-01  8.50000000E-01  8.50000000E-01  7.20000000E-01  8.50000000E-01
  8.50000000E-01  7.20000000E-01  8.50000000E-01  8.50000000E-01  8.50000000E-01
  8.50000000E-01  7.20000000E-01  7.20000000E-01  8.50000000E-01  8.50000000E-01
  8.50000000E-01  7.20000000E-01  8.50000000E-01  8.50000000E-01  8.50000000E-01
  8.50000000E-01  9.60000000E-01  7.20000000E-01  7.20000000E-01  7.20000000E-01
  7.20000000E-01  7.20000000E-01  7.20000000E-01  7.20000000E-01  7.20000000E-01
  9.60000000E-01  7.20000000E-01  8.50000000E-01  7.20000000E-01  7.20000000E-01
  8.50000000E-01  7.20000000E-01  7.20000000E-01  7.20000000E-01  8.50000000E-01
  7.20000000E-01  8.50000000E-01  8.50000000E-01  8.50000000E-01  7.20000000E-01
  7.20000000E-01  7.20000000E-01  7.20000000E-01  8.50000000E-01  7.20000000E-01
  8.50000000E-01  7.20000000E-01  8.50000000E-01  8.50000000E-01  7.20000000E-01
  8.50000000E-01  8.50000000E-01  7.20000000E-01  8.50000000E-01  8.50000000E-01
  8.50000000E-01  7.20000000E-01  8.50000000E-01  8.50000000E-01  7.20000000E-01
  8.50000000E-01  8.50000000E-01  7.20000000E-01  8.50000000E-01  8.50000000E-01
  7.20000000E-01  8.50000000E-01  8.50000000E-01  8.50000000E-01  8.50000000E-01
  7.20000000E-01  7.20000000E-01  8.50000000E-01  8.50000000E-01  8.50000000E-01
  7.20000000E-01  8.50000000E-01  8.50000000E-01  8.50000000E-01  8.50000000E-01
  9.60000000E-01  7.20000000E-01  7.20000000E-01  7.20000000E-01  7.20000000E-01
  7.20000000E-01  7.20000000E-01  7.20000000E-01  7.20000000E-01  9.60000000E-01
  7.20000000E-01  8.50000000E-01  7.20000000E-01  7.20000000E-01  8.50000000E-01
  7.20000000E-01  7.20000000E-01  7.20000000E-01  8.50000000E-01  7.20000000E-01
  8.50000000E-01  8.50000000E-01  8.50000000E-01  7.20000000E-01  7.20000000E-01
  7.20000000E-01  7.20000000E-01  8.50000000E-01  7.20000000E-01  8.50000000E-01
  7.20000000E-01  8.50000000E-01  8.50000000E-01  7.20000000E-01  8.50000000E-01
  8.50000000E-01  7.20000000E-01  8.50000000E-01  8.50000000E-01  8.50000000E-01
  7.20000000E-01  8.50000000E-01  8.50000000E-01  7.20000000E-01  8.50000000E-01
  8.50000000E-01  7.20000000E-01  8.50000000E-01  8.50000000E-01  7.20000000E-01
  8.50000000E-01  8.50000000E-01  8.50000000E-01  8.50000000E-01  7.20000000E-01
  7.20000000E-01  8.50000000E-01  8.50000000E-01  8.50000000E-01  7.20000000E-01
  8.50000000E-01  8.50000000E-01  8.50000000E-01  8.50000000E-01  9.60000000E-01
  7.20000000E-01  7.20000000E-01  7.20000000E-01  7.20000000E-01  7.20000000E-01
  7.20000000E-01  7.20000000E-01  7.20000000E-01  9.60000000E-01  7.20000000E-01
  8.50000000E-01  7.20000000E-01  7.20000000E-01  8.50000000E-01  7.20000000E-01
  7.20000000E-01  7.20000000E-01  8.50000000E-01  7.20000000E-01  8.50000000E-01
  8.50000000E-01  8.50000000E-01  7.20000000E-01  7.20000000E-01  7.20000000E-01
  7.20000000E-01  8.50000000E-01  7.20000000E-01  8.50000000E-01  7.20000000E-01
  8.50000000E-01  8.50000000E-01  7.20000000E-01  8.50000000E-01  8.50000000E-01
  7.20000000E-01  8.50000000E-01  8.50000000E-01  8.50000000E-01  7.20000000E-01
  8.50000000E-01  8.50000000E-01  7.20000000E-01  8.50000000E-01  8.50000000E-01
  7.20000000E-01  8.50000000E-01  8.50000000E-01  7.20000000E-01  8.50000000E-01
  8.50000000E-01  8.50000000E-01  8.50000000E-01  7.20000000E-01  7.20000000E-01
  8.50000000E-01  8.50000000E-01  8.50000000E-01  7.20000000E-01  8.50000000E-01
  8.50000000E-01  8.50000000E-01  8.50000000E-01  9.60000000E-01  7.20000000E-01
  7.20000000E-01  7.20000000E-01  7.20000000E-01  7.20000000E-01  7.20000000E-01
  7.20000000E-01  7.20000000E-01  9.60000000E-01  7.20000000E-01  8.50000000E-01
  7.20000000E-01  7.20000000E-01  8.50000000E-01  7.20000000E-01  7.20000000E-01
  7.20000000E-01  8.50000000E-01  7.20000000E-01  8.50000000E-01  8.50000000E-01
  8.50000000E-01  7.20000000E-01  7.20000000E-01  7.20000000E-01  7.20000000E-01
  8.50000000E-01  7.20000000E-01  8.50000000E-01  7.20000000E-01  8.50000000E-01
  8.50000000E-01  7.20000000E-01  8.50000000E-01  8.50000000E-01  7.20000000E-01
  8.50000000E-01  8.50000000E-01  8.50000000E-01  7.20000000E-01  8.50000000E-01
  8.50000000E-01  7.20000000E-01  8.50000000E-01  8.50000000E-01  7.20000000E-01
  8.50000000E-01  8.50000000E-01  7.20000000E-01  8.50000000E-01  8.50000000E-01
  8.50000000E-01  8.50000000E-01  7.20000000E-01  7.20000000E-01  8.50000000E-01
  8.50000000E-01  8.50000000E-01  7.20000000E-01  8.50000000E-01  8.50000000E-01
  8.50000000E-01  8.50000000E-01  9.60000000E-01  7.20000000E-01  7.20000000E-01
  7.20000000E-01  7.20000000E-01  7.20000000E-01  7.20000000E-01  7.20000000E-01
  7.20000000E-01  9.60000000E-01  7.20000000E-01  8.50000000E-01  7.20000000E-01
  7.20000000E-01  8.50000000E-01  7.20000000E-01  7.20000000E-01  7.20000000E-01
  8.50000000E-01  7.20000000E-01  8.50000000E-01  8.50000000E-01  8.50000000E-01
  7.20000000E-01  7.20000000E-01  7.20000000E-01  7.20000000E-01  8.50000000E-01
  7.20000000E-01  8.50000000E-01  7.20000000E-01  8.50000000E-01  8.50000000E-01
  7.20000000E-01  8.50000000E-01  8.50000000E-01  7.20000000E-01  8.50000000E-01
  8.50000000E-01  8.50000000E-01  7.20000000E-01  8.50000000E-01  8.50000000E-01
  7.20000000E-01  8.50000000E-01  8.50000000E-01  7.20000000E-01  8.50000000E-01
  8.50000000E-01  7.20000000E-01  8.50000000E-01  8.50000000E-01  8.50000000E-01
  8.50000000E-01  7.20000000E-01  7.20000000E-01  8.50000000E-01  8.50000000E-01
  8.50000000E-01  7.20000000E-01  8.50000000E-01  8.50000000E-01  8.50000000E-01
  8.50000000E-01  9.60000000E-01  7.20000000E-01  7.20000000E-01  7.20000000E-01
  7.20000000E-01  7.20000000E-01  7.20000000E-01  7.20000000E-01  7.20000000E-01
  9.60000000E-01  7.20000000E-01  8.50000000E-01  7.20000000E-01  7.20000000E-01
  8.50000000E-01  7.20000000E-01  7.20000000E-01  7.20000000E-01  8.50000000E-01
  7.20000000E-01  8.50000000E-01  8.50000000E-01  8.50000000E-01  7.20000000E-01
  7.20000000E-01  7.20000000E-01  7.20000000E-01  8.50000000E-01  7.20000000E-01
  8.50000000E-01  7.20000000E-01  8.50000000E-01  8.50000000E-01  7.20000000E-01
  8.50000000E-01  8.50000000E-01  7.20000000E-01  8.50000000E-01  8.50000000E-01
  8.50000000E-01  7.20000000E-01  8.50000000E-01  8.50000000E-01  7.20000000E-01
  8.50000000E-01  8.50000000E-01  7.20000000E-01  8.50000000E-01  8.50000000E-01
  7.20000000E-01  8.50000000E-01  8.50000000E-01  8.50000000E-01  8.50000000E-01
  7.20000000E-01  7.20000000E-01  8.50000000E-01  8.50000000E-01  8.50000000E-01
  7.20000000E-01  8.50000000E-01  8.50000000E-01  8.50000000E-01  8.50000000E-01
  9.60000000E-01  7.20000000E-01  7.20000000E-01  7.20000000E-01  7.20000000E-01
  7.20000000E-01  7.20000000E-01  7.20000000E-01  7.20000000E-01  9.60000000E-01
  7.20000000E-01  8.50000000E-01  7.20000000E-01  7.20000000E-01  8.50000000E-01
  7.20000000E-01  7.20000000E-01  7.20000000E-01  8.50000000E-01  7.20000000E-01
  8.50000000E-01  8.50000000E-01  8.50000000E-01  7.20000000E-01  7.20000000E-01
  7.20000000E-01  7.20000000E-01  8.50000000E-01  7.20000000E-01  8.50000000E-01
  7.20000000E-01  8.50000000E-01  8.50000000E-01  7.20000000E-01  8.50000000E-01
  8.50000000E-01  7.20000000E-01  8.50000000E-01  8.50000000E-01  8.50000000E-01
  7.20000000E-01  8.50000000E-01  8.50000000E-01  7.20000000E-01  8.50000000E-01
  8.50000000E-01  7.20000000E-01  8.50000000E-01  8.50000000E-01  7.20000000E-01
  8.50000000E-01  8.50000000E-01  8.50000000E-01  8.50000000E-01  7.20000000E-01
  7.20000000E-01  8.50000000E-01  8.50000000E-01  8.50000000E-01  7.20000000E-01
  8.50000000E-01  8.50000000E-01  8.50000000E-01  8.50000000E-01  9.60000000E-01
  7.20000000E-01  7.20000000E-01  7.20000000E-01  7.20000000E-01  7.20000000E-01
  7.20000000E-01  7.20000000E-01  7.20000000E-01  9.60000000E-01  7.20000000E-01
  8.50000000E-01  7.20000000E-01  7.20000000E-01  8.50000000E-01  7.20000000E-01
  7.20000000E-01  7.20000000E-01  8.50000000E-01  7.20000000E-01  8.50000000E-01
  8.50000000E-01  8.50000000E-01  7.20000000E-01  7.20000000E-01  7.20000000E-01
  7.20000000E-01  8.50000000E-01  7.20000000E-01  8.50000000E-01  7.20000000E-01
  8.50000000E-01  8.50000000E-01  7.20000000E-01  8.50000000E-01  8.50000000E-01
  7.20000000E-01  8.50000000E-01  8.50000000E-01  8.50000000E-01  7.20000000E-01
  8.50000000E-01  8.50000000E-01  7.20000000E-01  8.50000000E-01  8.50000000E-01
  7.20000000E-01  8.50000000E-01  8.50000000E-01  7.20000000E-01  8.50000000E-01
  8.50000000E-01  8.50000000E-01  8.50000000E-01  7.20000000E-01  7.20000000E-01
  8.50000000E-01  8.50000000E-01  8.50000000E-01  7.20000000E-01  8.50000000E-01
  8.50000000E-01  8.50000000E-01  8.50000000E-01  9.60000000E-01  7.20000000E-01
  7.20000000E-01  7.20000000E-01  7.20000000E-01  7.20000000E-01  7.20000000E-01
  7.20000000E-01  7.20000000E-01  9.60000000E-01  7.20000000E-01  8.50000000E-01
  7.20000000E-01  7.20000000E-01  8.50000000E-01  7.20000000E-01  7.20000000E-01
  7.20000000E-01  8.50000000E-01  7.20000000E-01  8.50000000E-01  8.50000000E-01
  8.50000000E-01  7.20000000E-01  7.20000000E-01  7.20000000E-01  7.20000000E-01
  8.50000000E-01  7.20000000E-01  8.50000000E-01  7.20000000E-01  8.50000000E-01
  8.50000000E-01  7.20000000E-01  8.50000000E-01  8.50000000E-01  7.20000000E-01
  8.50000000E-01  8.50000000E-01  8.50000000E-01  7.20000000E-01  8.50000000E-01
  8.50000000E-01  7.20000000E-01  8.50000000E-01  8.50000000E-01  7.20000000E-01
  8.50000000E-01  8.50000000E-01  7.20000000E-01  8.50000000E-01  8.50000000E-01
  8.50000000E-01  8.50000000E-01  7.20000000E-01  7.20000000E-01  8.50000000E-01
  8.50000000E-01  8.50000000E-01  7.20000000E-01  8.50000000E-01  8.50000000E-01
  8.50000000E-01  8.50000000E-01  9.60000000E-01  7.20000000E-01  7.20000000E-01
  7.20000000E-01  7.20000000E-01  7.20000000E-01  7.20000000E-01  7.20000000E-01
  7.20000000E-01  9.60000000E-01  7.20000000E-01  8.50000000E-01  7.20000000E-01
  7.20000000E-01  8.50000000E-01  7.20000000E-01  7.20000000E-01  7.20000000E-01
  8.50000000E-01  7.20000000E-01  8.50000000E-01  8.50000000E-01  8.50000000E-01
  7.20000000E-01  7.20000000E-01  7.20000000E-01  7.20000000E-01  8.50000000E-01
  7.20000000E-01  8.50000000E-01  7.20000000E-01  8.50000000E-01  8.50000000E-01
  7.20000000E-01  8.50000000E-01  8.50000000E-01  7.20000000E-01  8.50000000E-01
  8.50000000E-01  8.50000000E-01  7.20000000E-01  8.50000000E-01  8.50000000E-01
  7.20000000E-01  8.50000000E-01  8.50000000E-01  7.20000000E-01  8.50000000E-01
  8.50000000E-01  7.20000000E-01  8.50000000E-01  8.50000000E-01  8.50000000E-01
  8.50000000E-01  7.20000000E-01  7.20000000E-01  8.50000000E-01  8.50000000E-01
  8.50000000E-01  7.20000000E-01  8.50000000E-01  8.50000000E-01  8.50000000E-01
  8.50000000E-01  9.60000000E-01  7.20000000E-01  7.20000000E-01  7.20000000E-01
  7.20000000E-01  7.20000000E-01  7.20000000E-01  7.20000000E-01  7.20000000E-01
  9.60000000E-01  7.20000000E-01  8.50000000E-01  7.20000000E-01  7.20000000E-01
  8.50000000E-01  7.20000000E-01  7.20000000E-01  7.20000000E-01  8.50000000E-01
  7.20000000E-01  8.50000000E-01  8.50000000E-01  8.50000000E-01  7.20000000E-01
  7.20000000E-01  7.20000000E-01  7.20000000E-01  8.50000000E-01  7.20000000E-01
  8.50000000E-01  7.20000000E-01  8.50000000E-01  8.50000000E-01  7.20000000E-01
  8.50000000E-01  8.50000000E-01  7.20000000E-01  8.50000000E-01  8.50000000E-01
  8.50000000E-01  7.20000000E-01  8.50000000E-01  8.50000000E-01  7.20000000E-01
  8.50000000E-01  8.50000000E-01  7.20000000E-01  8.50000000E-01  8.50000000E-01
  7.20000000E-01  8.50000000E-01  8.50000000E-01  8.50000000E-01  8.50000000E-01
  7.20000000E-01  7.20000000E-01  8.50000000E-01  8.50000000E-01  8.50000000E-01
  7.20000000E-01  8.50000000E-01  8.50000000E-01  8.50000000E-01  8.50000000E-01
  9.60000000E-01  7.20000000E-01  7.20000000E-01  7.20000000E-01  7.20000000E-01
  7.20000000E-01  7.20000000E-01  7.20000000E-01  7.20000000E-01  9.60000000E-01
  7.20000000E-01  8.50000000E-01  7.20000000E-01  7.20000000E-01  8.50000000E-01
  7.20000000E-01  7.20000000E-01  7.20000000E-01  8.50000000E-01  7.20000000E-01
  8.50000000E-01  8.50000000E-01  8.50000000E-01  7.20000000E-01  7.20000000E-01
  7.20000000E-01  7.20000000E-01  8.50000000E-01  7.20000000E-01  8.50000000E-01
  7.20000000E-01  8.50000000E-01  8.50000000E-01  7.20000000E-01  8.50000000E-01
  8.50000000E-01  7.20000000E-01  8.50000000E-01  8.50000000E-01  8.50000000E-01
  7.20000000E-01  8.50000000E-01  8.50000000E-01  7.20000000E-01  8.50000000E-01
  8.50000000E-01  7.20000000E-01  8.50000000E-01  8.50000000E-01  7.20000000E-01
  8.50000000E-01  8.50000000E-01  8.50000000E-01  8.50000000E-01  7.20000000E-01
  7.20000000E-01  8.50000000E-01  8.50000000E-01  8.50000000E-01  7.20000000E-01
  8.50000000E-01  8.50000000E-01  8.50000000E-01  8.50000000E-01  9.60000000E-01
  7.20000000E-01  7.20000000E-01  7.20000000E-01  7.20000000E-01  7.20000000E-01
  7.20000000E-01  7.20000000E-01  7.20000000E-01  9.60000000E-01  7.20000000E-01
  8.50000000E-01  7.20000000E-01  7.20000000E-01  8.50000000E-01  7.20000000E-01
  7.20000000E-01  7.20000000E-01  8.50000000E-01  7.20000000E-01  8.50000000E-01
  8.50000000E-01  8.50000000E-01  7.20000000E-01  7.20000000E-01  7.20000000E-01
  7.20000000E-01  8.50000000E-01  7.20000000E-01  8.50000000E-01  7.20000000E-01
  8.50000000E-01  8.50000000E-01  7.20000000E-01  8.50000000E-01  8.50000000E-01
  7.20000000E-01  8.50000000E-01  8.50000000E-01  8.50000000E-01  7.20000000E-01
  8.50000000E-01  8.50000000E-01  7.20000000E-01  8.50000000E-01  8.50000000E-01
  7.20000000E-01  8.50000000E-01  8.50000000E-01  7.20000000E-01  8.50000000E-01
  8.50000000E-01  8.50000000E-01  8.50000000E-01  7.20000000E-01  7.20000000E-01
  8.50000000E-01  8.50000000E-01  8.50000000E-01  7.20000000E-01  8.50000000E-01
  8.50000000E-01  8.50000000E-01  8.50000000E-01  9.60000000E-01  7.20000000E-01
  7.20000000E-01  7.20000000E-01  7.20000000E-01  7.20000000E-01  7.20000000E-01
  7.20000000E-01  7.20000000E-01  9.60000000E-01  7.20000000E-01  8.50000000E-01
  7.20000000E-01  7.20000000E-01  8.50000000E-01  7.20000000E-01  7.20000000E-01
  7.20000000E-01  8.50000000E-01  7.20000000E-01  8.50000000E-01  8.50000000E-01
  8.50000000E-01  7.20000000E-01  7.20000000E-01  7.20000000E-01  7.20000000E-01
  8.50000000E-01  7.20000000E-01  8.50000000E-01  7.20000000E-01  8.50000000E-01
  8.50000000E-01  7.20000000E-01  8.50000000E-01  8.50000000E-01  7.20000000E-01
  8.50000000E-01  8.50000000E-01  8.50000000E-01  7.20000000E-01  8.50000000E-01
  8.50000000E-01  7.20000000E-01  8.50000000E-01  8.50000000E-01  7.20000000E-01
  8.50000000E-01  8.50000000E-01  7.20000000E-01  8.50000000E-01  8.50000000E-01
  8.50000000E-01  8.50000000E-01  7.20000000E-01  7.20000000E-01  8.50000000E-01
  8.50000000E-01  8.50000000E-01  7.20000000E-01  8.50000000E-01  8.50000000E-01
  8.50000000E-01  8.50000000E-01  9.60000000E-01  7.20000000E-01  7.20000000E-01
  7.20000000E-01  7.20000000E-01  7.20000000E-01  7.20000000E-01  7.20000000E-01
  7.20000000E-01  9.60000000E-01  7.20000000E-01  8.50000000E-01  7.20000000E-01
  7.20000000E-01  8.50000000E-01  7.20000000E-01  7.20000000E-01  7.20000000E-01
  8.50000000E-01  7.20000000E-01  8.50000000E-01  8.50000000E-01  8.50000000E-01
  7.20000000E-01  7.20000000E-01  7.20000000E-01  7.20000000E-01  8.50000000E-01
  7.20000000E-01  8.50000000E-01  7.20000000E-01  8.50000000E-01  8.50000000E-01
  7.20000000E-01  8.50000000E-01  8.50000000E-01  7.20000000E-01  8.50000000E-01
  8.50000000E-01  8.50000000E-01  7.20000000E-01  8.50000000E-01  8.50000000E-01
  7.20000000E-01  8.50000000E-01  8.50000000E-01  7.20000000E-01  8.50000000E-01
  8.50000000E-01  7.20000000E-01  8.50000000E-01  8.50000000E-01  8.50000000E-01
  8.50000000E-01  7.20000000E-01  7.20000000E-01  8.50000000E-01  8.50000000E-01
  8.50000000E-01  7.20000000E-01  8.50000000E-01  8.50000000E-01  8.50000000E-01
  8.50000000E-01  9.60000000E-01  7.20000000E-01  7.20000000E-01  7.20000000E-01
  7.20000000E-01  7.20000000E-01  7.20000000E-01  7.20000000E-01  7.20000000E-01
  9.60000000E-01  7.20000000E-01  8.50000000E-01  7.20000000E-01  7.20000000E-01
  8.50000000E-01  7.20000000E-01  7.20000000E-01  7.20000000E-01  8.50000000E-01
  7.20000000E-01  8.50000000E-01  8.50000000E-01  8.50000000E-01  7.20000000E-01
  7.20000000E-01  7.20000000E-01  7.20000000E-01  8.50000000E-01  7.20000000E-01
  8.50000000E-01  7.20000000E-01  8.50000000E-01  8.50000000E-01  7.20000000E-01
  8.50000000E-01  8.50000000E-01  7.20000000E-01  8.50000000E-01  8.50000000E-01
  8.50000000E-01  7.20000000E-01  8.50000000E-01  8.50000000E-01  7.20000000E-01
  8.50000000E-01  8.50000000E-01  7.20000000E-01  8.50000000E-01  8.50000000E-01
  7.20000000E-01  8.50000000E-01  8.50000000E-01  8.50000000E-01  8.50000000E-01
  7.20000000E-01  7.20000000E-01  8.50000000E-01  8.50000000E-01  8.50000000E-01
  7.20000000E-01  8.50000000E-01  8.50000000E-01  8.50000000E-01  8.50000000E-01
  9.60000000E-01  7.20000000E-01  7.20000000E-01  7.20000000E-01  7.20000000E-01
  7.20000000E-01  7.20000000E-01  7.20000000E-01  7.20000000E-01  9.60000000E-01
  7.20000000E-01  8.50000000E-01  7.20000000E-01  7.20000000E-01  8.50000000E-01
  7.20000000E-01  7.20000000E-01  7.20000000E-01  8.50000000E-01  7.20000000E-01
  8.50000000E-01  8.50000000E-01  8.50000000E-01  7.20000000E-01  7.20000000E-01
  7.20000000E-01  7.20000000E-01  8.50000000E-01  7.20000000E-01  8.50000000E-01
  7.20000000E-01  8.50000000E-01  8.50000000E-01  7.20000000E-01  8.50000000E-01
  8.50000000E-01  7.20000000E-01  8.50000000E-01  8.50000000E-01  8.50000000E-01
  7.20000000E-01  8.50000000E-01  8.50000000E-01  7.20000000E-01  8.50000000E-01
  8.50000000E-01  7.20000000E-01  8.50000000E-01  8.50000000E-01  7.20000000E-01
  8.50000000E-01  8.50000000E-01  8.50000000E-01  8.50000000E-01  7.20000000E-01
  7.20000000E-01  8.50000000E-01  8.50000000E-01  8.50000000E-01  7.20000000E-01
  8.50000000E-01  8.50000000E-01  8.50000000E-01  8.50000000E-01  9.60000000E-01
  7.20000000E-01  7.20000000E-01  7.20000000E-01  7.20000000E-01  7.20000000E-01
  7.20000000E-01  7.20000000E-01  7.20000000E-01  9.60000000E-01  7.20000000E-01
  8.50000000E-01  7.20000000E-01  7.20000000E-01  8.50000000E-01  7.20000000E-01
  7.20000000E-01  7.20000000E-01  8.50000000E-01  7.20000000E-01  8.50000000E-01
  8.50000000E-01  8.50000000E-01  7.20000000E-01  7.20000000E-01  7.20000000E-01
  7.20000000E-01  8.50000000E-01  7.20000000E-01  8.50000000E-01  7.20000000E-01
  8.50000000E-01  8.50000000E-01  7.20000000E-01  8.50000000E-01  8.50000000E-01
  7.20000000E-01  8.50000000E-01  8.50000000E-01  8.50000000E-01  7.20000000E-01
  8.50000000E-01  8.50000000E-01  7.20000000E-01  8.50000000E-01  8.50000000E-01
  7.20000000E-01  8.50000000E-01  8.50000000E-01  7.20000000E-01  8.50000000E-01
  8.50000000E-01  8.50000000E-01  8.50000000E-01  7.20000000E-01  7.20000000E-01
  8.50000000E-01  8.50000000E-01  8.50000000E-01  7.20000000E-01  8.50000000E-01
  8.50000000E-01  8.50000000E-01  8.50000000E-01  9.60000000E-01  7.20000000E-01
  7.20000000E-01  7.20000000E-01  7.20000000E-01  7.20000000E-01  7.20000000E-01
  7.20000000E-01  7.20000000E-01  9.60000000E-01  7.20000000E-01  8.50000000E-01
  7.20000000E-01  7.20000000E-01  8.50000000E-01  7.20000000E-01  7.20000000E-01
  7.20000000E-01  8.50000000E-01  7.20000000E-01  8.50000000E-01  8.50000000E-01
  8.50000000E-01  7.20000000E-01  7.20000000E-01  7.20000000E-01  7.20000000E-01
  8.50000000E-01  7.20000000E-01  8.50000000E-01  7.20000000E-01  8.50000000E-01
  8.50000000E-01  7.20000000E-01  8.50000000E-01  8.50000000E-01  7.20000000E-01
  8.50000000E-01  8.50000000E-01  8.50000000E-01  7.20000000E-01  8.50000000E-01
  8.50000000E-01  7.20000000E-01  8.50000000E-01  8.50000000E-01  7.20000000E-01
  8.50000000E-01  8.50000000E-01  7.20000000E-01  8.50000000E-01  8.50000000E-01
  8.50000000E-01  8.50000000E-01  7.20000000E-01  7.20000000E-01  8.50000000E-01
  8.50000000E-01  8.50000000E-01  7.20000000E-01  8.50000000E-01  8.50000000E-01
  8.50000000E-01  8.50000000E-01
%FLAG IPOL                                                                      
%FORMAT(1I8)                                                                    
       0
