default_name
 18432
   0.9380000   6.6410000  70.5530000   2.1030000   6.0610000  69.4080000
   1.9970000   6.1270000  71.8510000   2.1150000   6.0660000  67.9450000
   3.2350000   5.5930000  69.9640000   1.6760000   6.1980000  73.2240000
   3.2020000   5.6210000  71.4130000   1.1530000   6.4860000  67.0170000
   3.2850000   5.4960000  67.5040000   4.3840000   4.9920000  68.8040000
   2.6220000   5.7940000  74.1540000   0.8580000   6.5460000  73.4970000
   4.1400000   5.1610000  72.3640000   1.4320000   6.2920000  65.6600000
   0.3510000   6.8560000  67.3120000   3.5500000   5.2300000  66.1410000
   3.8340000   5.2400000  73.7250000   2.3010000   5.8010000  75.6180000
   4.9370000   4.7780000  72.0780000   2.6020000   5.6370000  65.2290000
   0.8440000   6.6570000  65.0390000   4.3280000   4.7890000  65.8880000
   4.4590000   4.9570000  74.3540000   1.3110000   6.6310000  76.1120000
   2.9290000   4.9710000  76.5140000   2.7810000   5.3300000  63.7370000
   0.9630000   6.6510000  77.4510000   0.8830000   7.2300000  75.5430000
   2.6060000   5.0350000  77.8860000   3.6160000   4.4240000  76.2100000
   3.9490000   6.0430000  63.0970000   2.8900000   4.3670000  63.6970000
   1.9450000   5.5730000  63.3090000   1.6310000   5.8560000  78.3380000
   0.2670000   7.1830000  77.7650000   3.0490000   4.4610000  78.4690000
   4.1680000   5.5330000  61.6410000   3.8110000   6.9990000  63.0140000
   4.7840000   5.8820000  63.5630000   1.4250000   5.8800000  79.2440000
   5.3700000   6.1220000  60.9530000   3.3470000   5.7260000  61.1620000
   4.2770000   4.5730000  61.7220000   5.5500000   5.5860000  59.5060000
   5.2530000   7.0800000  60.8610000   6.1880000   5.9430000  61.4440000
   6.7820000   6.1150000  58.7970000   4.7270000   5.7670000  59.0270000
   5.6560000   4.6270000  59.6100000   6.9030000   5.5410000  57.3710000
   6.6600000   7.0720000  58.6910000   7.5950000   5.9460000  59.2980000
   6.0850000   5.7070000  56.8770000   7.0280000   4.5860000  57.4820000
   8.0580000   6.1440000  56.6190000   8.2120000   5.5470000  55.2040000
   7.9750000   7.1070000  56.5340000   8.8980000   5.9330000  57.0560000
   7.3970000   5.8040000  54.7440000   9.3900000   6.0660000  54.4460000
   8.2440000   4.5810000  55.2860000   9.3540000   7.0260000  54.3750000
   9.3970000   5.6830000  53.5670000  10.1920000   5.8150000  54.9120000
   0.9380000  14.3980000  70.5530000   2.1030000  13.8180000  69.4080000
   1.9970000  13.8840000  71.8510000   2.1150000  13.8230000  67.9450000
   3.2350000  13.3500000  69.9640000   1.6760000  13.9550000  73.2240000
   3.2020000  13.3780000  71.4130000   1.1530000  14.2430000  67.0170000
   3.2850000  13.2520000  67.5040000   4.3840000  12.7490000  68.8040000
   2.6220000  13.5500000  74.1540000   0.8580000  14.3030000  73.4970000
   4.1400000  12.9180000  72.3640000   1.4320000  14.0480000  65.6600000
   0.3510000  14.6120000  67.3120000   3.5500000  12.9870000  66.1410000
   3.8340000  12.9970000  73.7250000   2.3010000  13.5580000  75.6180000
   4.9370000  12.5350000  72.0780000   2.6020000  13.3940000  65.2290000
   0.8440000  14.4140000  65.0390000   4.3280000  12.5460000  65.8880000
   4.4590000  12.7130000  74.3540000   1.3110000  14.3880000  76.1120000
   2.9290000  12.7280000  76.5140000   2.7810000  13.0860000  63.7370000
   0.9630000  14.4080000  77.4510000   0.8830000  14.9870000  75.5430000
   2.6060000  12.7920000  77.8860000   3.6160000  12.1800000  76.2100000
   3.9490000  13.7990000  63.0970000   2.8900000  12.1230000  63.6970000
   1.9450000  13.3300000  63.3090000   1.6310000  13.6130000  78.3380000
   0.2670000  14.9400000  77.7650000   3.0490000  12.2180000  78.4690000
   4.1680000  13.2900000  61.6410000   3.8110000  14.7560000  63.0140000
   4.7840000  13.6390000  63.5630000   1.4250000  13.6370000  79.2440000
   5.3700000  13.8780000  60.9530000   3.3470000  13.4820000  61.1620000
   4.2770000  12.3290000  61.7220000   5.5500000  13.3420000  59.5060000
   5.2530000  14.8370000  60.8610000   6.1880000  13.7000000  61.4440000
   6.7820000  13.8720000  58.7970000   4.7270000  13.5240000  59.0270000
   5.6560000  12.3840000  59.6100000   6.9030000  13.2980000  57.3710000
   6.6600000  14.8290000  58.6910000   7.5950000  13.7030000  59.2980000
   6.0850000  13.4630000  56.8770000   7.0280000  12.3430000  57.4820000
   8.0580000  13.9010000  56.6190000   8.2120000  13.3040000  55.2040000
   7.9750000  14.8640000  56.5340000   8.8980000  13.6900000  57.0560000
   7.3970000  13.5610000  54.7440000   9.3900000  13.8230000  54.4460000
   8.2440000  12.3380000  55.2860000   9.3540000  14.7830000  54.3750000
   9.3970000  13.4400000  53.5670000  10.1920000  13.5720000  54.9120000
   0.9380000  22.1550000  70.5530000   2.1030000  21.5750000  69.4080000
   1.9970000  21.6410000  71.8510000   2.1150000  21.5790000  67.9450000
   3.2350000  21.1070000  69.9640000   1.6760000  21.7120000  73.2240000
   3.2020000  21.1350000  71.4130000   1.1530000  22.0000000  67.0170000
   3.2850000  21.0090000  67.5040000   4.3840000  20.5060000  68.8040000
   2.6220000  21.3070000  74.1540000   0.8580000  22.0590000  73.4970000
   4.1400000  20.6750000  72.3640000   1.4320000  21.8050000  65.6600000
   0.3510000  22.3690000  67.3120000   3.5500000  20.7440000  66.1410000
   3.8340000  20.7530000  73.7250000   2.3010000  21.3150000  75.6180000
   4.9370000  20.2910000  72.0780000   2.6020000  21.1500000  65.2290000
   0.8440000  22.1710000  65.0390000   4.3280000  20.3030000  65.8880000
   4.4590000  20.4700000  74.3540000   1.3110000  22.1450000  76.1120000
   2.9290000  20.4850000  76.5140000   2.7810000  20.8430000  63.7370000
   0.9630000  22.1650000  77.4510000   0.8830000  22.7440000  75.5430000
   2.6060000  20.5490000  77.8860000   3.6160000  19.9370000  76.2100000
   3.9490000  21.5560000  63.0970000   2.8900000  19.8800000  63.6970000
   1.9450000  21.0870000  63.3090000   1.6310000  21.3700000  78.3380000
   0.2670000  22.6970000  77.7650000   3.0490000  19.9750000  78.4690000
   4.1680000  21.0470000  61.6410000   3.8110000  22.5130000  63.0140000
   4.7840000  21.3960000  63.5630000   1.4250000  21.3930000  79.2440000
   5.3700000  21.6350000  60.9530000   3.3470000  21.2390000  61.1620000
   4.2770000  20.0860000  61.7220000   5.5500000  21.0990000  59.5060000
   5.2530000  22.5940000  60.8610000   6.1880000  21.4570000  61.4440000
   6.7820000  21.6290000  58.7970000   4.7270000  21.2810000  59.0270000
   5.6560000  20.1410000  59.6100000   6.9030000  21.0550000  57.3710000
   6.6600000  22.5860000  58.6910000   7.5950000  21.4590000  59.2980000
   6.0850000  21.2200000  56.8770000   7.0280000  20.1000000  57.4820000
   8.0580000  21.6580000  56.6190000   8.2120000  21.0600000  55.2040000
   7.9750000  22.6210000  56.5340000   8.8980000  21.4470000  57.0560000
   7.3970000  21.3180000  54.7440000   9.3900000  21.5790000  54.4460000
   8.2440000  20.0950000  55.2860000   9.3540000  22.5390000  54.3750000
   9.3970000  21.1970000  53.5670000  10.1920000  21.3290000  54.9120000
   0.9380000  29.9120000  70.5530000   2.1030000  29.3320000  69.4080000
   1.9970000  29.3970000  71.8510000   2.1150000  29.3360000  67.9450000
   3.2350000  28.8640000  69.9640000   1.6760000  29.4690000  73.2240000
   3.2020000  28.8920000  71.4130000   1.1530000  29.7570000  67.0170000
   3.2850000  28.7660000  67.5040000   4.3840000  28.2630000  68.8040000
   2.6220000  29.0640000  74.1540000   0.8580000  29.8160000  73.4970000
   4.1400000  28.4320000  72.3640000   1.4320000  29.5620000  65.6600000
   0.3510000  30.1260000  67.3120000   3.5500000  28.5010000  66.1410000
   3.8340000  28.5100000  73.7250000   2.3010000  29.0720000  75.6180000
   4.9370000  28.0480000  72.0780000   2.6020000  28.9070000  65.2290000
   0.8440000  29.9280000  65.0390000   4.3280000  28.0600000  65.8880000
   4.4590000  28.2270000  74.3540000   1.3110000  29.9020000  76.1120000
   2.9290000  28.2420000  76.5140000   2.7810000  28.6000000  63.7370000
   0.9630000  29.9220000  77.4510000   0.8830000  30.5000000  75.5430000
   2.6060000  28.3050000  77.8860000   3.6160000  27.6940000  76.2100000
   3.9490000  29.3130000  63.0970000   2.8900000  27.6370000  63.6970000
   1.9450000  28.8440000  63.3090000   1.6310000  29.1270000  78.3380000
   0.2670000  30.4530000  77.7650000   3.0490000  27.7320000  78.4690000
   4.1680000  28.8030000  61.6410000   3.8110000  30.2700000  63.0140000
   4.7840000  29.1530000  63.5630000   1.4250000  29.1500000  79.2440000
   5.3700000  29.3920000  60.9530000   3.3470000  28.9960000  61.1620000
   4.2770000  27.8430000  61.7220000   5.5500000  28.8560000  59.5060000
   5.2530000  30.3510000  60.8610000   6.1880000  29.2140000  61.4440000
   6.7820000  29.3860000  58.7970000   4.7270000  29.0380000  59.0270000
   5.6560000  27.8980000  59.6100000   6.9030000  28.8120000  57.3710000
   6.6600000  30.3420000  58.6910000   7.5950000  29.2160000  59.2980000
   6.0850000  28.9770000  56.8770000   7.0280000  27.8570000  57.4820000
   8.0580000  29.4150000  56.6190000   8.2120000  28.8170000  55.2040000
   7.9750000  30.3780000  56.5340000   8.8980000  29.2040000  57.0560000
   7.3970000  29.0750000  54.7440000   9.3900000  29.3360000  54.4460000
   8.2440000  27.8510000  55.2860000   9.3540000  30.2960000  54.3750000
   9.3970000  28.9540000  53.5670000  10.1920000  29.0860000  54.9120000
   0.9380000  37.6690000  70.5530000   2.1030000  37.0880000  69.4080000
   1.9970000  37.1540000  71.8510000   2.1150000  37.0930000  67.9450000
   3.2350000  36.6210000  69.9640000   1.6760000  37.2260000  73.2240000
   3.2020000  36.6490000  71.4130000   1.1530000  37.5130000  67.0170000
   3.2850000  36.5230000  67.5040000   4.3840000  36.0190000  68.8040000
   2.6220000  36.8210000  74.1540000   0.8580000  37.5730000  73.4970000
   4.1400000  36.1890000  72.3640000   1.4320000  37.3190000  65.6600000
   0.3510000  37.8830000  67.3120000   3.5500000  36.2580000  66.1410000
   3.8340000  36.2670000  73.7250000   2.3010000  36.8290000  75.6180000
   4.9370000  35.8050000  72.0780000   2.6020000  36.6640000  65.2290000
   0.8440000  37.6840000  65.0390000   4.3280000  35.8160000  65.8880000
   4.4590000  35.9840000  74.3540000   1.3110000  37.6580000  76.1120000
   2.9290000  35.9990000  76.5140000   2.7810000  36.3570000  63.7370000
   0.9630000  37.6790000  77.4510000   0.8830000  38.2570000  75.5430000
   2.6060000  36.0620000  77.8860000   3.6160000  35.4510000  76.2100000
   3.9490000  37.0700000  63.0970000   2.8900000  35.3940000  63.6970000
   1.9450000  36.6000000  63.3090000   1.6310000  36.8840000  78.3380000
   0.2670000  38.2100000  77.7650000   3.0490000  35.4890000  78.4690000
   4.1680000  36.5600000  61.6410000   3.8110000  38.0270000  63.0140000
   4.7840000  36.9100000  63.5630000   1.4250000  36.9070000  79.2440000
   5.3700000  37.1490000  60.9530000   3.3470000  36.7530000  61.1620000
   4.2770000  35.6000000  61.7220000   5.5500000  36.6130000  59.5060000
   5.2530000  38.1080000  60.8610000   6.1880000  36.9700000  61.4440000
   6.7820000  37.1430000  58.7970000   4.7270000  36.7950000  59.0270000
   5.6560000  35.6540000  59.6100000   6.9030000  36.5690000  57.3710000
   6.6600000  38.0990000  58.6910000   7.5950000  36.9730000  59.2980000
   6.0850000  36.7340000  56.8770000   7.0280000  35.6130000  57.4820000
   8.0580000  37.1710000  56.6190000   8.2120000  36.5740000  55.2040000
   7.9750000  38.1340000  56.5340000   8.8980000  36.9610000  57.0560000
   7.3970000  36.8320000  54.7440000   9.3900000  37.0930000  54.4460000
   8.2440000  35.6080000  55.2860000   9.3540000  38.0530000  54.3750000
   9.3970000  36.7110000  53.5670000  10.1920000  36.8420000  54.9120000
   0.9380000  45.4250000  70.5530000   2.1030000  44.8450000  69.4080000
   1.9970000  44.9110000  71.8510000   2.1150000  44.8500000  67.9450000
   3.2350000  44.3770000  69.9640000   1.6760000  44.9820000  73.2240000
   3.2020000  44.4050000  71.4130000   1.1530000  45.2700000  67.0170000
   3.2850000  44.2800000  67.5040000   4.3840000  43.7760000  68.8040000
   2.6220000  44.5780000  74.1540000   0.8580000  45.3300000  73.4970000
   4.1400000  43.9450000  72.3640000   1.4320000  45.0760000  65.6600000
   0.3510000  45.6400000  67.3120000   3.5500000  44.0140000  66.1410000
   3.8340000  44.0240000  73.7250000   2.3010000  44.5850000  75.6180000
   4.9370000  43.5620000  72.0780000   2.6020000  44.4210000  65.2290000
   0.8440000  45.4410000  65.0390000   4.3280000  43.5730000  65.8880000
   4.4590000  43.7410000  74.3540000   1.3110000  45.4150000  76.1120000
   2.9290000  43.7550000  76.5140000   2.7810000  44.1140000  63.7370000
   0.9630000  45.4350000  77.4510000   0.8830000  46.0140000  75.5430000
   2.6060000  43.8190000  77.8860000   3.6160000  43.2080000  76.2100000
   3.9490000  44.8270000  63.0970000   2.8900000  43.1510000  63.6970000
   1.9450000  44.3570000  63.3090000   1.6310000  44.6400000  78.3380000
   0.2670000  45.9670000  77.7650000   3.0490000  43.2450000  78.4690000
   4.1680000  44.3170000  61.6410000   3.8110000  45.7830000  63.0140000
   4.7840000  44.6660000  63.5630000   1.4250000  44.6640000  79.2440000
   5.3700000  44.9060000  60.9530000   3.3470000  44.5100000  61.1620000
   4.2770000  43.3570000  61.7220000   5.5500000  44.3700000  59.5060000
   5.2530000  45.8640000  60.8610000   6.1880000  44.7270000  61.4440000
   6.7820000  44.8990000  58.7970000   4.7270000  44.5510000  59.0270000
   5.6560000  43.4110000  59.6100000   6.9030000  44.3250000  57.3710000
   6.6600000  45.8560000  58.6910000   7.5950000  44.7300000  59.2980000
   6.0850000  44.4910000  56.8770000   7.0280000  43.3700000  57.4820000
   8.0580000  44.9280000  56.6190000   8.2120000  44.3310000  55.2040000
   7.9750000  45.8910000  56.5340000   8.8980000  44.7170000  57.0560000
   7.3970000  44.5880000  54.7440000   9.3900000  44.8500000  54.4460000
   8.2440000  43.3650000  55.2860000   9.3540000  45.8100000  54.3750000
   9.3970000  44.4670000  53.5670000  10.1920000  44.5990000  54.9120000
   3.8440000   6.6410000  17.5080000   5.0080000   6.0610000  16.3640000
   4.9020000   6.1270000  18.8070000   5.0210000   6.0660000  14.9000000
   6.1410000   5.5930000  16.9190000   4.5810000   6.1980000  20.1790000
   6.1080000   5.6210000  18.3690000   4.0580000   6.4860000  13.9730000
   6.1900000   5.4960000  14.4590000   7.2890000   4.9920000  15.7600000
   5.5280000   5.7940000  21.1090000   3.7630000   6.5460000  20.4530000
   7.0450000   5.1610000  19.3200000   4.3370000   6.2920000  12.6150000
   3.2570000   6.8560000  14.2670000   6.4550000   5.2300000  13.0960000
   6.7390000   5.2400000  20.6800000   5.2060000   5.8010000  22.5740000
   7.8430000   4.7780000  19.0330000   5.5070000   5.6370000  12.1840000
   3.7490000   6.6570000  11.9940000   7.2330000   4.7890000  12.8430000
   7.3640000   4.9570000  21.3090000   4.2160000   6.6310000  23.0670000
   5.8340000   4.9710000  23.4700000   5.6860000   5.3300000  10.6930000
   3.8680000   6.6510000  24.4060000   3.7880000   7.2300000  22.4990000
   5.5110000   5.0350000  24.8410000   6.5220000   4.4240000  23.1660000
   6.8540000   6.0430000  10.0520000   5.7960000   4.3670000  10.6520000
   4.8500000   5.5730000  10.2650000   4.5360000   5.8560000  25.2930000
   3.1730000   7.1830000  24.7210000   5.9550000   4.4610000  25.4240000
   7.0740000   5.5330000   8.5970000   6.7160000   6.9990000   9.9700000
   7.6900000   5.8820000  10.5180000   4.3300000   5.8800000  26.2000000
   8.2750000   6.1220000   7.9090000   6.2520000   5.7260000   8.1180000
   7.1820000   4.5730000   8.6770000   8.4550000   5.5860000   6.4620000
   8.1580000   7.0800000   7.8160000   9.0930000   5.9430000   8.3990000
   9.6870000   6.1150000   5.7520000   7.6320000   5.7670000   5.9820000
   8.5610000   4.6270000   6.5660000   9.8080000   5.5410000   4.3260000
   9.5660000   7.0720000   5.6470000  10.5000000   5.9460000   6.2540000
   8.9900000   5.7070000   3.8330000   9.9330000   4.5860000   4.4370000
  10.9640000   6.1440000   3.5740000  11.1170000   5.5470000   2.1590000
  10.8800000   7.1070000   3.4890000  11.8030000   5.9330000   4.0110000
  10.3020000   5.8040000   1.6990000  12.2960000   6.0660000   1.4010000
  11.1500000   4.5810000   2.2410000  12.2590000   7.0260000   1.3300000
  12.3020000   5.6830000   0.5220000  13.0970000   5.8150000   1.8670000
   3.8440000  14.3980000  17.5080000   5.0080000  13.8180000  16.3640000
   4.9020000  13.8840000  18.8070000   5.0210000  13.8230000  14.9000000
   6.1410000  13.3500000  16.9190000   4.5810000  13.9550000  20.1790000
   6.1080000  13.3780000  18.3690000   4.0580000  14.2430000  13.9730000
   6.1900000  13.2520000  14.4590000   7.2890000  12.7490000  15.7600000
   5.5280000  13.5500000  21.1090000   3.7630000  14.3030000  20.4530000
   7.0450000  12.9180000  19.3200000   4.3370000  14.0480000  12.6150000
   3.2570000  14.6120000  14.2670000   6.4550000  12.9870000  13.0960000
   6.7390000  12.9970000  20.6800000   5.2060000  13.5580000  22.5740000
   7.8430000  12.5350000  19.0330000   5.5070000  13.3940000  12.1840000
   3.7490000  14.4140000  11.9940000   7.2330000  12.5460000  12.8430000
   7.3640000  12.7130000  21.3090000   4.2160000  14.3880000  23.0670000
   5.8340000  12.7280000  23.4700000   5.6860000  13.0860000  10.6930000
   3.8680000  14.4080000  24.4060000   3.7880000  14.9870000  22.4990000
   5.5110000  12.7920000  24.8410000   6.5220000  12.1800000  23.1660000
   6.8540000  13.7990000  10.0520000   5.7960000  12.1230000  10.6520000
   4.8500000  13.3300000  10.2650000   4.5360000  13.6130000  25.2930000
   3.1730000  14.9400000  24.7210000   5.9550000  12.2180000  25.4240000
   7.0740000  13.2900000   8.5970000   6.7160000  14.7560000   9.9700000
   7.6900000  13.6390000  10.5180000   4.3300000  13.6370000  26.2000000
   8.2750000  13.8780000   7.9090000   6.2520000  13.4820000   8.1180000
   7.1820000  12.3290000   8.6770000   8.4550000  13.3420000   6.4620000
   8.1580000  14.8370000   7.8160000   9.0930000  13.7000000   8.3990000
   9.6870000  13.8720000   5.7520000   7.6320000  13.5240000   5.9820000
   8.5610000  12.3840000   6.5660000   9.8080000  13.2980000   4.3260000
   9.5660000  14.8290000   5.6470000  10.5000000  13.7030000   6.2540000
   8.9900000  13.4630000   3.8330000   9.9330000  12.3430000   4.4370000
  10.9640000  13.9010000   3.5740000  11.1170000  13.3040000   2.1590000
  10.8800000  14.8640000   3.4890000  11.8030000  13.6900000   4.0110000
  10.3020000  13.5610000   1.6990000  12.2960000  13.8230000   1.4010000
  11.1500000  12.3380000   2.2410000  12.2590000  14.7830000   1.3300000
  12.3020000  13.4400000   0.5220000  13.0970000  13.5720000   1.8670000
   3.8440000  22.1550000  17.5080000   5.0080000  21.5750000  16.3640000
   4.9020000  21.6410000  18.8070000   5.0210000  21.5790000  14.9000000
   6.1410000  21.1070000  16.9190000   4.5810000  21.7120000  20.1790000
   6.1080000  21.1350000  18.3690000   4.0580000  22.0000000  13.9730000
   6.1900000  21.0090000  14.4590000   7.2890000  20.5060000  15.7600000
   5.5280000  21.3070000  21.1090000   3.7630000  22.0590000  20.4530000
   7.0450000  20.6750000  19.3200000   4.3370000  21.8050000  12.6150000
   3.2570000  22.3690000  14.2670000   6.4550000  20.7440000  13.0960000
   6.7390000  20.7530000  20.6800000   5.2060000  21.3150000  22.5740000
   7.8430000  20.2910000  19.0330000   5.5070000  21.1500000  12.1840000
   3.7490000  22.1710000  11.9940000   7.2330000  20.3030000  12.8430000
   7.3640000  20.4700000  21.3090000   4.2160000  22.1450000  23.0670000
   5.8340000  20.4850000  23.4700000   5.6860000  20.8430000  10.6930000
   3.8680000  22.1650000  24.4060000   3.7880000  22.7440000  22.4990000
   5.5110000  20.5490000  24.8410000   6.5220000  19.9370000  23.1660000
   6.8540000  21.5560000  10.0520000   5.7960000  19.8800000  10.6520000
   4.8500000  21.0870000  10.2650000   4.5360000  21.3700000  25.2930000
   3.1730000  22.6970000  24.7210000   5.9550000  19.9750000  25.4240000
   7.0740000  21.0470000   8.5970000   6.7160000  22.5130000   9.9700000
   7.6900000  21.3960000  10.5180000   4.3300000  21.3930000  26.2000000
   8.2750000  21.6350000   7.9090000   6.2520000  21.2390000   8.1180000
   7.1820000  20.0860000   8.6770000   8.4550000  21.0990000   6.4620000
   8.1580000  22.5940000   7.8160000   9.0930000  21.4570000   8.3990000
   9.6870000  21.6290000   5.7520000   7.6320000  21.2810000   5.9820000
   8.5610000  20.1410000   6.5660000   9.8080000  21.0550000   4.3260000
   9.5660000  22.5860000   5.6470000  10.5000000  21.4590000   6.2540000
   8.9900000  21.2200000   3.8330000   9.9330000  20.1000000   4.4370000
  10.9640000  21.6580000   3.5740000  11.1170000  21.0600000   2.1590000
  10.8800000  22.6210000   3.4890000  11.8030000  21.4470000   4.0110000
  10.3020000  21.3180000   1.6990000  12.2960000  21.5790000   1.4010000
  11.1500000  20.0950000   2.2410000  12.2590000  22.5390000   1.3300000
  12.3020000  21.1970000   0.5220000  13.0970000  21.3290000   1.8670000
   3.8440000  29.9120000  17.5080000   5.0080000  29.3320000  16.3640000
   4.9020000  29.3970000  18.8070000   5.0210000  29.3360000  14.9000000
   6.1410000  28.8640000  16.9190000   4.5810000  29.4690000  20.1790000
   6.1080000  28.8920000  18.3690000   4.0580000  29.7570000  13.9730000
   6.1900000  28.7660000  14.4590000   7.2890000  28.2630000  15.7600000
   5.5280000  29.0640000  21.1090000   3.7630000  29.8160000  20.4530000
   7.0450000  28.4320000  19.3200000   4.3370000  29.5620000  12.6150000
   3.2570000  30.1260000  14.2670000   6.4550000  28.5010000  13.0960000
   6.7390000  28.5100000  20.6800000   5.2060000  29.0720000  22.5740000
   7.8430000  28.0480000  19.0330000   5.5070000  28.9070000  12.1840000
   3.7490000  29.9280000  11.9940000   7.2330000  28.0600000  12.8430000
   7.3640000  28.2270000  21.3090000   4.2160000  29.9020000  23.0670000
   5.8340000  28.2420000  23.4700000   5.6860000  28.6000000  10.6930000
   3.8680000  29.9220000  24.4060000   3.7880000  30.5000000  22.4990000
   5.5110000  28.3050000  24.8410000   6.5220000  27.6940000  23.1660000
   6.8540000  29.3130000  10.0520000   5.7960000  27.6370000  10.6520000
   4.8500000  28.8440000  10.2650000   4.5360000  29.1270000  25.2930000
   3.1730000  30.4530000  24.7210000   5.9550000  27.7320000  25.4240000
   7.0740000  28.8030000   8.5970000   6.7160000  30.2700000   9.9700000
   7.6900000  29.1530000  10.5180000   4.3300000  29.1500000  26.2000000
   8.2750000  29.3920000   7.9090000   6.2520000  28.9960000   8.1180000
   7.1820000  27.8430000   8.6770000   8.4550000  28.8560000   6.4620000
   8.1580000  30.3510000   7.8160000   9.0930000  29.2140000   8.3990000
   9.6870000  29.3860000   5.7520000   7.6320000  29.0380000   5.9820000
   8.5610000  27.8980000   6.5660000   9.8080000  28.8120000   4.3260000
   9.5660000  30.3420000   5.6470000  10.5000000  29.2160000   6.2540000
   8.9900000  28.9770000   3.8330000   9.9330000  27.8570000   4.4370000
  10.9640000  29.4150000   3.5740000  11.1170000  28.8170000   2.1590000
  10.8800000  30.3780000   3.4890000  11.8030000  29.2040000   4.0110000
  10.3020000  29.0750000   1.6990000  12.2960000  29.3360000   1.4010000
  11.1500000  27.8510000   2.2410000  12.2590000  30.2960000   1.3300000
  12.3020000  28.9540000   0.5220000  13.0970000  29.0860000   1.8670000
   3.8440000  37.6690000  17.5080000   5.0080000  37.0880000  16.3640000
   4.9020000  37.1540000  18.8070000   5.0210000  37.0930000  14.9000000
   6.1410000  36.6210000  16.9190000   4.5810000  37.2260000  20.1790000
   6.1080000  36.6490000  18.3690000   4.0580000  37.5130000  13.9730000
   6.1900000  36.5230000  14.4590000   7.2890000  36.0190000  15.7600000
   5.5280000  36.8210000  21.1090000   3.7630000  37.5730000  20.4530000
   7.0450000  36.1890000  19.3200000   4.3370000  37.3190000  12.6150000
   3.2570000  37.8830000  14.2670000   6.4550000  36.2580000  13.0960000
   6.7390000  36.2670000  20.6800000   5.2060000  36.8290000  22.5740000
   7.8430000  35.8050000  19.0330000   5.5070000  36.6640000  12.1840000
   3.7490000  37.6840000  11.9940000   7.2330000  35.8160000  12.8430000
   7.3640000  35.9840000  21.3090000   4.2160000  37.6580000  23.0670000
   5.8340000  35.9990000  23.4700000   5.6860000  36.3570000  10.6930000
   3.8680000  37.6790000  24.4060000   3.7880000  38.2570000  22.4990000
   5.5110000  36.0620000  24.8410000   6.5220000  35.4510000  23.1660000
   6.8540000  37.0700000  10.0520000   5.7960000  35.3940000  10.6520000
   4.8500000  36.6000000  10.2650000   4.5360000  36.8840000  25.2930000
   3.1730000  38.2100000  24.7210000   5.9550000  35.4890000  25.4240000
   7.0740000  36.5600000   8.5970000   6.7160000  38.0270000   9.9700000
   7.6900000  36.9100000  10.5180000   4.3300000  36.9070000  26.2000000
   8.2750000  37.1490000   7.9090000   6.2520000  36.7530000   8.1180000
   7.1820000  35.6000000   8.6770000   8.4550000  36.6130000   6.4620000
   8.1580000  38.1080000   7.8160000   9.0930000  36.9700000   8.3990000
   9.6870000  37.1430000   5.7520000   7.6320000  36.7950000   5.9820000
   8.5610000  35.6540000   6.5660000   9.8080000  36.5690000   4.3260000
   9.5660000  38.0990000   5.6470000  10.5000000  36.9730000   6.2540000
   8.9900000  36.7340000   3.8330000   9.9330000  35.6130000   4.4370000
  10.9640000  37.1710000   3.5740000  11.1170000  36.5740000   2.1590000
  10.8800000  38.1340000   3.4890000  11.8030000  36.9610000   4.0110000
  10.3020000  36.8320000   1.6990000  12.2960000  37.0930000   1.4010000
  11.1500000  35.6080000   2.2410000  12.2590000  38.0530000   1.3300000
  12.3020000  36.7110000   0.5220000  13.0970000  36.8420000   1.8670000
   3.8440000  45.4250000  17.5080000   5.0080000  44.8450000  16.3640000
   4.9020000  44.9110000  18.8070000   5.0210000  44.8500000  14.9000000
   6.1410000  44.3770000  16.9190000   4.5810000  44.9820000  20.1790000
   6.1080000  44.4050000  18.3690000   4.0580000  45.2700000  13.9730000
   6.1900000  44.2800000  14.4590000   7.2890000  43.7760000  15.7600000
   5.5280000  44.5780000  21.1090000   3.7630000  45.3300000  20.4530000
   7.0450000  43.9450000  19.3200000   4.3370000  45.0760000  12.6150000
   3.2570000  45.6400000  14.2670000   6.4550000  44.0140000  13.0960000
   6.7390000  44.0240000  20.6800000   5.2060000  44.5850000  22.5740000
   7.8430000  43.5620000  19.0330000   5.5070000  44.4210000  12.1840000
   3.7490000  45.4410000  11.9940000   7.2330000  43.5730000  12.8430000
   7.3640000  43.7410000  21.3090000   4.2160000  45.4150000  23.0670000
   5.8340000  43.7550000  23.4700000   5.6860000  44.1140000  10.6930000
   3.8680000  45.4350000  24.4060000   3.7880000  46.0140000  22.4990000
   5.5110000  43.8190000  24.8410000   6.5220000  43.2080000  23.1660000
   6.8540000  44.8270000  10.0520000   5.7960000  43.1510000  10.6520000
   4.8500000  44.3570000  10.2650000   4.5360000  44.6400000  25.2930000
   3.1730000  45.9670000  24.7210000   5.9550000  43.2450000  25.4240000
   7.0740000  44.3170000   8.5970000   6.7160000  45.7830000   9.9700000
   7.6900000  44.6660000  10.5180000   4.3300000  44.6640000  26.2000000
   8.2750000  44.9060000   7.9090000   6.2520000  44.5100000   8.1180000
   7.1820000  43.3570000   8.6770000   8.4550000  44.3700000   6.4620000
   8.1580000  45.8640000   7.8160000   9.0930000  44.7270000   8.3990000
   9.6870000  44.8990000   5.7520000   7.6320000  44.5510000   5.9820000
   8.5610000  43.4110000   6.5660000   9.8080000  44.3250000   4.3260000
   9.5660000  45.8560000   5.6470000  10.5000000  44.7300000   6.2540000
   8.9900000  44.4910000   3.8330000   9.9330000  43.3700000   4.4370000
  10.9640000  44.9280000   3.5740000  11.1170000  44.3310000   2.1590000
  10.8800000  45.8910000   3.4890000  11.8030000  44.7170000   4.0110000
  10.3020000  44.5880000   1.6990000  12.2960000  44.8500000   1.4010000
  11.1500000  43.3650000   2.2410000  12.2590000  45.8100000   1.3300000
  12.3020000  44.4670000   0.5220000  13.0970000  44.5990000   1.8670000
  11.3920000  10.5200000  35.5360000  10.2280000   9.9400000  36.6810000
  10.3340000  10.0050000  34.2380000  10.2150000   9.9440000  38.1440000
   9.0950000   9.4720000  36.1250000  10.6550000  10.0770000  32.8650000
   9.1280000   9.5000000  34.6760000  11.1780000  10.3650000  39.0720000
   9.0460000   9.3740000  38.5850000   7.9470000   8.8710000  37.2850000
   9.7080000   9.6720000  31.9350000  11.4730000  10.4240000  32.5920000
   8.1910000   9.0400000  33.7250000  10.8990000  10.1700000  40.4290000
  11.9790000  10.7340000  38.7770000   8.7810000   9.1090000  39.9480000
   8.4970000   9.1180000  32.3640000  10.0300000   9.6800000  30.4710000
   7.3930000   8.6560000  34.0110000   9.7290000   9.5150000  40.8600000
  11.4870000  10.5360000  41.0500000   8.0030000   8.6680000  40.2010000
   7.8720000   8.8350000  31.7350000  11.0200000  10.5100000  29.9770000
   9.4020000   8.8500000  29.5750000   9.5500000   9.2080000  42.3520000
  11.3680000  10.5300000  28.6380000  11.4480000  11.1080000  30.5460000
   9.7250000   8.9130000  28.2030000   8.7140000   8.3020000  29.8790000
   8.3820000   9.9210000  42.9920000   9.4400000   8.2450000  42.3920000
  10.3860000   9.4520000  42.7800000  10.7000000   9.7350000  27.7510000
  12.0630000  11.0610000  28.3240000   9.2810000   8.3400000  27.6200000
   8.1630000   9.4110000  44.4480000   8.5200000  10.8780000  43.0750000
   7.5460000   9.7610000  42.5260000  10.9060000   9.7580000  26.8450000
   6.9610000  10.0000000  45.1360000   8.9840000   9.6040000  44.9270000
   8.0540000   8.4510000  44.3670000   6.7810000   9.4640000  46.5830000
   7.0780000  10.9590000  45.2280000   6.1430000   9.8220000  44.6450000
   5.5490000   9.9940000  47.2920000   7.6040000   9.6460000  47.0620000
   6.6750000   8.5060000  46.4790000   5.4280000   9.4200000  48.7180000
   5.6700000  10.9500000  47.3980000   4.7360000   9.8240000  46.7910000
   6.2460000   9.5850000  49.2120000   5.3030000   8.4650000  48.6070000
   4.2720000  10.0230000  49.4700000   4.1190000   9.4250000  50.8850000
   4.3560000  10.9860000  49.5550000   3.4330000   9.8120000  49.0330000
   4.9340000   9.6830000  51.3450000   2.9400000   9.9440000  51.6430000
   4.0860000   8.4590000  50.8030000   2.9770000  10.9040000  51.7140000
   2.9340000   9.5620000  52.5220000   2.1390000   9.6940000  51.1770000
   8.4870000  10.5200000  88.5810000   7.3230000   9.9400000  89.7250000
   7.4290000  10.0050000  87.2820000   7.3100000   9.9440000  91.1890000
   6.1900000   9.4720000  89.1700000   7.7490000  10.0770000  85.9100000
   6.2230000   9.5000000  87.7200000   8.2730000  10.3650000  92.1160000
   6.1410000   9.3740000  91.6300000   5.0420000   8.8710000  90.3290000
   6.8030000   9.6720000  84.9800000   8.5670000  10.4240000  85.6360000
   5.2860000   9.0400000  86.7690000   7.9930000  10.1700000  93.4740000
   9.0740000  10.7340000  91.8220000   5.8760000   9.1090000  92.9930000
   5.5910000   9.1180000  85.4090000   7.1250000   9.6800000  83.5150000
   4.4880000   8.6560000  87.0560000   6.8230000   9.5150000  93.9050000
   8.5820000  10.5360000  94.0950000   5.0970000   8.6680000  93.2460000
   4.9670000   8.8350000  84.7800000   8.1150000  10.5100000  83.0220000
   6.4970000   8.8500000  82.6190000   6.6440000   9.2080000  95.3960000
   8.4630000  10.5300000  81.6830000   8.5420000  11.1080000  83.5900000
   6.8190000   8.9130000  81.2480000   5.8090000   8.3020000  82.9230000
   5.4770000   9.9210000  96.0370000   6.5350000   8.2450000  95.4370000
   7.4800000   9.4520000  95.8240000   7.7950000   9.7350000  80.7960000
   9.1580000  11.0610000  81.3680000   6.3760000   8.3400000  80.6650000
   5.2570000   9.4110000  97.4920000   5.6150000  10.8780000  96.1190000
   4.6410000   9.7610000  95.5710000   8.0000000   9.7580000  79.8890000
   4.0550000  10.0000000  98.1800000   6.0780000   9.6040000  97.9710000
   5.1490000   8.4510000  97.4120000   3.8750000   9.4640000  99.6270000
   4.1730000  10.9590000  98.2730000   3.2380000   9.8220000  97.6900000
   2.6430000   9.9940000 100.3370000   4.6980000   9.6460000 100.1070000
   3.7700000   8.5060000  99.5230000   2.5220000   9.4200000 101.7630000
   2.7650000  10.9500000 100.4420000   1.8310000   9.8240000  99.8350000
   3.3410000   9.5850000 102.2560000   2.3980000   8.4650000 101.6520000
   1.3670000  10.0230000 102.5150000   1.2130000   9.4250000 103.9300000
   1.4510000  10.9860000 102.6000000   0.5280000   9.8120000 102.0780000
   2.0280000   9.6830000 104.3900000   0.0350000   9.9440000 104.6880000
   1.1810000   8.4590000 103.8480000   0.0720000  10.9040000 104.7590000
   0.0280000   9.5620000 105.5670000  -0.7670000   9.6940000 104.2220000
  11.3920000  18.2770000  35.5360000  10.2280000  17.6960000  36.6810000
  10.3340000  17.7620000  34.2380000  10.2150000  17.7010000  38.1440000
   9.0950000  17.2290000  36.1250000  10.6550000  17.8340000  32.8650000
   9.1280000  17.2570000  34.6760000  11.1780000  18.1210000  39.0720000
   9.0460000  17.1310000  38.5850000   7.9470000  16.6270000  37.2850000
   9.7080000  17.4290000  31.9350000  11.4730000  18.1810000  32.5920000
   8.1910000  16.7970000  33.7250000  10.8990000  17.9270000  40.4290000
  11.9790000  18.4910000  38.7770000   8.7810000  16.8660000  39.9480000
   8.4970000  16.8750000  32.3640000  10.0300000  17.4370000  30.4710000
   7.3930000  16.4130000  34.0110000   9.7290000  17.2720000  40.8600000
  11.4870000  18.2920000  41.0500000   8.0030000  16.4240000  40.2010000
   7.8720000  16.5920000  31.7350000  11.0200000  18.2660000  29.9770000
   9.4020000  16.6070000  29.5750000   9.5500000  16.9650000  42.3520000
  11.3680000  18.2870000  28.6380000  11.4480000  18.8650000  30.5460000
   9.7250000  16.6700000  28.2030000   8.7140000  16.0590000  29.8790000
   8.3820000  17.6780000  42.9920000   9.4400000  16.0020000  42.3920000
  10.3860000  17.2080000  42.7800000  10.7000000  17.4920000  27.7510000
  12.0630000  18.8180000  28.3240000   9.2810000  16.0970000  27.6200000
   8.1630000  17.1680000  44.4480000   8.5200000  18.6350000  43.0750000
   7.5460000  17.5180000  42.5260000  10.9060000  17.5150000  26.8450000
   6.9610000  17.7570000  45.1360000   8.9840000  17.3610000  44.9270000
   8.0540000  16.2080000  44.3670000   6.7810000  17.2210000  46.5830000
   7.0780000  18.7160000  45.2280000   6.1430000  17.5780000  44.6450000
   5.5490000  17.7510000  47.2920000   7.6040000  17.4030000  47.0620000
   6.6750000  16.2620000  46.4790000   5.4280000  17.1770000  48.7180000
   5.6700000  18.7070000  47.3980000   4.7360000  17.5810000  46.7910000
   6.2460000  17.3420000  49.2120000   5.3030000  16.2210000  48.6070000
   4.2720000  17.7790000  49.4700000   4.1190000  17.1820000  50.8850000
   4.3560000  18.7420000  49.5550000   3.4330000  17.5690000  49.0330000
   4.9340000  17.4400000  51.3450000   2.9400000  17.7010000  51.6430000
   4.0860000  16.2160000  50.8030000   2.9770000  18.6610000  51.7140000
   2.9340000  17.3190000  52.5220000   2.1390000  17.4500000  51.1770000
   8.4870000  18.2770000  88.5810000   7.3230000  17.6960000  89.7250000
   7.4290000  17.7620000  87.2820000   7.3100000  17.7010000  91.1890000
   6.1900000  17.2290000  89.1700000   7.7490000  17.8340000  85.9100000
   6.2230000  17.2570000  87.7200000   8.2730000  18.1210000  92.1160000
   6.1410000  17.1310000  91.6300000   5.0420000  16.6270000  90.3290000
   6.8030000  17.4290000  84.9800000   8.5670000  18.1810000  85.6360000
   5.2860000  16.7970000  86.7690000   7.9930000  17.9270000  93.4740000
   9.0740000  18.4910000  91.8220000   5.8760000  16.8660000  92.9930000
   5.5910000  16.8750000  85.4090000   7.1250000  17.4370000  83.5150000
   4.4880000  16.4130000  87.0560000   6.8230000  17.2720000  93.9050000
   8.5820000  18.2920000  94.0950000   5.0970000  16.4240000  93.2460000
   4.9670000  16.5920000  84.7800000   8.1150000  18.2660000  83.0220000
   6.4970000  16.6070000  82.6190000   6.6440000  16.9650000  95.3960000
   8.4630000  18.2870000  81.6830000   8.5420000  18.8650000  83.5900000
   6.8190000  16.6700000  81.2480000   5.8090000  16.0590000  82.9230000
   5.4770000  17.6780000  96.0370000   6.5350000  16.0020000  95.4370000
   7.4800000  17.2080000  95.8240000   7.7950000  17.4920000  80.7960000
   9.1580000  18.8180000  81.3680000   6.3760000  16.0970000  80.6650000
   5.2570000  17.1680000  97.4920000   5.6150000  18.6350000  96.1190000
   4.6410000  17.5180000  95.5710000   8.0000000  17.5150000  79.8890000
   4.0550000  17.7570000  98.1800000   6.0780000  17.3610000  97.9710000
   5.1490000  16.2080000  97.4120000   3.8750000  17.2210000  99.6270000
   4.1730000  18.7160000  98.2730000   3.2380000  17.5780000  97.6900000
   2.6430000  17.7510000 100.3370000   4.6980000  17.4030000 100.1070000
   3.7700000  16.2620000  99.5230000   2.5220000  17.1770000 101.7630000
   2.7650000  18.7070000 100.4420000   1.8310000  17.5810000  99.8350000
   3.3410000  17.3420000 102.2560000   2.3980000  16.2210000 101.6520000
   1.3670000  17.7790000 102.5150000   1.2130000  17.1820000 103.9300000
   1.4510000  18.7420000 102.6000000   0.5280000  17.5690000 102.0780000
   2.0280000  17.4400000 104.3900000   0.0350000  17.7010000 104.6880000
   1.1810000  16.2160000 103.8480000   0.0720000  18.6610000 104.7590000
   0.0280000  17.3190000 105.5670000  -0.7670000  17.4500000 104.2220000
  11.3920000  26.0330000  35.5360000  10.2280000  25.4530000  36.6810000
  10.3340000  25.5190000  34.2380000  10.2150000  25.4580000  38.1440000
   9.0950000  24.9850000  36.1250000  10.6550000  25.5900000  32.8650000
   9.1280000  25.0130000  34.6760000  11.1780000  25.8780000  39.0720000
   9.0460000  24.8880000  38.5850000   7.9470000  24.3840000  37.2850000
   9.7080000  25.1860000  31.9350000  11.4730000  25.9380000  32.5920000
   8.1910000  24.5530000  33.7250000  10.8990000  25.6840000  40.4290000
  11.9790000  26.2480000  38.7770000   8.7810000  24.6220000  39.9480000
   8.4970000  24.6320000  32.3640000  10.0300000  25.1930000  30.4710000
   7.3930000  24.1700000  34.0110000   9.7290000  25.0290000  40.8600000
  11.4870000  26.0490000  41.0500000   8.0030000  24.1810000  40.2010000
   7.8720000  24.3490000  31.7350000  11.0200000  26.0230000  29.9770000
   9.4020000  24.3630000  29.5750000   9.5500000  24.7220000  42.3520000
  11.3680000  26.0430000  28.6380000  11.4480000  26.6220000  30.5460000
   9.7250000  24.4270000  28.2030000   8.7140000  23.8160000  29.8790000
   8.3820000  25.4350000  42.9920000   9.4400000  23.7590000  42.3920000
  10.3860000  24.9650000  42.7800000  10.7000000  25.2480000  27.7510000
  12.0630000  26.5750000  28.3240000   9.2810000  23.8530000  27.6200000
   8.1630000  24.9250000  44.4480000   8.5200000  26.3910000  43.0750000
   7.5460000  25.2740000  42.5260000  10.9060000  25.2720000  26.8450000
   6.9610000  25.5140000  45.1360000   8.9840000  25.1180000  44.9270000
   8.0540000  23.9650000  44.3670000   6.7810000  24.9780000  46.5830000
   7.0780000  26.4720000  45.2280000   6.1430000  25.3350000  44.6450000
   5.5490000  25.5070000  47.2920000   7.6040000  25.1590000  47.0620000
   6.6750000  24.0190000  46.4790000   5.4280000  24.9330000  48.7180000
   5.6700000  26.4640000  47.3980000   4.7360000  25.3380000  46.7910000
   6.2460000  25.0990000  49.2120000   5.3030000  23.9780000  48.6070000
   4.2720000  25.5360000  49.4700000   4.1190000  24.9390000  50.8850000
   4.3560000  26.4990000  49.5550000   3.4330000  25.3250000  49.0330000
   4.9340000  25.1960000  51.3450000   2.9400000  25.4580000  51.6430000
   4.0860000  23.9730000  50.8030000   2.9770000  26.4180000  51.7140000
   2.9340000  25.0750000  52.5220000   2.1390000  25.2070000  51.1770000
   8.4870000  26.0330000  88.5810000   7.3230000  25.4530000  89.7250000
   7.4290000  25.5190000  87.2820000   7.3100000  25.4580000  91.1890000
   6.1900000  24.9850000  89.1700000   7.7490000  25.5900000  85.9100000
   6.2230000  25.0130000  87.7200000   8.2730000  25.8780000  92.1160000
   6.1410000  24.8880000  91.6300000   5.0420000  24.3840000  90.3290000
   6.8030000  25.1860000  84.9800000   8.5670000  25.9380000  85.6360000
   5.2860000  24.5530000  86.7690000   7.9930000  25.6840000  93.4740000
   9.0740000  26.2480000  91.8220000   5.8760000  24.6220000  92.9930000
   5.5910000  24.6320000  85.4090000   7.1250000  25.1930000  83.5150000
   4.4880000  24.1700000  87.0560000   6.8230000  25.0290000  93.9050000
   8.5820000  26.0490000  94.0950000   5.0970000  24.1810000  93.2460000
   4.9670000  24.3490000  84.7800000   8.1150000  26.0230000  83.0220000
   6.4970000  24.3630000  82.6190000   6.6440000  24.7220000  95.3960000
   8.4630000  26.0430000  81.6830000   8.5420000  26.6220000  83.5900000
   6.8190000  24.4270000  81.2480000   5.8090000  23.8160000  82.9230000
   5.4770000  25.4350000  96.0370000   6.5350000  23.7590000  95.4370000
   7.4800000  24.9650000  95.8240000   7.7950000  25.2480000  80.7960000
   9.1580000  26.5750000  81.3680000   6.3760000  23.8530000  80.6650000
   5.2570000  24.9250000  97.4920000   5.6150000  26.3910000  96.1190000
   4.6410000  25.2740000  95.5710000   8.0000000  25.2720000  79.8890000
   4.0550000  25.5140000  98.1800000   6.0780000  25.1180000  97.9710000
   5.1490000  23.9650000  97.4120000   3.8750000  24.9780000  99.6270000
   4.1730000  26.4720000  98.2730000   3.2380000  25.3350000  97.6900000
   2.6430000  25.5070000 100.3370000   4.6980000  25.1590000 100.1070000
   3.7700000  24.0190000  99.5230000   2.5220000  24.9330000 101.7630000
   2.7650000  26.4640000 100.4420000   1.8310000  25.3380000  99.8350000
   3.3410000  25.0990000 102.2560000   2.3980000  23.9780000 101.6520000
   1.3670000  25.5360000 102.5150000   1.2130000  24.9390000 103.9300000
   1.4510000  26.4990000 102.6000000   0.5280000  25.3250000 102.0780000
   2.0280000  25.1960000 104.3900000   0.0350000  25.4580000 104.6880000
   1.1810000  23.9730000 103.8480000   0.0720000  26.4180000 104.7590000
   0.0280000  25.0750000 105.5670000  -0.7670000  25.2070000 104.2220000
  11.3920000  33.7900000  35.5360000  10.2280000  33.2100000  36.6810000
  10.3340000  33.2760000  34.2380000  10.2150000  33.2150000  38.1440000
   9.0950000  32.7420000  36.1250000  10.6550000  33.3470000  32.8650000
   9.1280000  32.7700000  34.6760000  11.1780000  33.6350000  39.0720000
   9.0460000  32.6440000  38.5850000   7.9470000  32.1410000  37.2850000
   9.7080000  32.9420000  31.9350000  11.4730000  33.6950000  32.5920000
   8.1910000  32.3100000  33.7250000  10.8990000  33.4400000  40.4290000
  11.9790000  34.0040000  38.7770000   8.7810000  32.3790000  39.9480000
   8.4970000  32.3890000  32.3640000  10.0300000  32.9500000  30.4710000
   7.3930000  31.9270000  34.0110000   9.7290000  32.7860000  40.8600000
  11.4870000  33.8060000  41.0500000   8.0030000  31.9380000  40.2010000
   7.8720000  32.1050000  31.7350000  11.0200000  33.7800000  29.9770000
   9.4020000  32.1200000  29.5750000   9.5500000  32.4780000  42.3520000
  11.3680000  33.8000000  28.6380000  11.4480000  34.3790000  30.5460000
   9.7250000  32.1840000  28.2030000   8.7140000  31.5720000  29.8790000
   8.3820000  33.1910000  42.9920000   9.4400000  31.5150000  42.3920000
  10.3860000  32.7220000  42.7800000  10.7000000  33.0050000  27.7510000
  12.0630000  34.3320000  28.3240000   9.2810000  31.6100000  27.6200000
   8.1630000  32.6820000  44.4480000   8.5200000  34.1480000  43.0750000
   7.5460000  33.0310000  42.5260000  10.9060000  33.0290000  26.8450000
   6.9610000  33.2700000  45.1360000   8.9840000  32.8740000  44.9270000
   8.0540000  31.7210000  44.3670000   6.7810000  32.7340000  46.5830000
   7.0780000  34.2290000  45.2280000   6.1430000  33.0920000  44.6450000
   5.5490000  33.2640000  47.2920000   7.6040000  32.9160000  47.0620000
   6.6750000  31.7760000  46.4790000   5.4280000  32.6900000  48.7180000
   5.6700000  34.2210000  47.3980000   4.7360000  33.0950000  46.7910000
   6.2460000  32.8550000  49.2120000   5.3030000  31.7350000  48.6070000
   4.2720000  33.2930000  49.4700000   4.1190000  32.6960000  50.8850000
   4.3560000  34.2560000  49.5550000   3.4330000  33.0820000  49.0330000
   4.9340000  32.9530000  51.3450000   2.9400000  33.2150000  51.6430000
   4.0860000  31.7300000  50.8030000   2.9770000  34.1750000  51.7140000
   2.9340000  32.8320000  52.5220000   2.1390000  32.9640000  51.1770000
   8.4870000  33.7900000  88.5810000   7.3230000  33.2100000  89.7250000
   7.4290000  33.2760000  87.2820000   7.3100000  33.2150000  91.1890000
   6.1900000  32.7420000  89.1700000   7.7490000  33.3470000  85.9100000
   6.2230000  32.7700000  87.7200000   8.2730000  33.6350000  92.1160000
   6.1410000  32.6440000  91.6300000   5.0420000  32.1410000  90.3290000
   6.8030000  32.9420000  84.9800000   8.5670000  33.6950000  85.6360000
   5.2860000  32.3100000  86.7690000   7.9930000  33.4400000  93.4740000
   9.0740000  34.0040000  91.8220000   5.8760000  32.3790000  92.9930000
   5.5910000  32.3890000  85.4090000   7.1250000  32.9500000  83.5150000
   4.4880000  31.9270000  87.0560000   6.8230000  32.7860000  93.9050000
   8.5820000  33.8060000  94.0950000   5.0970000  31.9380000  93.2460000
   4.9670000  32.1050000  84.7800000   8.1150000  33.7800000  83.0220000
   6.4970000  32.1200000  82.6190000   6.6440000  32.4780000  95.3960000
   8.4630000  33.8000000  81.6830000   8.5420000  34.3790000  83.5900000
   6.8190000  32.1840000  81.2480000   5.8090000  31.5720000  82.9230000
   5.4770000  33.1910000  96.0370000   6.5350000  31.5150000  95.4370000
   7.4800000  32.7220000  95.8240000   7.7950000  33.0050000  80.7960000
   9.1580000  34.3320000  81.3680000   6.3760000  31.6100000  80.6650000
   5.2570000  32.6820000  97.4920000   5.6150000  34.1480000  96.1190000
   4.6410000  33.0310000  95.5710000   8.0000000  33.0290000  79.8890000
   4.0550000  33.2700000  98.1800000   6.0780000  32.8740000  97.9710000
   5.1490000  31.7210000  97.4120000   3.8750000  32.7340000  99.6270000
   4.1730000  34.2290000  98.2730000   3.2380000  33.0920000  97.6900000
   2.6430000  33.2640000 100.3370000   4.6980000  32.9160000 100.1070000
   3.7700000  31.7760000  99.5230000   2.5220000  32.6900000 101.7630000
   2.7650000  34.2210000 100.4420000   1.8310000  33.0950000  99.8350000
   3.3410000  32.8550000 102.2560000   2.3980000  31.7350000 101.6520000
   1.3670000  33.2930000 102.5150000   1.2130000  32.6960000 103.9300000
   1.4510000  34.2560000 102.6000000   0.5280000  33.0820000 102.0780000
   2.0280000  32.9530000 104.3900000   0.0350000  33.2150000 104.6880000
   1.1810000  31.7300000 103.8480000   0.0720000  34.1750000 104.7590000
   0.0280000  32.8320000 105.5670000  -0.7670000  32.9640000 104.2220000
  11.3920000  41.5470000  35.5360000  10.2280000  40.9670000  36.6810000
  10.3340000  41.0330000  34.2380000  10.2150000  40.9710000  38.1440000
   9.0950000  40.4990000  36.1250000  10.6550000  41.1040000  32.8650000
   9.1280000  40.5270000  34.6760000  11.1780000  41.3920000  39.0720000
   9.0460000  40.4010000  38.5850000   7.9470000  39.8980000  37.2850000
   9.7080000  40.6990000  31.9350000  11.4730000  41.4510000  32.5920000
   8.1910000  40.0670000  33.7250000  10.8990000  41.1970000  40.4290000
  11.9790000  41.7610000  38.7770000   8.7810000  40.1360000  39.9480000
   8.4970000  40.1450000  32.3640000  10.0300000  40.7070000  30.4710000
   7.3930000  39.6830000  34.0110000   9.7290000  40.5420000  40.8600000
  11.4870000  41.5630000  41.0500000   8.0030000  39.6950000  40.2010000
   7.8720000  39.8620000  31.7350000  11.0200000  41.5370000  29.9770000
   9.4020000  39.8770000  29.5750000   9.5500000  40.2350000  42.3520000
  11.3680000  41.5570000  28.6380000  11.4480000  42.1360000  30.5460000
   9.7250000  39.9410000  28.2030000   8.7140000  39.3290000  29.8790000
   8.3820000  40.9480000  42.9920000   9.4400000  39.2720000  42.3920000
  10.3860000  40.4790000  42.7800000  10.7000000  40.7620000  27.7510000
  12.0630000  42.0890000  28.3240000   9.2810000  39.3670000  27.6200000
   8.1630000  40.4390000  44.4480000   8.5200000  41.9050000  43.0750000
   7.5460000  40.7880000  42.5260000  10.9060000  40.7850000  26.8450000
   6.9610000  41.0270000  45.1360000   8.9840000  40.6310000  44.9270000
   8.0540000  39.4780000  44.3670000   6.7810000  40.4910000  46.5830000
   7.0780000  41.9860000  45.2280000   6.1430000  40.8490000  44.6450000
   5.5490000  41.0210000  47.2920000   7.6040000  40.6730000  47.0620000
   6.6750000  39.5330000  46.4790000   5.4280000  40.4470000  48.7180000
   5.6700000  41.9780000  47.3980000   4.7360000  40.8510000  46.7910000
   6.2460000  40.6120000  49.2120000   5.3030000  39.4920000  48.6070000
   4.2720000  41.0500000  49.4700000   4.1190000  40.4520000  50.8850000
   4.3560000  42.0130000  49.5550000   3.4330000  40.8390000  49.0330000
   4.9340000  40.7100000  51.3450000   2.9400000  40.9710000  51.6430000
   4.0860000  39.4870000  50.8030000   2.9770000  41.9310000  51.7140000
   2.9340000  40.5890000  52.5220000   2.1390000  40.7210000  51.1770000
   8.4870000  41.5470000  88.5810000   7.3230000  40.9670000  89.7250000
   7.4290000  41.0330000  87.2820000   7.3100000  40.9710000  91.1890000
   6.1900000  40.4990000  89.1700000   7.7490000  41.1040000  85.9100000
   6.2230000  40.5270000  87.7200000   8.2730000  41.3920000  92.1160000
   6.1410000  40.4010000  91.6300000   5.0420000  39.8980000  90.3290000
   6.8030000  40.6990000  84.9800000   8.5670000  41.4510000  85.6360000
   5.2860000  40.0670000  86.7690000   7.9930000  41.1970000  93.4740000
   9.0740000  41.7610000  91.8220000   5.8760000  40.1360000  92.9930000
   5.5910000  40.1450000  85.4090000   7.1250000  40.7070000  83.5150000
   4.4880000  39.6830000  87.0560000   6.8230000  40.5420000  93.9050000
   8.5820000  41.5630000  94.0950000   5.0970000  39.6950000  93.2460000
   4.9670000  39.8620000  84.7800000   8.1150000  41.5370000  83.0220000
   6.4970000  39.8770000  82.6190000   6.6440000  40.2350000  95.3960000
   8.4630000  41.5570000  81.6830000   8.5420000  42.1360000  83.5900000
   6.8190000  39.9410000  81.2480000   5.8090000  39.3290000  82.9230000
   5.4770000  40.9480000  96.0370000   6.5350000  39.2720000  95.4370000
   7.4800000  40.4790000  95.8240000   7.7950000  40.7620000  80.7960000
   9.1580000  42.0890000  81.3680000   6.3760000  39.3670000  80.6650000
   5.2570000  40.4390000  97.4920000   5.6150000  41.9050000  96.1190000
   4.6410000  40.7880000  95.5710000   8.0000000  40.7850000  79.8890000
   4.0550000  41.0270000  98.1800000   6.0780000  40.6310000  97.9710000
   5.1490000  39.4780000  97.4120000   3.8750000  40.4910000  99.6270000
   4.1730000  41.9860000  98.2730000   3.2380000  40.8490000  97.6900000
   2.6430000  41.0210000 100.3370000   4.6980000  40.6730000 100.1070000
   3.7700000  39.5330000  99.5230000   2.5220000  40.4470000 101.7630000
   2.7650000  41.9780000 100.4420000   1.8310000  40.8510000  99.8350000
   3.3410000  40.6120000 102.2560000   2.3980000  39.4920000 101.6520000
   1.3670000  41.0500000 102.5150000   1.2130000  40.4520000 103.9300000
   1.4510000  42.0130000 102.6000000   0.5280000  40.8390000 102.0780000
   2.0280000  40.7100000 104.3900000   0.0350000  40.9710000 104.6880000
   1.1810000  39.4870000 103.8480000   0.0720000  41.9310000 104.7590000
   0.0280000  40.5890000 105.5670000  -0.7670000  40.7210000 104.2220000
  11.3920000   2.7630000  35.5360000  10.2280000   2.1830000  36.6810000
  10.3340000   2.2490000  34.2380000  10.2150000   2.1870000  38.1440000
   9.0950000   1.7150000  36.1250000  10.6550000   2.3200000  32.8650000
   9.1280000   1.7430000  34.6760000  11.1780000   2.6080000  39.0720000
   9.0460000   1.6170000  38.5850000   7.9470000   1.1140000  37.2850000
   9.7080000   1.9150000  31.9350000  11.4730000   2.6670000  32.5920000
   8.1910000   1.2830000  33.7250000  10.8990000   2.4130000  40.4290000
  11.9790000   2.9770000  38.7770000   8.7810000   1.3520000  39.9480000
   8.4970000   1.3610000  32.3640000  10.0300000   1.9230000  30.4710000
   7.3930000   0.8990000  34.0110000   9.7290000   1.7580000  40.8600000
  11.4870000   2.7790000  41.0500000   8.0030000   0.9110000  40.2010000
   7.8720000   1.0780000  31.7350000  11.0200000   2.7530000  29.9770000
   9.4020000   1.0930000  29.5750000   9.5500000   1.4510000  42.3520000
  11.3680000   2.7730000  28.6380000  11.4480000   3.3520000  30.5460000
   9.7250000   1.1570000  28.2030000   8.7140000   0.5450000  29.8790000
   8.3820000   2.1640000  42.9920000   9.4400000   0.4880000  42.3920000
  10.3860000   1.6950000  42.7800000  10.7000000   1.9780000  27.7510000
  12.0630000   3.3050000  28.3240000   9.2810000   0.5830000  27.6200000
   8.1630000   1.6550000  44.4480000   8.5200000   3.1210000  43.0750000
   7.5460000   2.0040000  42.5260000  10.9060000   2.0010000  26.8450000
   6.9610000   2.2430000  45.1360000   8.9840000   1.8470000  44.9270000
   8.0540000   0.6940000  44.3670000   6.7810000   1.7070000  46.5830000
   7.0780000   3.2020000  45.2280000   6.1430000   2.0650000  44.6450000
   5.5490000   2.2370000  47.2920000   7.6040000   1.8890000  47.0620000
   6.6750000   0.7490000  46.4790000   5.4280000   1.6630000  48.7180000
   5.6700000   3.1940000  47.3980000   4.7360000   2.0670000  46.7910000
   6.2460000   1.8280000  49.2120000   5.3030000   0.7080000  48.6070000
   4.2720000   2.2660000  49.4700000   4.1190000   1.6680000  50.8850000
   4.3560000   3.2290000  49.5550000   3.4330000   2.0550000  49.0330000
   4.9340000   1.9260000  51.3450000   2.9400000   2.1870000  51.6430000
   4.0860000   0.7030000  50.8030000   2.9770000   3.1470000  51.7140000
   2.9340000   1.8050000  52.5220000   2.1390000   1.9370000  51.1770000
   8.4870000   2.7630000  88.5810000   7.3230000   2.1830000  89.7250000
   7.4290000   2.2490000  87.2820000   7.3100000   2.1870000  91.1890000
   6.1900000   1.7150000  89.1700000   7.7490000   2.3200000  85.9100000
   6.2230000   1.7430000  87.7200000   8.2730000   2.6080000  92.1160000
   6.1410000   1.6170000  91.6300000   5.0420000   1.1140000  90.3290000
   6.8030000   1.9150000  84.9800000   8.5670000   2.6670000  85.6360000
   5.2860000   1.2830000  86.7690000   7.9930000   2.4130000  93.4740000
   9.0740000   2.9770000  91.8220000   5.8760000   1.3520000  92.9930000
   5.5910000   1.3610000  85.4090000   7.1250000   1.9230000  83.5150000
   4.4880000   0.8990000  87.0560000   6.8230000   1.7580000  93.9050000
   8.5820000   2.7790000  94.0950000   5.0970000   0.9110000  93.2460000
   4.9670000   1.0780000  84.7800000   8.1150000   2.7530000  83.0220000
   6.4970000   1.0930000  82.6190000   6.6440000   1.4510000  95.3960000
   8.4630000   2.7730000  81.6830000   8.5420000   3.3520000  83.5900000
   6.8190000   1.1570000  81.2480000   5.8090000   0.5450000  82.9230000
   5.4770000   2.1640000  96.0370000   6.5350000   0.4880000  95.4370000
   7.4800000   1.6950000  95.8240000   7.7950000   1.9780000  80.7960000
   9.1580000   3.3050000  81.3680000   6.3760000   0.5830000  80.6650000
   5.2570000   1.6550000  97.4920000   5.6150000   3.1210000  96.1190000
   4.6410000   2.0040000  95.5710000   8.0000000   2.0010000  79.8890000
   4.0550000   2.2430000  98.1800000   6.0780000   1.8470000  97.9710000
   5.1490000   0.6940000  97.4120000   3.8750000   1.7070000  99.6270000
   4.1730000   3.2020000  98.2730000   3.2380000   2.0650000  97.6900000
   2.6430000   2.2370000 100.3370000   4.6980000   1.8890000 100.1070000
   3.7700000   0.7490000  99.5230000   2.5220000   1.6630000 101.7630000
   2.7650000   3.1940000 100.4420000   1.8310000   2.0670000  99.8350000
   3.3410000   1.8280000 102.2560000   2.3980000   0.7080000 101.6520000
   1.3670000   2.2660000 102.5150000   1.2130000   1.6680000 103.9300000
   1.4510000   3.2290000 102.6000000   0.5280000   2.0550000 102.0780000
   2.0280000   1.9260000 104.3900000   0.0350000   2.1870000 104.6880000
   1.1810000   0.7030000 103.8480000   0.0720000   3.1470000 104.7590000
   0.0280000   1.8050000 105.5670000  -0.7670000   1.9370000 104.2220000
   6.8670000   8.8720000  17.5080000   8.0320000   9.4520000  16.3640000
   7.9260000   9.3870000  18.8070000   8.0440000   9.4480000  14.9000000
   9.1640000   9.9200000  16.9190000   7.6050000   9.3150000  20.1790000
   9.1310000   9.8920000  18.3690000   7.0810000   9.0270000  13.9730000
   9.2140000  10.0180000  14.4590000  10.3130000  10.5210000  15.7600000
   8.5510000   9.7200000  21.1090000   6.7870000   8.9680000  20.4530000
  10.0690000  10.3520000  19.3200000   7.3610000   9.2220000  12.6150000
   6.2800000   8.6580000  14.2670000   9.4790000  10.2830000  13.0960000
   9.7630000  10.2740000  20.6800000   8.2300000   9.7120000  22.5740000
  10.8660000  10.7360000  19.0330000   8.5310000   9.8770000  12.1840000
   6.7730000   8.8560000  11.9940000  10.2570000  10.7240000  12.8430000
  10.3880000  10.5570000  21.3090000   7.2390000   8.8820000  23.0670000
   8.8570000  10.5420000  23.4700000   8.7100000  10.1840000  10.6930000
   6.8920000   8.8620000  24.4060000   6.8120000   8.2840000  22.4990000
   8.5350000  10.4790000  24.8410000   9.5450000  11.0900000  23.1660000
   9.8780000   9.4710000  10.0520000   8.8190000  11.1470000  10.6520000
   7.8740000   9.9400000  10.2650000   7.5600000   9.6570000  25.2930000
   6.1960000   8.3310000  24.7210000   8.9780000  11.0520000  25.4240000
  10.0970000   9.9810000   8.5970000   9.7390000   8.5140000   9.9700000
  10.7130000   9.6310000  10.5180000   7.3540000   9.6340000  26.2000000
  11.2990000   9.3920000   7.9090000   9.2760000   9.7880000   8.1180000
  10.2060000  10.9410000   8.6770000  11.4790000   9.9280000   6.4620000
  11.1820000   8.4330000   7.8160000  12.1170000   9.5700000   8.3990000
  12.7110000   9.3980000   5.7520000  10.6560000   9.7460000   5.9820000
  11.5840000  10.8860000   6.5660000  12.8320000   9.9720000   4.3260000
  12.5890000   8.4420000   5.6470000  13.5240000   9.5680000   6.2540000
  12.0130000   9.8070000   3.8330000  12.9560000  10.9270000   4.4370000
  13.9870000   9.3690000   3.5740000  14.1410000   9.9670000   2.1590000
  13.9040000   8.4060000   3.4890000  14.8270000   9.5800000   4.0110000
  13.3260000   9.7090000   1.6990000  15.3190000   9.4480000   1.4010000
  14.1730000  10.9330000   2.2410000  15.2820000   8.4880000   1.3300000
  15.3260000   9.8300000   0.5220000  16.1210000   9.6980000   1.8670000
   3.9620000   8.8720000  70.5530000   5.1260000   9.4520000  69.4080000
   5.0200000   9.3870000  71.8510000   5.1390000   9.4480000  67.9450000
   6.2590000   9.9200000  69.9640000   4.7000000   9.3150000  73.2240000
   6.2260000   9.8920000  71.4130000   4.1760000   9.0270000  67.0170000
   6.3080000  10.0180000  67.5040000   7.4070000  10.5210000  68.8040000
   5.6460000   9.7200000  74.1540000   3.8820000   8.9680000  73.4970000
   7.1630000  10.3520000  72.3640000   4.4550000   9.2220000  65.6600000
   3.3750000   8.6580000  67.3120000   6.5730000  10.2830000  66.1410000
   6.8580000  10.2740000  73.7250000   5.3240000   9.7120000  75.6180000
   7.9610000  10.7360000  72.0780000   5.6260000   9.8770000  65.2290000
   3.8670000   8.8560000  65.0390000   7.3520000  10.7240000  65.8880000
   7.4820000  10.5570000  74.3540000   4.3340000   8.8820000  76.1120000
   5.9520000  10.5420000  76.5140000   5.8050000  10.1840000  63.7370000
   3.9860000   8.8620000  77.4510000   3.9070000   8.2840000  75.5430000
   5.6300000  10.4790000  77.8860000   6.6400000  11.0900000  76.2100000
   6.9720000   9.4710000  63.0970000   5.9140000  11.1470000  63.6970000
   4.9690000   9.9400000  63.3090000   4.6540000   9.6570000  78.3380000
   3.2910000   8.3310000  77.7650000   6.0730000  11.0520000  78.4690000
   7.1920000   9.9810000  61.6410000   6.8340000   8.5140000  63.0140000
   7.8080000   9.6310000  63.5630000   4.4490000   9.6340000  79.2440000
   8.3940000   9.3920000  60.9530000   6.3710000   9.7880000  61.1620000
   7.3000000  10.9410000  61.7220000   8.5740000   9.9280000  59.5060000
   8.2760000   8.4330000  60.8610000   9.2110000   9.5700000  61.4440000
   9.8060000   9.3980000  58.7970000   7.7510000   9.7460000  59.0270000
   8.6790000  10.8860000  59.6100000   9.9270000   9.9720000  57.3710000
   9.6840000   8.4420000  58.6910000  10.6180000   9.5680000  59.2980000
   9.1080000   9.8070000  56.8770000  10.0510000  10.9270000  57.4820000
  11.0820000   9.3690000  56.6190000  11.2360000   9.9670000  55.2040000
  10.9980000   8.4060000  56.5340000  11.9210000   9.5800000  57.0560000
  10.4210000   9.7090000  54.7440000  12.4140000   9.4480000  54.4460000
  11.2680000  10.9330000  55.2860000  12.3770000   8.4880000  54.3750000
  12.4210000   9.8300000  53.5670000  13.2160000   9.6980000  54.9120000
   6.8670000  16.6290000  17.5080000   8.0320000  17.2090000  16.3640000
   7.9260000  17.1430000  18.8070000   8.0440000  17.2050000  14.9000000
   9.1640000  17.6770000  16.9190000   7.6050000  17.0720000  20.1790000
   9.1310000  17.6490000  18.3690000   7.0810000  16.7840000  13.9730000
   9.2140000  17.7750000  14.4590000  10.3130000  18.2780000  15.7600000
   8.5510000  17.4770000  21.1090000   6.7870000  16.7250000  20.4530000
  10.0690000  18.1090000  19.3200000   7.3610000  16.9790000  12.6150000
   6.2800000  16.4150000  14.2670000   9.4790000  18.0400000  13.0960000
   9.7630000  18.0310000  20.6800000   8.2300000  17.4690000  22.5740000
  10.8660000  18.4930000  19.0330000   8.5310000  17.6340000  12.1840000
   6.7730000  16.6130000  11.9940000  10.2570000  18.4810000  12.8430000
  10.3880000  18.3140000  21.3090000   7.2390000  16.6390000  23.0670000
   8.8570000  18.2990000  23.4700000   8.7100000  17.9410000  10.6930000
   6.8920000  16.6190000  24.4060000   6.8120000  16.0400000  22.4990000
   8.5350000  18.2350000  24.8410000   9.5450000  18.8470000  23.1660000
   9.8780000  17.2280000  10.0520000   8.8190000  18.9040000  10.6520000
   7.8740000  17.6970000  10.2650000   7.5600000  17.4140000  25.2930000
   6.1960000  16.0870000  24.7210000   8.9780000  18.8090000  25.4240000
  10.0970000  17.7370000   8.5970000   9.7390000  16.2710000   9.9700000
  10.7130000  17.3880000  10.5180000   7.3540000  17.3910000  26.2000000
  11.2990000  17.1490000   7.9090000   9.2760000  17.5450000   8.1180000
  10.2060000  18.6980000   8.6770000  11.4790000  17.6850000   6.4620000
  11.1820000  16.1900000   7.8160000  12.1170000  17.3270000   8.3990000
  12.7110000  17.1550000   5.7520000  10.6560000  17.5030000   5.9820000
  11.5840000  18.6430000   6.5660000  12.8320000  17.7290000   4.3260000
  12.5890000  16.1980000   5.6470000  13.5240000  17.3250000   6.2540000
  12.0130000  17.5640000   3.8330000  12.9560000  18.6840000   4.4370000
  13.9870000  17.1260000   3.5740000  14.1410000  17.7240000   2.1590000
  13.9040000  16.1630000   3.4890000  14.8270000  17.3370000   4.0110000
  13.3260000  17.4660000   1.6990000  15.3190000  17.2050000   1.4010000
  14.1730000  18.6890000   2.2410000  15.2820000  16.2450000   1.3300000
  15.3260000  17.5870000   0.5220000  16.1210000  17.4550000   1.8670000
   3.9620000  16.6290000  70.5530000   5.1260000  17.2090000  69.4080000
   5.0200000  17.1430000  71.8510000   5.1390000  17.2050000  67.9450000
   6.2590000  17.6770000  69.9640000   4.7000000  17.0720000  73.2240000
   6.2260000  17.6490000  71.4130000   4.1760000  16.7840000  67.0170000
   6.3080000  17.7750000  67.5040000   7.4070000  18.2780000  68.8040000
   5.6460000  17.4770000  74.1540000   3.8820000  16.7250000  73.4970000
   7.1630000  18.1090000  72.3640000   4.4550000  16.9790000  65.6600000
   3.3750000  16.4150000  67.3120000   6.5730000  18.0400000  66.1410000
   6.8580000  18.0310000  73.7250000   5.3240000  17.4690000  75.6180000
   7.9610000  18.4930000  72.0780000   5.6260000  17.6340000  65.2290000
   3.8670000  16.6130000  65.0390000   7.3520000  18.4810000  65.8880000
   7.4820000  18.3140000  74.3540000   4.3340000  16.6390000  76.1120000
   5.9520000  18.2990000  76.5140000   5.8050000  17.9410000  63.7370000
   3.9860000  16.6190000  77.4510000   3.9070000  16.0400000  75.5430000
   5.6300000  18.2350000  77.8860000   6.6400000  18.8470000  76.2100000
   6.9720000  17.2280000  63.0970000   5.9140000  18.9040000  63.6970000
   4.9690000  17.6970000  63.3090000   4.6540000  17.4140000  78.3380000
   3.2910000  16.0870000  77.7650000   6.0730000  18.8090000  78.4690000
   7.1920000  17.7370000  61.6410000   6.8340000  16.2710000  63.0140000
   7.8080000  17.3880000  63.5630000   4.4490000  17.3910000  79.2440000
   8.3940000  17.1490000  60.9530000   6.3710000  17.5450000  61.1620000
   7.3000000  18.6980000  61.7220000   8.5740000  17.6850000  59.5060000
   8.2760000  16.1900000  60.8610000   9.2110000  17.3270000  61.4440000
   9.8060000  17.1550000  58.7970000   7.7510000  17.5030000  59.0270000
   8.6790000  18.6430000  59.6100000   9.9270000  17.7290000  57.3710000
   9.6840000  16.1980000  58.6910000  10.6180000  17.3250000  59.2980000
   9.1080000  17.5640000  56.8770000  10.0510000  18.6840000  57.4820000
  11.0820000  17.1260000  56.6190000  11.2360000  17.7240000  55.2040000
  10.9980000  16.1630000  56.5340000  11.9210000  17.3370000  57.0560000
  10.4210000  17.4660000  54.7440000  12.4140000  17.2050000  54.4460000
  11.2680000  18.6890000  55.2860000  12.3770000  16.2450000  54.3750000
  12.4210000  17.5870000  53.5670000  13.2160000  17.4550000  54.9120000
   6.8670000   1.1150000  17.5080000   8.0320000   1.6960000  16.3640000
   7.9260000   1.6300000  18.8070000   8.0440000   1.6910000  14.9000000
   9.1640000   2.1630000  16.9190000   7.6050000   1.5580000  20.1790000
   9.1310000   2.1350000  18.3690000   7.0810000   1.2710000  13.9730000
   9.2140000   2.2610000  14.4590000  10.3130000   2.7650000  15.7600000
   8.5510000   1.9630000  21.1090000   6.7870000   1.2110000  20.4530000
  10.0690000   2.5950000  19.3200000   7.3610000   1.4650000  12.6150000
   6.2800000   0.9010000  14.2670000   9.4790000   2.5260000  13.0960000
   9.7630000   2.5170000  20.6800000   8.2300000   1.9550000  22.5740000
  10.8660000   2.9790000  19.0330000   8.5310000   2.1200000  12.1840000
   6.7730000   1.1000000  11.9940000  10.2570000   2.9680000  12.8430000
  10.3880000   2.8000000  21.3090000   7.2390000   1.1260000  23.0670000
   8.8570000   2.7850000  23.4700000   8.7100000   2.4270000  10.6930000
   6.8920000   1.1050000  24.4060000   6.8120000   0.5270000  22.4990000
   8.5350000   2.7220000  24.8410000   9.5450000   3.3330000  23.1660000
   9.8780000   1.7140000  10.0520000   8.8190000   3.3900000  10.6520000
   7.8740000   2.1840000  10.2650000   7.5600000   1.9000000  25.2930000
   6.1960000   0.5740000  24.7210000   8.9780000   3.2950000  25.4240000
  10.0970000   2.2240000   8.5970000   9.7390000   0.7570000   9.9700000
  10.7130000   1.8740000  10.5180000   7.3540000   1.8770000  26.2000000
  11.2990000   1.6350000   7.9090000   9.2760000   2.0310000   8.1180000
  10.2060000   3.1840000   8.6770000  11.4790000   2.1710000   6.4620000
  11.1820000   0.6760000   7.8160000  12.1170000   1.8140000   8.3990000
  12.7110000   1.6410000   5.7520000  10.6560000   1.9890000   5.9820000
  11.5840000   3.1300000   6.5660000  12.8320000   2.2150000   4.3260000
  12.5890000   0.6850000   5.6470000  13.5240000   1.8110000   6.2540000
  12.0130000   2.0500000   3.8330000  12.9560000   3.1710000   4.4370000
  13.9870000   1.6130000   3.5740000  14.1410000   2.2100000   2.1590000
  13.9040000   0.6500000   3.4890000  14.8270000   1.8230000   4.0110000
  13.3260000   1.9520000   1.6990000  15.3190000   1.6910000   1.4010000
  14.1730000   3.1760000   2.2410000  15.2820000   0.7310000   1.3300000
  15.3260000   2.0730000   0.5220000  16.1210000   1.9420000   1.8670000
   6.8670000  24.3860000  17.5080000   8.0320000  24.9660000  16.3640000
   7.9260000  24.9000000  18.8070000   8.0440000  24.9610000  14.9000000
   9.1640000  25.4340000  16.9190000   7.6050000  24.8290000  20.1790000
   9.1310000  25.4060000  18.3690000   7.0810000  24.5410000  13.9730000
   9.2140000  25.5320000  14.4590000  10.3130000  26.0350000  15.7600000
   8.5510000  25.2340000  21.1090000   6.7870000  24.4810000  20.4530000
  10.0690000  25.8660000  19.3200000   7.3610000  24.7360000  12.6150000
   6.2800000  24.1720000  14.2670000   9.4790000  25.7970000  13.0960000
   9.7630000  25.7870000  20.6800000   8.2300000  25.2260000  22.5740000
  10.8660000  26.2490000  19.0330000   8.5310000  25.3900000  12.1840000
   6.7730000  24.3700000  11.9940000  10.2570000  26.2380000  12.8430000
  10.3880000  26.0710000  21.3090000   7.2390000  24.3960000  23.0670000
   8.8570000  26.0560000  23.4700000   8.7100000  25.6980000  10.6930000
   6.8920000  24.3760000  24.4060000   6.8120000  23.7970000  22.4990000
   8.5350000  25.9920000  24.8410000   9.5450000  26.6040000  23.1660000
   9.8780000  24.9850000  10.0520000   8.8190000  26.6610000  10.6520000
   7.8740000  25.4540000  10.2650000   7.5600000  25.1710000  25.2930000
   6.1960000  23.8440000  24.7210000   8.9780000  26.5660000  25.4240000
  10.0970000  25.4940000   8.5970000   9.7390000  24.0280000   9.9700000
  10.7130000  25.1450000  10.5180000   7.3540000  25.1470000  26.2000000
  11.2990000  24.9060000   7.9090000   9.2760000  25.3020000   8.1180000
  10.2060000  26.4550000   8.6770000  11.4790000  25.4420000   6.4620000
  11.1820000  23.9470000   7.8160000  12.1170000  25.0840000   8.3990000
  12.7110000  24.9120000   5.7520000  10.6560000  25.2600000   5.9820000
  11.5840000  26.4000000   6.5660000  12.8320000  25.4860000   4.3260000
  12.5890000  23.9550000   5.6470000  13.5240000  25.0810000   6.2540000
  12.0130000  25.3210000   3.8330000  12.9560000  26.4410000   4.4370000
  13.9870000  24.8830000   3.5740000  14.1410000  25.4800000   2.1590000
  13.9040000  23.9200000   3.4890000  14.8270000  25.0940000   4.0110000
  13.3260000  25.2230000   1.6990000  15.3190000  24.9610000   1.4010000
  14.1730000  26.4460000   2.2410000  15.2820000  24.0010000   1.3300000
  15.3260000  25.3440000   0.5220000  16.1210000  25.2120000   1.8670000
   3.9620000  24.3860000  70.5530000   5.1260000  24.9660000  69.4080000
   5.0200000  24.9000000  71.8510000   5.1390000  24.9610000  67.9450000
   6.2590000  25.4340000  69.9640000   4.7000000  24.8290000  73.2240000
   6.2260000  25.4060000  71.4130000   4.1760000  24.5410000  67.0170000
   6.3080000  25.5320000  67.5040000   7.4070000  26.0350000  68.8040000
   5.6460000  25.2340000  74.1540000   3.8820000  24.4810000  73.4970000
   7.1630000  25.8660000  72.3640000   4.4550000  24.7360000  65.6600000
   3.3750000  24.1720000  67.3120000   6.5730000  25.7970000  66.1410000
   6.8580000  25.7870000  73.7250000   5.3240000  25.2260000  75.6180000
   7.9610000  26.2490000  72.0780000   5.6260000  25.3900000  65.2290000
   3.8670000  24.3700000  65.0390000   7.3520000  26.2380000  65.8880000
   7.4820000  26.0710000  74.3540000   4.3340000  24.3960000  76.1120000
   5.9520000  26.0560000  76.5140000   5.8050000  25.6980000  63.7370000
   3.9860000  24.3760000  77.4510000   3.9070000  23.7970000  75.5430000
   5.6300000  25.9920000  77.8860000   6.6400000  26.6040000  76.2100000
   6.9720000  24.9850000  63.0970000   5.9140000  26.6610000  63.6970000
   4.9690000  25.4540000  63.3090000   4.6540000  25.1710000  78.3380000
   3.2910000  23.8440000  77.7650000   6.0730000  26.5660000  78.4690000
   7.1920000  25.4940000  61.6410000   6.8340000  24.0280000  63.0140000
   7.8080000  25.1450000  63.5630000   4.4490000  25.1470000  79.2440000
   8.3940000  24.9060000  60.9530000   6.3710000  25.3020000  61.1620000
   7.3000000  26.4550000  61.7220000   8.5740000  25.4420000  59.5060000
   8.2760000  23.9470000  60.8610000   9.2110000  25.0840000  61.4440000
   9.8060000  24.9120000  58.7970000   7.7510000  25.2600000  59.0270000
   8.6790000  26.4000000  59.6100000   9.9270000  25.4860000  57.3710000
   9.6840000  23.9550000  58.6910000  10.6180000  25.0810000  59.2980000
   9.1080000  25.3210000  56.8770000  10.0510000  26.4410000  57.4820000
  11.0820000  24.8830000  56.6190000  11.2360000  25.4800000  55.2040000
  10.9980000  23.9200000  56.5340000  11.9210000  25.0940000  57.0560000
  10.4210000  25.2230000  54.7440000  12.4140000  24.9610000  54.4460000
  11.2680000  26.4460000  55.2860000  12.3770000  24.0010000  54.3750000
  12.4210000  25.3440000  53.5670000  13.2160000  25.2120000  54.9120000
   6.8670000  32.1430000  17.5080000   8.0320000  32.7230000  16.3640000
   7.9260000  32.6570000  18.8070000   8.0440000  32.7180000  14.9000000
   9.1640000  33.1910000  16.9190000   7.6050000  32.5860000  20.1790000
   9.1310000  33.1630000  18.3690000   7.0810000  32.2980000  13.9730000
   9.2140000  33.2880000  14.4590000  10.3130000  33.7920000  15.7600000
   8.5510000  32.9900000  21.1090000   6.7870000  32.2380000  20.4530000
  10.0690000  33.6230000  19.3200000   7.3610000  32.4920000  12.6150000
   6.2800000  31.9280000  14.2670000   9.4790000  33.5540000  13.0960000
   9.7630000  33.5440000  20.6800000   8.2300000  32.9830000  22.5740000
  10.8660000  34.0060000  19.0330000   8.5310000  33.1470000  12.1840000
   6.7730000  32.1270000  11.9940000  10.2570000  33.9950000  12.8430000
  10.3880000  33.8270000  21.3090000   7.2390000  32.1530000  23.0670000
   8.8570000  33.8130000  23.4700000   8.7100000  33.4540000  10.6930000
   6.8920000  32.1330000  24.4060000   6.8120000  31.5540000  22.4990000
   8.5350000  33.7490000  24.8410000   9.5450000  34.3600000  23.1660000
   9.8780000  32.7410000  10.0520000   8.8190000  34.4170000  10.6520000
   7.8740000  33.2110000  10.2650000   7.5600000  32.9280000  25.2930000
   6.1960000  31.6010000  24.7210000   8.9780000  34.3230000  25.4240000
  10.0970000  33.2510000   8.5970000   9.7390000  31.7850000   9.9700000
  10.7130000  32.9020000  10.5180000   7.3540000  32.9040000  26.2000000
  11.2990000  32.6620000   7.9090000   9.2760000  33.0580000   8.1180000
  10.2060000  34.2110000   8.6770000  11.4790000  33.1980000   6.4620000
  11.1820000  31.7040000   7.8160000  12.1170000  32.8410000   8.3990000
  12.7110000  32.6690000   5.7520000  10.6560000  33.0170000   5.9820000
  11.5840000  34.1570000   6.5660000  12.8320000  33.2430000   4.3260000
  12.5890000  31.7120000   5.6470000  13.5240000  32.8380000   6.2540000
  12.0130000  33.0770000   3.8330000  12.9560000  34.1980000   4.4370000
  13.9870000  32.6400000   3.5740000  14.1410000  33.2370000   2.1590000
  13.9040000  31.6770000   3.4890000  14.8270000  32.8510000   4.0110000
  13.3260000  32.9800000   1.6990000  15.3190000  32.7180000   1.4010000
  14.1730000  34.2030000   2.2410000  15.2820000  31.7580000   1.3300000
  15.3260000  33.1010000   0.5220000  16.1210000  32.9690000   1.8670000
   3.9620000  32.1430000  70.5530000   5.1260000  32.7230000  69.4080000
   5.0200000  32.6570000  71.8510000   5.1390000  32.7180000  67.9450000
   6.2590000  33.1910000  69.9640000   4.7000000  32.5860000  73.2240000
   6.2260000  33.1630000  71.4130000   4.1760000  32.2980000  67.0170000
   6.3080000  33.2880000  67.5040000   7.4070000  33.7920000  68.8040000
   5.6460000  32.9900000  74.1540000   3.8820000  32.2380000  73.4970000
   7.1630000  33.6230000  72.3640000   4.4550000  32.4920000  65.6600000
   3.3750000  31.9280000  67.3120000   6.5730000  33.5540000  66.1410000
   6.8580000  33.5440000  73.7250000   5.3240000  32.9830000  75.6180000
   7.9610000  34.0060000  72.0780000   5.6260000  33.1470000  65.2290000
   3.8670000  32.1270000  65.0390000   7.3520000  33.9950000  65.8880000
   7.4820000  33.8270000  74.3540000   4.3340000  32.1530000  76.1120000
   5.9520000  33.8130000  76.5140000   5.8050000  33.4540000  63.7370000
   3.9860000  32.1330000  77.4510000   3.9070000  31.5540000  75.5430000
   5.6300000  33.7490000  77.8860000   6.6400000  34.3600000  76.2100000
   6.9720000  32.7410000  63.0970000   5.9140000  34.4170000  63.6970000
   4.9690000  33.2110000  63.3090000   4.6540000  32.9280000  78.3380000
   3.2910000  31.6010000  77.7650000   6.0730000  34.3230000  78.4690000
   7.1920000  33.2510000  61.6410000   6.8340000  31.7850000  63.0140000
   7.8080000  32.9020000  63.5630000   4.4490000  32.9040000  79.2440000
   8.3940000  32.6620000  60.9530000   6.3710000  33.0580000  61.1620000
   7.3000000  34.2110000  61.7220000   8.5740000  33.1980000  59.5060000
   8.2760000  31.7040000  60.8610000   9.2110000  32.8410000  61.4440000
   9.8060000  32.6690000  58.7970000   7.7510000  33.0170000  59.0270000
   8.6790000  34.1570000  59.6100000   9.9270000  33.2430000  57.3710000
   9.6840000  31.7120000  58.6910000  10.6180000  32.8380000  59.2980000
   9.1080000  33.0770000  56.8770000  10.0510000  34.1980000  57.4820000
  11.0820000  32.6400000  56.6190000  11.2360000  33.2370000  55.2040000
  10.9980000  31.6770000  56.5340000  11.9210000  32.8510000  57.0560000
  10.4210000  32.9800000  54.7440000  12.4140000  32.7180000  54.4460000
  11.2680000  34.2030000  55.2860000  12.3770000  31.7580000  54.3750000
  12.4210000  33.1010000  53.5670000  13.2160000  32.9690000  54.9120000
   6.8670000  39.8990000  17.5080000   8.0320000  40.4800000  16.3640000
   7.9260000  40.4140000  18.8070000   8.0440000  40.4750000  14.9000000
   9.1640000  40.9470000  16.9190000   7.6050000  40.3420000  20.1790000
   9.1310000  40.9190000  18.3690000   7.0810000  40.0550000  13.9730000
   9.2140000  41.0450000  14.4590000  10.3130000  41.5490000  15.7600000
   8.5510000  40.7470000  21.1090000   6.7870000  39.9950000  20.4530000
  10.0690000  41.3790000  19.3200000   7.3610000  40.2490000  12.6150000
   6.2800000  39.6850000  14.2670000   9.4790000  41.3100000  13.0960000
   9.7630000  41.3010000  20.6800000   8.2300000  40.7390000  22.5740000
  10.8660000  41.7630000  19.0330000   8.5310000  40.9040000  12.1840000
   6.7730000  39.8840000  11.9940000  10.2570000  41.7520000  12.8430000
  10.3880000  41.5840000  21.3090000   7.2390000  39.9100000  23.0670000
   8.8570000  41.5690000  23.4700000   8.7100000  41.2110000  10.6930000
   6.8920000  39.8890000  24.4060000   6.8120000  39.3110000  22.4990000
   8.5350000  41.5060000  24.8410000   9.5450000  42.1170000  23.1660000
   9.8780000  40.4980000  10.0520000   8.8190000  42.1740000  10.6520000
   7.8740000  40.9680000  10.2650000   7.5600000  40.6840000  25.2930000
   6.1960000  39.3580000  24.7210000   8.9780000  42.0790000  25.4240000
  10.0970000  41.0080000   8.5970000   9.7390000  39.5410000   9.9700000
  10.7130000  40.6580000  10.5180000   7.3540000  40.6610000  26.2000000
  11.2990000  40.4190000   7.9090000   9.2760000  40.8150000   8.1180000
  10.2060000  41.9680000   8.6770000  11.4790000  40.9550000   6.4620000
  11.1820000  39.4600000   7.8160000  12.1170000  40.5980000   8.3990000
  12.7110000  40.4250000   5.7520000  10.6560000  40.7730000   5.9820000
  11.5840000  41.9140000   6.5660000  12.8320000  40.9990000   4.3260000
  12.5890000  39.4690000   5.6470000  13.5240000  40.5950000   6.2540000
  12.0130000  40.8340000   3.8330000  12.9560000  41.9550000   4.4370000
  13.9870000  40.3970000   3.5740000  14.1410000  40.9940000   2.1590000
  13.9040000  39.4340000   3.4890000  14.8270000  40.6070000   4.0110000
  13.3260000  40.7360000   1.6990000  15.3190000  40.4750000   1.4010000
  14.1730000  41.9600000   2.2410000  15.2820000  39.5150000   1.3300000
  15.3260000  40.8570000   0.5220000  16.1210000  40.7260000   1.8670000
   3.9620000  39.8990000  70.5530000   5.1260000  40.4800000  69.4080000
   5.0200000  40.4140000  71.8510000   5.1390000  40.4750000  67.9450000
   6.2590000  40.9470000  69.9640000   4.7000000  40.3420000  73.2240000
   6.2260000  40.9190000  71.4130000   4.1760000  40.0550000  67.0170000
   6.3080000  41.0450000  67.5040000   7.4070000  41.5490000  68.8040000
   5.6460000  40.7470000  74.1540000   3.8820000  39.9950000  73.4970000
   7.1630000  41.3790000  72.3640000   4.4550000  40.2490000  65.6600000
   3.3750000  39.6850000  67.3120000   6.5730000  41.3100000  66.1410000
   6.8580000  41.3010000  73.7250000   5.3240000  40.7390000  75.6180000
   7.9610000  41.7630000  72.0780000   5.6260000  40.9040000  65.2290000
   3.8670000  39.8840000  65.0390000   7.3520000  41.7520000  65.8880000
   7.4820000  41.5840000  74.3540000   4.3340000  39.9100000  76.1120000
   5.9520000  41.5690000  76.5140000   5.8050000  41.2110000  63.7370000
   3.9860000  39.8890000  77.4510000   3.9070000  39.3110000  75.5430000
   5.6300000  41.5060000  77.8860000   6.6400000  42.1170000  76.2100000
   6.9720000  40.4980000  63.0970000   5.9140000  42.1740000  63.6970000
   4.9690000  40.9680000  63.3090000   4.6540000  40.6840000  78.3380000
   3.2910000  39.3580000  77.7650000   6.0730000  42.0790000  78.4690000
   7.1920000  41.0080000  61.6410000   6.8340000  39.5410000  63.0140000
   7.8080000  40.6580000  63.5630000   4.4490000  40.6610000  79.2440000
   8.3940000  40.4190000  60.9530000   6.3710000  40.8150000  61.1620000
   7.3000000  41.9680000  61.7220000   8.5740000  40.9550000  59.5060000
   8.2760000  39.4600000  60.8610000   9.2110000  40.5980000  61.4440000
   9.8060000  40.4250000  58.7970000   7.7510000  40.7730000  59.0270000
   8.6790000  41.9140000  59.6100000   9.9270000  40.9990000  57.3710000
   9.6840000  39.4690000  58.6910000  10.6180000  40.5950000  59.2980000
   9.1080000  40.8340000  56.8770000  10.0510000  41.9550000  57.4820000
  11.0820000  40.3970000  56.6190000  11.2360000  40.9940000  55.2040000
  10.9980000  39.4340000  56.5340000  11.9210000  40.6070000  57.0560000
  10.4210000  40.7360000  54.7440000  12.4140000  40.4750000  54.4460000
  11.2680000  41.9600000  55.2860000  12.3770000  39.5150000  54.3750000
  12.4210000  40.8570000  53.5670000  13.2160000  40.7260000  54.9120000
   3.9620000   1.1150000  70.5530000   5.1260000   1.6960000  69.4080000
   5.0200000   1.6300000  71.8510000   5.1390000   1.6910000  67.9450000
   6.2590000   2.1630000  69.9640000   4.7000000   1.5580000  73.2240000
   6.2260000   2.1350000  71.4130000   4.1760000   1.2710000  67.0170000
   6.3080000   2.2610000  67.5040000   7.4070000   2.7650000  68.8040000
   5.6460000   1.9630000  74.1540000   3.8820000   1.2110000  73.4970000
   7.1630000   2.5950000  72.3640000   4.4550000   1.4650000  65.6600000
   3.3750000   0.9010000  67.3120000   6.5730000   2.5260000  66.1410000
   6.8580000   2.5170000  73.7250000   5.3240000   1.9550000  75.6180000
   7.9610000   2.9790000  72.0780000   5.6260000   2.1200000  65.2290000
   3.8670000   1.1000000  65.0390000   7.3520000   2.9680000  65.8880000
   7.4820000   2.8000000  74.3540000   4.3340000   1.1260000  76.1120000
   5.9520000   2.7850000  76.5140000   5.8050000   2.4270000  63.7370000
   3.9860000   1.1050000  77.4510000   3.9070000   0.5270000  75.5430000
   5.6300000   2.7220000  77.8860000   6.6400000   3.3330000  76.2100000
   6.9720000   1.7140000  63.0970000   5.9140000   3.3900000  63.6970000
   4.9690000   2.1840000  63.3090000   4.6540000   1.9000000  78.3380000
   3.2910000   0.5740000  77.7650000   6.0730000   3.2950000  78.4690000
   7.1920000   2.2240000  61.6410000   6.8340000   0.7570000  63.0140000
   7.8080000   1.8740000  63.5630000   4.4490000   1.8770000  79.2440000
   8.3940000   1.6350000  60.9530000   6.3710000   2.0310000  61.1620000
   7.3000000   3.1840000  61.7220000   8.5740000   2.1710000  59.5060000
   8.2760000   0.6760000  60.8610000   9.2110000   1.8140000  61.4440000
   9.8060000   1.6410000  58.7970000   7.7510000   1.9890000  59.0270000
   8.6790000   3.1300000  59.6100000   9.9270000   2.2150000  57.3710000
   9.6840000   0.6850000  58.6910000  10.6180000   1.8110000  59.2980000
   9.1080000   2.0500000  56.8770000  10.0510000   3.1710000  57.4820000
  11.0820000   1.6130000  56.6190000  11.2360000   2.2100000  55.2040000
  10.9980000   0.6500000  56.5340000  11.9210000   1.8230000  57.0560000
  10.4210000   1.9520000  54.7440000  12.4140000   1.6910000  54.4460000
  11.2680000   3.1760000  55.2860000  12.3770000   0.7310000  54.3750000
  12.4210000   2.0730000  53.5670000  13.2160000   1.9420000  54.9120000
   5.4640000   4.9940000  88.5810000   4.2990000   5.5740000  89.7250000
   4.4050000   5.5080000  87.2820000   4.2870000   5.5690000  91.1890000
   3.1670000   6.0420000  89.1700000   4.7260000   5.4370000  85.9100000
   3.1990000   6.0140000  87.7200000   5.2490000   5.1490000  92.1160000
   3.1170000   6.1400000  91.6300000   2.0180000   6.6430000  90.3290000
   3.7790000   5.8420000  84.9800000   5.5440000   5.0890000  85.6360000
   2.2620000   6.4740000  86.7690000   4.9700000   5.3440000  93.4740000
   6.0510000   4.7800000  91.8220000   2.8520000   6.4050000  92.9930000
   2.5680000   6.3950000  85.4090000   4.1010000   5.8340000  83.5150000
   1.4650000   6.8570000  87.0560000   3.8000000   5.9980000  93.9050000
   5.5580000   4.9780000  94.0950000   2.0740000   6.8460000  93.2460000
   1.9430000   6.6790000  84.7800000   5.0910000   5.0040000  83.0220000
   3.4730000   6.6640000  82.6190000   3.6210000   6.3060000  95.3960000
   5.4390000   4.9840000  81.6830000   5.5190000   4.4050000  83.5900000
   3.7960000   6.6000000  81.2480000   2.7860000   7.2120000  82.9230000
   2.4530000   5.5930000  96.0370000   3.5110000   7.2690000  95.4370000
   4.4570000   6.0620000  95.8240000   4.7710000   5.7790000  80.7960000
   6.1350000   4.4520000  81.3680000   3.3530000   7.1740000  80.6650000
   2.2340000   6.1020000  97.4920000   2.5910000   4.6360000  96.1190000
   1.6180000   5.7530000  95.5710000   4.9770000   5.7550000  79.8890000
   1.0320000   5.5140000  98.1800000   3.0550000   5.9100000  97.9710000
   2.1250000   7.0630000  97.4120000   0.8520000   6.0500000  99.6270000
   1.1490000   4.5550000  98.2730000   0.2140000   5.6920000  97.6900000
  -0.3800000   5.5200000 100.3370000   1.6750000   5.8680000 100.1070000
   0.7460000   7.0080000  99.5230000  -0.5010000   6.0940000 101.7630000
  -0.2580000   4.5630000 100.4420000  -1.1930000   5.6890000  99.8350000
   0.3170000   5.9290000 102.2560000  -0.6260000   7.0490000 101.6520000
  -1.6560000   5.4910000 102.5150000  -1.8100000   6.0880000 103.9300000
  -1.5730000   4.5280000 102.6000000  -2.4960000   5.7020000 102.0780000
  -0.9950000   5.8310000 104.3900000  -2.9880000   5.5690000 104.6880000
  -1.8420000   7.0540000 103.8480000  -2.9520000   4.6090000 104.7590000
  -2.9950000   5.9520000 105.5670000  -3.7900000   5.8200000 104.2220000
   5.4640000  12.7510000  88.5810000   4.2990000  13.3310000  89.7250000
   4.4050000  13.2650000  87.2820000   4.2870000  13.3260000  91.1890000
   3.1670000  13.7990000  89.1700000   4.7260000  13.1940000  85.9100000
   3.1990000  13.7710000  87.7200000   5.2490000  12.9060000  92.1160000
   3.1170000  13.8960000  91.6300000   2.0180000  14.4000000  90.3290000
   3.7790000  13.5980000  84.9800000   5.5440000  12.8460000  85.6360000
   2.2620000  14.2310000  86.7690000   4.9700000  13.1000000  93.4740000
   6.0510000  12.5360000  91.8220000   2.8520000  14.1620000  92.9930000
   2.5680000  14.1520000  85.4090000   4.1010000  13.5910000  83.5150000
   1.4650000  14.6140000  87.0560000   3.8000000  13.7550000  93.9050000
   5.5580000  12.7350000  94.0950000   2.0740000  14.6030000  93.2460000
   1.9430000  14.4350000  84.7800000   5.0910000  12.7610000  83.0220000
   3.4730000  14.4210000  82.6190000   3.6210000  14.0620000  95.3960000
   5.4390000  12.7410000  81.6830000   5.5190000  12.1620000  83.5900000
   3.7960000  14.3570000  81.2480000   2.7860000  14.9680000  82.9230000
   2.4530000  13.3490000  96.0370000   3.5110000  15.0250000  95.4370000
   4.4570000  13.8190000  95.8240000   4.7710000  13.5360000  80.7960000
   6.1350000  12.2090000  81.3680000   3.3530000  14.9310000  80.6650000
   2.2340000  13.8590000  97.4920000   2.5910000  12.3930000  96.1190000
   1.6180000  13.5100000  95.5710000   4.9770000  13.5120000  79.8890000
   1.0320000  13.2700000  98.1800000   3.0550000  13.6660000  97.9710000
   2.1250000  14.8190000  97.4120000   0.8520000  13.8060000  99.6270000
   1.1490000  12.3120000  98.2730000   0.2140000  13.4490000  97.6900000
  -0.3800000  13.2770000 100.3370000   1.6750000  13.6250000 100.1070000
   0.7460000  14.7650000  99.5230000  -0.5010000  13.8510000 101.7630000
  -0.2580000  12.3200000 100.4420000  -1.1930000  13.4460000  99.8350000
   0.3170000  13.6850000 102.2560000  -0.6260000  14.8060000 101.6520000
  -1.6560000  13.2480000 102.5150000  -1.8100000  13.8450000 103.9300000
  -1.5730000  12.2850000 102.6000000  -2.4960000  13.4590000 102.0780000
  -0.9950000  13.5880000 104.3900000  -2.9880000  13.3260000 104.6880000
  -1.8420000  14.8110000 103.8480000  -2.9520000  12.3660000 104.7590000
  -2.9950000  13.7090000 105.5670000  -3.7900000  13.5770000 104.2220000
   5.4640000  20.5070000  88.5810000   4.2990000  21.0880000  89.7250000
   4.4050000  21.0220000  87.2820000   4.2870000  21.0830000  91.1890000
   3.1670000  21.5550000  89.1700000   4.7260000  20.9500000  85.9100000
   3.1990000  21.5270000  87.7200000   5.2490000  20.6630000  92.1160000
   3.1170000  21.6530000  91.6300000   2.0180000  22.1570000  90.3290000
   3.7790000  21.3550000  84.9800000   5.5440000  20.6030000  85.6360000
   2.2620000  21.9870000  86.7690000   4.9700000  20.8570000  93.4740000
   6.0510000  20.2930000  91.8220000   2.8520000  21.9180000  92.9930000
   2.5680000  21.9090000  85.4090000   4.1010000  21.3470000  83.5150000
   1.4650000  22.3710000  87.0560000   3.8000000  21.5120000  93.9050000
   5.5580000  20.4920000  94.0950000   2.0740000  22.3600000  93.2460000
   1.9430000  22.1920000  84.7800000   5.0910000  20.5180000  83.0220000
   3.4730000  22.1770000  82.6190000   3.6210000  21.8190000  95.3960000
   5.4390000  20.4970000  81.6830000   5.5190000  19.9190000  83.5900000
   3.7960000  22.1140000  81.2480000   2.7860000  22.7250000  82.9230000
   2.4530000  21.1060000  96.0370000   3.5110000  22.7820000  95.4370000
   4.4570000  21.5760000  95.8240000   4.7710000  21.2920000  80.7960000
   6.1350000  19.9660000  81.3680000   3.3530000  22.6870000  80.6650000
   2.2340000  21.6160000  97.4920000   2.5910000  20.1490000  96.1190000
   1.6180000  21.2660000  95.5710000   4.9770000  21.2690000  79.8890000
   1.0320000  21.0270000  98.1800000   3.0550000  21.4230000  97.9710000
   2.1250000  22.5760000  97.4120000   0.8520000  21.5630000  99.6270000
   1.1490000  20.0680000  98.2730000   0.2140000  21.2060000  97.6900000
  -0.3800000  21.0330000 100.3370000   1.6750000  21.3810000 100.1070000
   0.7460000  22.5220000  99.5230000  -0.5010000  21.6070000 101.7630000
  -0.2580000  20.0770000 100.4420000  -1.1930000  21.2030000  99.8350000
   0.3170000  21.4420000 102.2560000  -0.6260000  22.5630000 101.6520000
  -1.6560000  21.0050000 102.5150000  -1.8100000  21.6020000 103.9300000
  -1.5730000  20.0420000 102.6000000  -2.4960000  21.2150000 102.0780000
  -0.9950000  21.3440000 104.3900000  -2.9880000  21.0830000 104.6880000
  -1.8420000  22.5680000 103.8480000  -2.9520000  20.1230000 104.7590000
  -2.9950000  21.4650000 105.5670000  -3.7900000  21.3340000 104.2220000
   5.4640000  28.2640000  88.5810000   4.2990000  28.8440000  89.7250000
   4.4050000  28.7790000  87.2820000   4.2870000  28.8400000  91.1890000
   3.1670000  29.3120000  89.1700000   4.7260000  28.7070000  85.9100000
   3.1990000  29.2840000  87.7200000   5.2490000  28.4190000  92.1160000
   3.1170000  29.4100000  91.6300000   2.0180000  29.9130000  90.3290000
   3.7790000  29.1120000  84.9800000   5.5440000  28.3600000  85.6360000
   2.2620000  29.7440000  86.7690000   4.9700000  28.6140000  93.4740000
   6.0510000  28.0500000  91.8220000   2.8520000  29.6750000  92.9930000
   2.5680000  29.6660000  85.4090000   4.1010000  29.1040000  83.5150000
   1.4650000  30.1280000  87.0560000   3.8000000  29.2690000  93.9050000
   5.5580000  28.2480000  94.0950000   2.0740000  30.1160000  93.2460000
   1.9430000  29.9490000  84.7800000   5.0910000  28.2740000  83.0220000
   3.4730000  29.9340000  82.6190000   3.6210000  29.5760000  95.3960000
   5.4390000  28.2540000  81.6830000   5.5190000  27.6760000  83.5900000
   3.7960000  29.8710000  81.2480000   2.7860000  30.4820000  82.9230000
   2.4530000  28.8630000  96.0370000   3.5110000  30.5390000  95.4370000
   4.4570000  29.3320000  95.8240000   4.7710000  29.0490000  80.7960000
   6.1350000  27.7230000  81.3680000   3.3530000  30.4440000  80.6650000
   2.2340000  29.3730000  97.4920000   2.5910000  27.9060000  96.1190000
   1.6180000  29.0230000  95.5710000   4.9770000  29.0260000  79.8890000
   1.0320000  28.7840000  98.1800000   3.0550000  29.1800000  97.9710000
   2.1250000  30.3330000  97.4120000   0.8520000  29.3200000  99.6270000
   1.1490000  27.8250000  98.2730000   0.2140000  28.9620000  97.6900000
  -0.3800000  28.7900000 100.3370000   1.6750000  29.1380000 100.1070000
   0.7460000  30.2780000  99.5230000  -0.5010000  29.3640000 101.7630000
  -0.2580000  27.8340000 100.4420000  -1.1930000  28.9600000  99.8350000
   0.3170000  29.1990000 102.2560000  -0.6260000  30.3190000 101.6520000
  -1.6560000  28.7610000 102.5150000  -1.8100000  29.3590000 103.9300000
  -1.5730000  27.7980000 102.6000000  -2.4960000  28.9720000 102.0780000
  -0.9950000  29.1010000 104.3900000  -2.9880000  28.8400000 104.6880000
  -1.8420000  30.3250000 103.8480000  -2.9520000  27.8800000 104.7590000
  -2.9950000  29.2220000 105.5670000  -3.7900000  29.0900000 104.2220000
   5.4640000  36.0210000  88.5810000   4.2990000  36.6010000  89.7250000
   4.4050000  36.5350000  87.2820000   4.2870000  36.5970000  91.1890000
   3.1670000  37.0690000  89.1700000   4.7260000  36.4640000  85.9100000
   3.1990000  37.0410000  87.7200000   5.2490000  36.1760000  92.1160000
   3.1170000  37.1670000  91.6300000   2.0180000  37.6700000  90.3290000
   3.7790000  36.8690000  84.9800000   5.5440000  36.1170000  85.6360000
   2.2620000  37.5010000  86.7690000   4.9700000  36.3710000  93.4740000
   6.0510000  35.8070000  91.8220000   2.8520000  37.4320000  92.9930000
   2.5680000  37.4230000  85.4090000   4.1010000  36.8610000  83.5150000
   1.4650000  37.8850000  87.0560000   3.8000000  37.0260000  93.9050000
   5.5580000  36.0050000  94.0950000   2.0740000  37.8730000  93.2460000
   1.9430000  37.7060000  84.7800000   5.0910000  36.0310000  83.0220000
   3.4730000  37.6910000  82.6190000   3.6210000  37.3330000  95.3960000
   5.4390000  36.0110000  81.6830000   5.5190000  35.4320000  83.5900000
   3.7960000  37.6270000  81.2480000   2.7860000  38.2390000  82.9230000
   2.4530000  36.6200000  96.0370000   3.5110000  38.2960000  95.4370000
   4.4570000  37.0890000  95.8240000   4.7710000  36.8060000  80.7960000
   6.1350000  35.4790000  81.3680000   3.3530000  38.2010000  80.6650000
   2.2340000  37.1290000  97.4920000   2.5910000  35.6630000  96.1190000
   1.6180000  36.7800000  95.5710000   4.9770000  36.7830000  79.8890000
   1.0320000  36.5410000  98.1800000   3.0550000  36.9370000  97.9710000
   2.1250000  38.0900000  97.4120000   0.8520000  37.0770000  99.6270000
   1.1490000  35.5820000  98.2730000   0.2140000  36.7190000  97.6900000
  -0.3800000  36.5470000 100.3370000   1.6750000  36.8950000 100.1070000
   0.7460000  38.0350000  99.5230000  -0.5010000  37.1210000 101.7630000
  -0.2580000  35.5900000 100.4420000  -1.1930000  36.7170000  99.8350000
   0.3170000  36.9560000 102.2560000  -0.6260000  38.0760000 101.6520000
  -1.6560000  36.5180000 102.5150000  -1.8100000  37.1160000 103.9300000
  -1.5730000  35.5550000 102.6000000  -2.4960000  36.7290000 102.0780000
  -0.9950000  36.8580000 104.3900000  -2.9880000  36.5970000 104.6880000
  -1.8420000  38.0810000 103.8480000  -2.9520000  35.6370000 104.7590000
  -2.9950000  36.9790000 105.5670000  -3.7900000  36.8470000 104.2220000
   5.4640000  43.7780000  88.5810000   4.2990000  44.3580000  89.7250000
   4.4050000  44.2920000  87.2820000   4.2870000  44.3530000  91.1890000
   3.1670000  44.8260000  89.1700000   4.7260000  44.2210000  85.9100000
   3.1990000  44.7980000  87.7200000   5.2490000  43.9330000  92.1160000
   3.1170000  44.9240000  91.6300000   2.0180000  45.4270000  90.3290000
   3.7790000  44.6260000  84.9800000   5.5440000  43.8730000  85.6360000
   2.2620000  45.2580000  86.7690000   4.9700000  44.1280000  93.4740000
   6.0510000  43.5640000  91.8220000   2.8520000  45.1890000  92.9930000
   2.5680000  45.1790000  85.4090000   4.1010000  44.6180000  83.5150000
   1.4650000  45.6410000  87.0560000   3.8000000  44.7820000  93.9050000
   5.5580000  43.7620000  94.0950000   2.0740000  45.6300000  93.2460000
   1.9430000  45.4630000  84.7800000   5.0910000  43.7880000  83.0220000
   3.4730000  45.4480000  82.6190000   3.6210000  45.0900000  95.3960000
   5.4390000  43.7680000  81.6830000   5.5190000  43.1890000  83.5900000
   3.7960000  45.3840000  81.2480000   2.7860000  45.9960000  82.9230000
   2.4530000  44.3770000  96.0370000   3.5110000  46.0530000  95.4370000
   4.4570000  44.8460000  95.8240000   4.7710000  44.5630000  80.7960000
   6.1350000  43.2360000  81.3680000   3.3530000  45.9580000  80.6650000
   2.2340000  44.8860000  97.4920000   2.5910000  43.4200000  96.1190000
   1.6180000  44.5370000  95.5710000   4.9770000  44.5390000  79.8890000
   1.0320000  44.2980000  98.1800000   3.0550000  44.6940000  97.9710000
   2.1250000  45.8470000  97.4120000   0.8520000  44.8340000  99.6270000
   1.1490000  43.3390000  98.2730000   0.2140000  44.4760000  97.6900000
  -0.3800000  44.3040000 100.3370000   1.6750000  44.6520000 100.1070000
   0.7460000  45.7920000  99.5230000  -0.5010000  44.8780000 101.7630000
  -0.2580000  43.3470000 100.4420000  -1.1930000  44.4730000  99.8350000
   0.3170000  44.7130000 102.2560000  -0.6260000  45.8330000 101.6520000
  -1.6560000  44.2750000 102.5150000  -1.8100000  44.8720000 103.9300000
  -1.5730000  43.3120000 102.6000000  -2.4960000  44.4860000 102.0780000
  -0.9950000  44.6150000 104.3900000  -2.9880000  44.3530000 104.6880000
  -1.8420000  45.8380000 103.8480000  -2.9520000  43.3930000 104.7590000
  -2.9950000  44.7360000 105.5670000  -3.7900000  44.6040000 104.2220000
   8.3690000   4.9940000  35.5360000   7.2040000   5.5740000  36.6810000
   7.3100000   5.5080000  34.2380000   7.1920000   5.5690000  38.1440000
   6.0720000   6.0420000  36.1250000   7.6310000   5.4370000  32.8650000
   6.1050000   6.0140000  34.6760000   8.1550000   5.1490000  39.0720000
   6.0220000   6.1400000  38.5850000   4.9230000   6.6430000  37.2850000
   6.6850000   5.8420000  31.9350000   8.4490000   5.0890000  32.5920000
   5.1680000   6.4740000  33.7250000   7.8750000   5.3440000  40.4290000
   8.9560000   4.7800000  38.7770000   5.7570000   6.4050000  39.9480000
   5.4730000   6.3950000  32.3640000   7.0060000   5.8340000  30.4710000
   4.3700000   6.8570000  34.0110000   6.7050000   5.9980000  40.8600000
   8.4630000   4.9780000  41.0500000   4.9790000   6.8460000  40.2010000
   4.8490000   6.6790000  31.7350000   7.9970000   5.0040000  29.9770000
   6.3790000   6.6640000  29.5750000   6.5260000   6.3060000  42.3520000
   8.3440000   4.9840000  28.6380000   8.4240000   4.4050000  30.5460000
   6.7010000   6.6000000  28.2030000   5.6910000   7.2120000  29.8790000
   5.3580000   5.5930000  42.9920000   6.4170000   7.2690000  42.3920000
   7.3620000   6.0620000  42.7800000   7.6760000   5.7790000  27.7510000
   9.0400000   4.4520000  28.3240000   6.2580000   7.1740000  27.6200000
   5.1390000   6.1020000  44.4480000   5.4970000   4.6360000  43.0750000
   4.5230000   5.7530000  42.5260000   7.8820000   5.7550000  26.8450000
   3.9370000   5.5140000  45.1360000   5.9600000   5.9100000  44.9270000
   5.0310000   7.0630000  44.3670000   3.7570000   6.0500000  46.5830000
   4.0540000   4.5550000  45.2280000   3.1190000   5.6920000  44.6450000
   2.5250000   5.5200000  47.2920000   4.5800000   5.8680000  47.0620000
   3.6520000   7.0080000  46.4790000   2.4040000   6.0940000  48.7180000
   2.6470000   4.5630000  47.3980000   1.7120000   5.6890000  46.7910000
   3.2230000   5.9290000  49.2120000   2.2800000   7.0490000  48.6070000
   1.2490000   5.4910000  49.4700000   1.0950000   6.0880000  50.8850000
   1.3320000   4.5280000  49.5550000   0.4090000   5.7020000  49.0330000
   1.9100000   5.8310000  51.3450000  -0.0830000   5.5690000  51.6430000
   1.0630000   7.0540000  50.8030000  -0.0460000   4.6090000  51.7140000
  -0.0900000   5.9520000  52.5220000  -0.8850000   5.8200000  51.1770000
   8.3690000  12.7510000  35.5360000   7.2040000  13.3310000  36.6810000
   7.3100000  13.2650000  34.2380000   7.1920000  13.3260000  38.1440000
   6.0720000  13.7990000  36.1250000   7.6310000  13.1940000  32.8650000
   6.1050000  13.7710000  34.6760000   8.1550000  12.9060000  39.0720000
   6.0220000  13.8960000  38.5850000   4.9230000  14.4000000  37.2850000
   6.6850000  13.5980000  31.9350000   8.4490000  12.8460000  32.5920000
   5.1680000  14.2310000  33.7250000   7.8750000  13.1000000  40.4290000
   8.9560000  12.5360000  38.7770000   5.7570000  14.1620000  39.9480000
   5.4730000  14.1520000  32.3640000   7.0060000  13.5910000  30.4710000
   4.3700000  14.6140000  34.0110000   6.7050000  13.7550000  40.8600000
   8.4630000  12.7350000  41.0500000   4.9790000  14.6030000  40.2010000
   4.8490000  14.4350000  31.7350000   7.9970000  12.7610000  29.9770000
   6.3790000  14.4210000  29.5750000   6.5260000  14.0620000  42.3520000
   8.3440000  12.7410000  28.6380000   8.4240000  12.1620000  30.5460000
   6.7010000  14.3570000  28.2030000   5.6910000  14.9680000  29.8790000
   5.3580000  13.3490000  42.9920000   6.4170000  15.0250000  42.3920000
   7.3620000  13.8190000  42.7800000   7.6760000  13.5360000  27.7510000
   9.0400000  12.2090000  28.3240000   6.2580000  14.9310000  27.6200000
   5.1390000  13.8590000  44.4480000   5.4970000  12.3930000  43.0750000
   4.5230000  13.5100000  42.5260000   7.8820000  13.5120000  26.8450000
   3.9370000  13.2700000  45.1360000   5.9600000  13.6660000  44.9270000
   5.0310000  14.8190000  44.3670000   3.7570000  13.8060000  46.5830000
   4.0540000  12.3120000  45.2280000   3.1190000  13.4490000  44.6450000
   2.5250000  13.2770000  47.2920000   4.5800000  13.6250000  47.0620000
   3.6520000  14.7650000  46.4790000   2.4040000  13.8510000  48.7180000
   2.6470000  12.3200000  47.3980000   1.7120000  13.4460000  46.7910000
   3.2230000  13.6850000  49.2120000   2.2800000  14.8060000  48.6070000
   1.2490000  13.2480000  49.4700000   1.0950000  13.8450000  50.8850000
   1.3320000  12.2850000  49.5550000   0.4090000  13.4590000  49.0330000
   1.9100000  13.5880000  51.3450000  -0.0830000  13.3260000  51.6430000
   1.0630000  14.8110000  50.8030000  -0.0460000  12.3660000  51.7140000
  -0.0900000  13.7090000  52.5220000  -0.8850000  13.5770000  51.1770000
   8.3690000  20.5070000  35.5360000   7.2040000  21.0880000  36.6810000
   7.3100000  21.0220000  34.2380000   7.1920000  21.0830000  38.1440000
   6.0720000  21.5550000  36.1250000   7.6310000  20.9500000  32.8650000
   6.1050000  21.5270000  34.6760000   8.1550000  20.6630000  39.0720000
   6.0220000  21.6530000  38.5850000   4.9230000  22.1570000  37.2850000
   6.6850000  21.3550000  31.9350000   8.4490000  20.6030000  32.5920000
   5.1680000  21.9870000  33.7250000   7.8750000  20.8570000  40.4290000
   8.9560000  20.2930000  38.7770000   5.7570000  21.9180000  39.9480000
   5.4730000  21.9090000  32.3640000   7.0060000  21.3470000  30.4710000
   4.3700000  22.3710000  34.0110000   6.7050000  21.5120000  40.8600000
   8.4630000  20.4920000  41.0500000   4.9790000  22.3600000  40.2010000
   4.8490000  22.1920000  31.7350000   7.9970000  20.5180000  29.9770000
   6.3790000  22.1770000  29.5750000   6.5260000  21.8190000  42.3520000
   8.3440000  20.4970000  28.6380000   8.4240000  19.9190000  30.5460000
   6.7010000  22.1140000  28.2030000   5.6910000  22.7250000  29.8790000
   5.3580000  21.1060000  42.9920000   6.4170000  22.7820000  42.3920000
   7.3620000  21.5760000  42.7800000   7.6760000  21.2920000  27.7510000
   9.0400000  19.9660000  28.3240000   6.2580000  22.6870000  27.6200000
   5.1390000  21.6160000  44.4480000   5.4970000  20.1490000  43.0750000
   4.5230000  21.2660000  42.5260000   7.8820000  21.2690000  26.8450000
   3.9370000  21.0270000  45.1360000   5.9600000  21.4230000  44.9270000
   5.0310000  22.5760000  44.3670000   3.7570000  21.5630000  46.5830000
   4.0540000  20.0680000  45.2280000   3.1190000  21.2060000  44.6450000
   2.5250000  21.0330000  47.2920000   4.5800000  21.3810000  47.0620000
   3.6520000  22.5220000  46.4790000   2.4040000  21.6070000  48.7180000
   2.6470000  20.0770000  47.3980000   1.7120000  21.2030000  46.7910000
   3.2230000  21.4420000  49.2120000   2.2800000  22.5630000  48.6070000
   1.2490000  21.0050000  49.4700000   1.0950000  21.6020000  50.8850000
   1.3320000  20.0420000  49.5550000   0.4090000  21.2150000  49.0330000
   1.9100000  21.3440000  51.3450000  -0.0830000  21.0830000  51.6430000
   1.0630000  22.5680000  50.8030000  -0.0460000  20.1230000  51.7140000
  -0.0900000  21.4650000  52.5220000  -0.8850000  21.3340000  51.1770000
   8.3690000  28.2640000  35.5360000   7.2040000  28.8440000  36.6810000
   7.3100000  28.7790000  34.2380000   7.1920000  28.8400000  38.1440000
   6.0720000  29.3120000  36.1250000   7.6310000  28.7070000  32.8650000
   6.1050000  29.2840000  34.6760000   8.1550000  28.4190000  39.0720000
   6.0220000  29.4100000  38.5850000   4.9230000  29.9130000  37.2850000
   6.6850000  29.1120000  31.9350000   8.4490000  28.3600000  32.5920000
   5.1680000  29.7440000  33.7250000   7.8750000  28.6140000  40.4290000
   8.9560000  28.0500000  38.7770000   5.7570000  29.6750000  39.9480000
   5.4730000  29.6660000  32.3640000   7.0060000  29.1040000  30.4710000
   4.3700000  30.1280000  34.0110000   6.7050000  29.2690000  40.8600000
   8.4630000  28.2480000  41.0500000   4.9790000  30.1160000  40.2010000
   4.8490000  29.9490000  31.7350000   7.9970000  28.2740000  29.9770000
   6.3790000  29.9340000  29.5750000   6.5260000  29.5760000  42.3520000
   8.3440000  28.2540000  28.6380000   8.4240000  27.6760000  30.5460000
   6.7010000  29.8710000  28.2030000   5.6910000  30.4820000  29.8790000
   5.3580000  28.8630000  42.9920000   6.4170000  30.5390000  42.3920000
   7.3620000  29.3320000  42.7800000   7.6760000  29.0490000  27.7510000
   9.0400000  27.7230000  28.3240000   6.2580000  30.4440000  27.6200000
   5.1390000  29.3730000  44.4480000   5.4970000  27.9060000  43.0750000
   4.5230000  29.0230000  42.5260000   7.8820000  29.0260000  26.8450000
   3.9370000  28.7840000  45.1360000   5.9600000  29.1800000  44.9270000
   5.0310000  30.3330000  44.3670000   3.7570000  29.3200000  46.5830000
   4.0540000  27.8250000  45.2280000   3.1190000  28.9620000  44.6450000
   2.5250000  28.7900000  47.2920000   4.5800000  29.1380000  47.0620000
   3.6520000  30.2780000  46.4790000   2.4040000  29.3640000  48.7180000
   2.6470000  27.8340000  47.3980000   1.7120000  28.9600000  46.7910000
   3.2230000  29.1990000  49.2120000   2.2800000  30.3190000  48.6070000
   1.2490000  28.7610000  49.4700000   1.0950000  29.3590000  50.8850000
   1.3320000  27.7980000  49.5550000   0.4090000  28.9720000  49.0330000
   1.9100000  29.1010000  51.3450000  -0.0830000  28.8400000  51.6430000
   1.0630000  30.3250000  50.8030000  -0.0460000  27.8800000  51.7140000
  -0.0900000  29.2220000  52.5220000  -0.8850000  29.0900000  51.1770000
   8.3690000  36.0210000  35.5360000   7.2040000  36.6010000  36.6810000
   7.3100000  36.5350000  34.2380000   7.1920000  36.5970000  38.1440000
   6.0720000  37.0690000  36.1250000   7.6310000  36.4640000  32.8650000
   6.1050000  37.0410000  34.6760000   8.1550000  36.1760000  39.0720000
   6.0220000  37.1670000  38.5850000   4.9230000  37.6700000  37.2850000
   6.6850000  36.8690000  31.9350000   8.4490000  36.1170000  32.5920000
   5.1680000  37.5010000  33.7250000   7.8750000  36.3710000  40.4290000
   8.9560000  35.8070000  38.7770000   5.7570000  37.4320000  39.9480000
   5.4730000  37.4230000  32.3640000   7.0060000  36.8610000  30.4710000
   4.3700000  37.8850000  34.0110000   6.7050000  37.0260000  40.8600000
   8.4630000  36.0050000  41.0500000   4.9790000  37.8730000  40.2010000
   4.8490000  37.7060000  31.7350000   7.9970000  36.0310000  29.9770000
   6.3790000  37.6910000  29.5750000   6.5260000  37.3330000  42.3520000
   8.3440000  36.0110000  28.6380000   8.4240000  35.4320000  30.5460000
   6.7010000  37.6270000  28.2030000   5.6910000  38.2390000  29.8790000
   5.3580000  36.6200000  42.9920000   6.4170000  38.2960000  42.3920000
   7.3620000  37.0890000  42.7800000   7.6760000  36.8060000  27.7510000
   9.0400000  35.4790000  28.3240000   6.2580000  38.2010000  27.6200000
   5.1390000  37.1290000  44.4480000   5.4970000  35.6630000  43.0750000
   4.5230000  36.7800000  42.5260000   7.8820000  36.7830000  26.8450000
   3.9370000  36.5410000  45.1360000   5.9600000  36.9370000  44.9270000
   5.0310000  38.0900000  44.3670000   3.7570000  37.0770000  46.5830000
   4.0540000  35.5820000  45.2280000   3.1190000  36.7190000  44.6450000
   2.5250000  36.5470000  47.2920000   4.5800000  36.8950000  47.0620000
   3.6520000  38.0350000  46.4790000   2.4040000  37.1210000  48.7180000
   2.6470000  35.5900000  47.3980000   1.7120000  36.7170000  46.7910000
   3.2230000  36.9560000  49.2120000   2.2800000  38.0760000  48.6070000
   1.2490000  36.5180000  49.4700000   1.0950000  37.1160000  50.8850000
   1.3320000  35.5550000  49.5550000   0.4090000  36.7290000  49.0330000
   1.9100000  36.8580000  51.3450000  -0.0830000  36.5970000  51.6430000
   1.0630000  38.0810000  50.8030000  -0.0460000  35.6370000  51.7140000
  -0.0900000  36.9790000  52.5220000  -0.8850000  36.8470000  51.1770000
   8.3690000  43.7780000  35.5360000   7.2040000  44.3580000  36.6810000
   7.3100000  44.2920000  34.2380000   7.1920000  44.3530000  38.1440000
   6.0720000  44.8260000  36.1250000   7.6310000  44.2210000  32.8650000
   6.1050000  44.7980000  34.6760000   8.1550000  43.9330000  39.0720000
   6.0220000  44.9240000  38.5850000   4.9230000  45.4270000  37.2850000
   6.6850000  44.6260000  31.9350000   8.4490000  43.8730000  32.5920000
   5.1680000  45.2580000  33.7250000   7.8750000  44.1280000  40.4290000
   8.9560000  43.5640000  38.7770000   5.7570000  45.1890000  39.9480000
   5.4730000  45.1790000  32.3640000   7.0060000  44.6180000  30.4710000
   4.3700000  45.6410000  34.0110000   6.7050000  44.7820000  40.8600000
   8.4630000  43.7620000  41.0500000   4.9790000  45.6300000  40.2010000
   4.8490000  45.4630000  31.7350000   7.9970000  43.7880000  29.9770000
   6.3790000  45.4480000  29.5750000   6.5260000  45.0900000  42.3520000
   8.3440000  43.7680000  28.6380000   8.4240000  43.1890000  30.5460000
   6.7010000  45.3840000  28.2030000   5.6910000  45.9960000  29.8790000
   5.3580000  44.3770000  42.9920000   6.4170000  46.0530000  42.3920000
   7.3620000  44.8460000  42.7800000   7.6760000  44.5630000  27.7510000
   9.0400000  43.2360000  28.3240000   6.2580000  45.9580000  27.6200000
   5.1390000  44.8860000  44.4480000   5.4970000  43.4200000  43.0750000
   4.5230000  44.5370000  42.5260000   7.8820000  44.5390000  26.8450000
   3.9370000  44.2980000  45.1360000   5.9600000  44.6940000  44.9270000
   5.0310000  45.8470000  44.3670000   3.7570000  44.8340000  46.5830000
   4.0540000  43.3390000  45.2280000   3.1190000  44.4760000  44.6450000
   2.5250000  44.3040000  47.2920000   4.5800000  44.6520000  47.0620000
   3.6520000  45.7920000  46.4790000   2.4040000  44.8780000  48.7180000
   2.6470000  43.3470000  47.3980000   1.7120000  44.4730000  46.7910000
   3.2230000  44.7130000  49.2120000   2.2800000  45.8330000  48.6070000
   1.2490000  44.2750000  49.4700000   1.0950000  44.8720000  50.8850000
   1.3320000  43.3120000  49.5550000   0.4090000  44.4860000  49.0330000
   1.9100000  44.6150000  51.3450000  -0.0830000  44.3530000  51.6430000
   1.0630000  45.8380000  50.8030000  -0.0460000  43.3930000  51.7140000
  -0.0900000  44.7360000  52.5220000  -0.8850000  44.6040000  51.1770000
  11.5110000   4.9940000  88.5810000  10.3460000   5.5740000  89.7250000
  10.4520000   5.5080000  87.2820000  10.3340000   5.5690000  91.1890000
   9.2140000   6.0420000  89.1700000  10.7730000   5.4370000  85.9100000
   9.2470000   6.0140000  87.7200000  11.2960000   5.1490000  92.1160000
   9.1640000   6.1400000  91.6300000   8.0650000   6.6430000  90.3290000
   9.8270000   5.8420000  84.9800000  11.5910000   5.0890000  85.6360000
   8.3090000   6.4740000  86.7690000  11.0170000   5.3440000  93.4740000
  12.0980000   4.7800000  91.8220000   8.8990000   6.4050000  92.9930000
   8.6150000   6.3950000  85.4090000  10.1480000   5.8340000  83.5150000
   7.5120000   6.8570000  87.0560000   9.8470000   5.9980000  93.9050000
  11.6050000   4.9780000  94.0950000   8.1210000   6.8460000  93.2460000
   7.9900000   6.6790000  84.7800000  11.1380000   5.0040000  83.0220000
   9.5200000   6.6640000  82.6190000   9.6680000   6.3060000  95.3960000
  11.4860000   4.9840000  81.6830000  11.5660000   4.4050000  83.5900000
   9.8430000   6.6000000  81.2480000   8.8330000   7.2120000  82.9230000
   8.5000000   5.5930000  96.0370000   9.5590000   7.2690000  95.4370000
  10.5040000   6.0620000  95.8240000  10.8180000   5.7790000  80.7960000
  12.1820000   4.4520000  81.3680000   9.4000000   7.1740000  80.6650000
   8.2810000   6.1020000  97.4920000   8.6380000   4.6360000  96.1190000
   7.6650000   5.7530000  95.5710000  11.0240000   5.7550000  79.8890000
   7.0790000   5.5140000  98.1800000   9.1020000   5.9100000  97.9710000
   8.1720000   7.0630000  97.4120000   6.8990000   6.0500000  99.6270000
   7.1960000   4.5550000  98.2730000   6.2610000   5.6920000  97.6900000
   5.6670000   5.5200000 100.3370000   7.7220000   5.8680000 100.1070000
   6.7930000   7.0080000  99.5230000   5.5460000   6.0940000 101.7630000
   5.7890000   4.5630000 100.4420000   4.8540000   5.6890000  99.8350000
   6.3640000   5.9290000 102.2560000   5.4210000   7.0490000 101.6520000
   4.3910000   5.4910000 102.5150000   4.2370000   6.0880000 103.9300000
   4.4740000   4.5280000 102.6000000   3.5510000   5.7020000 102.0780000
   5.0520000   5.8310000 104.3900000   3.0590000   5.5690000 104.6880000
   4.2050000   7.0540000 103.8480000   3.0950000   4.6090000 104.7590000
   3.0520000   5.9520000 105.5670000   2.2570000   5.8200000 104.2220000
  11.5110000  12.7510000  88.5810000  10.3460000  13.3310000  89.7250000
  10.4520000  13.2650000  87.2820000  10.3340000  13.3260000  91.1890000
   9.2140000  13.7990000  89.1700000  10.7730000  13.1940000  85.9100000
   9.2470000  13.7710000  87.7200000  11.2960000  12.9060000  92.1160000
   9.1640000  13.8960000  91.6300000   8.0650000  14.4000000  90.3290000
   9.8270000  13.5980000  84.9800000  11.5910000  12.8460000  85.6360000
   8.3090000  14.2310000  86.7690000  11.0170000  13.1000000  93.4740000
  12.0980000  12.5360000  91.8220000   8.8990000  14.1620000  92.9930000
   8.6150000  14.1520000  85.4090000  10.1480000  13.5910000  83.5150000
   7.5120000  14.6140000  87.0560000   9.8470000  13.7550000  93.9050000
  11.6050000  12.7350000  94.0950000   8.1210000  14.6030000  93.2460000
   7.9900000  14.4350000  84.7800000  11.1380000  12.7610000  83.0220000
   9.5200000  14.4210000  82.6190000   9.6680000  14.0620000  95.3960000
  11.4860000  12.7410000  81.6830000  11.5660000  12.1620000  83.5900000
   9.8430000  14.3570000  81.2480000   8.8330000  14.9680000  82.9230000
   8.5000000  13.3490000  96.0370000   9.5590000  15.0250000  95.4370000
  10.5040000  13.8190000  95.8240000  10.8180000  13.5360000  80.7960000
  12.1820000  12.2090000  81.3680000   9.4000000  14.9310000  80.6650000
   8.2810000  13.8590000  97.4920000   8.6380000  12.3930000  96.1190000
   7.6650000  13.5100000  95.5710000  11.0240000  13.5120000  79.8890000
   7.0790000  13.2700000  98.1800000   9.1020000  13.6660000  97.9710000
   8.1720000  14.8190000  97.4120000   6.8990000  13.8060000  99.6270000
   7.1960000  12.3120000  98.2730000   6.2610000  13.4490000  97.6900000
   5.6670000  13.2770000 100.3370000   7.7220000  13.6250000 100.1070000
   6.7930000  14.7650000  99.5230000   5.5460000  13.8510000 101.7630000
   5.7890000  12.3200000 100.4420000   4.8540000  13.4460000  99.8350000
   6.3640000  13.6850000 102.2560000   5.4210000  14.8060000 101.6520000
   4.3910000  13.2480000 102.5150000   4.2370000  13.8450000 103.9300000
   4.4740000  12.2850000 102.6000000   3.5510000  13.4590000 102.0780000
   5.0520000  13.5880000 104.3900000   3.0590000  13.3260000 104.6880000
   4.2050000  14.8110000 103.8480000   3.0950000  12.3660000 104.7590000
   3.0520000  13.7090000 105.5670000   2.2570000  13.5770000 104.2220000
  11.5110000  20.5070000  88.5810000  10.3460000  21.0880000  89.7250000
  10.4520000  21.0220000  87.2820000  10.3340000  21.0830000  91.1890000
   9.2140000  21.5550000  89.1700000  10.7730000  20.9500000  85.9100000
   9.2470000  21.5270000  87.7200000  11.2960000  20.6630000  92.1160000
   9.1640000  21.6530000  91.6300000   8.0650000  22.1570000  90.3290000
   9.8270000  21.3550000  84.9800000  11.5910000  20.6030000  85.6360000
   8.3090000  21.9870000  86.7690000  11.0170000  20.8570000  93.4740000
  12.0980000  20.2930000  91.8220000   8.8990000  21.9180000  92.9930000
   8.6150000  21.9090000  85.4090000  10.1480000  21.3470000  83.5150000
   7.5120000  22.3710000  87.0560000   9.8470000  21.5120000  93.9050000
  11.6050000  20.4920000  94.0950000   8.1210000  22.3600000  93.2460000
   7.9900000  22.1920000  84.7800000  11.1380000  20.5180000  83.0220000
   9.5200000  22.1770000  82.6190000   9.6680000  21.8190000  95.3960000
  11.4860000  20.4970000  81.6830000  11.5660000  19.9190000  83.5900000
   9.8430000  22.1140000  81.2480000   8.8330000  22.7250000  82.9230000
   8.5000000  21.1060000  96.0370000   9.5590000  22.7820000  95.4370000
  10.5040000  21.5760000  95.8240000  10.8180000  21.2920000  80.7960000
  12.1820000  19.9660000  81.3680000   9.4000000  22.6870000  80.6650000
   8.2810000  21.6160000  97.4920000   8.6380000  20.1490000  96.1190000
   7.6650000  21.2660000  95.5710000  11.0240000  21.2690000  79.8890000
   7.0790000  21.0270000  98.1800000   9.1020000  21.4230000  97.9710000
   8.1720000  22.5760000  97.4120000   6.8990000  21.5630000  99.6270000
   7.1960000  20.0680000  98.2730000   6.2610000  21.2060000  97.6900000
   5.6670000  21.0330000 100.3370000   7.7220000  21.3810000 100.1070000
   6.7930000  22.5220000  99.5230000   5.5460000  21.6070000 101.7630000
   5.7890000  20.0770000 100.4420000   4.8540000  21.2030000  99.8350000
   6.3640000  21.4420000 102.2560000   5.4210000  22.5630000 101.6520000
   4.3910000  21.0050000 102.5150000   4.2370000  21.6020000 103.9300000
   4.4740000  20.0420000 102.6000000   3.5510000  21.2150000 102.0780000
   5.0520000  21.3440000 104.3900000   3.0590000  21.0830000 104.6880000
   4.2050000  22.5680000 103.8480000   3.0950000  20.1230000 104.7590000
   3.0520000  21.4650000 105.5670000   2.2570000  21.3340000 104.2220000
  11.5110000  28.2640000  88.5810000  10.3460000  28.8440000  89.7250000
  10.4520000  28.7790000  87.2820000  10.3340000  28.8400000  91.1890000
   9.2140000  29.3120000  89.1700000  10.7730000  28.7070000  85.9100000
   9.2470000  29.2840000  87.7200000  11.2960000  28.4190000  92.1160000
   9.1640000  29.4100000  91.6300000   8.0650000  29.9130000  90.3290000
   9.8270000  29.1120000  84.9800000  11.5910000  28.3600000  85.6360000
   8.3090000  29.7440000  86.7690000  11.0170000  28.6140000  93.4740000
  12.0980000  28.0500000  91.8220000   8.8990000  29.6750000  92.9930000
   8.6150000  29.6660000  85.4090000  10.1480000  29.1040000  83.5150000
   7.5120000  30.1280000  87.0560000   9.8470000  29.2690000  93.9050000
  11.6050000  28.2480000  94.0950000   8.1210000  30.1160000  93.2460000
   7.9900000  29.9490000  84.7800000  11.1380000  28.2740000  83.0220000
   9.5200000  29.9340000  82.6190000   9.6680000  29.5760000  95.3960000
  11.4860000  28.2540000  81.6830000  11.5660000  27.6760000  83.5900000
   9.8430000  29.8710000  81.2480000   8.8330000  30.4820000  82.9230000
   8.5000000  28.8630000  96.0370000   9.5590000  30.5390000  95.4370000
  10.5040000  29.3320000  95.8240000  10.8180000  29.0490000  80.7960000
  12.1820000  27.7230000  81.3680000   9.4000000  30.4440000  80.6650000
   8.2810000  29.3730000  97.4920000   8.6380000  27.9060000  96.1190000
   7.6650000  29.0230000  95.5710000  11.0240000  29.0260000  79.8890000
   7.0790000  28.7840000  98.1800000   9.1020000  29.1800000  97.9710000
   8.1720000  30.3330000  97.4120000   6.8990000  29.3200000  99.6270000
   7.1960000  27.8250000  98.2730000   6.2610000  28.9620000  97.6900000
   5.6670000  28.7900000 100.3370000   7.7220000  29.1380000 100.1070000
   6.7930000  30.2780000  99.5230000   5.5460000  29.3640000 101.7630000
   5.7890000  27.8340000 100.4420000   4.8540000  28.9600000  99.8350000
   6.3640000  29.1990000 102.2560000   5.4210000  30.3190000 101.6520000
   4.3910000  28.7610000 102.5150000   4.2370000  29.3590000 103.9300000
   4.4740000  27.7980000 102.6000000   3.5510000  28.9720000 102.0780000
   5.0520000  29.1010000 104.3900000   3.0590000  28.8400000 104.6880000
   4.2050000  30.3250000 103.8480000   3.0950000  27.8800000 104.7590000
   3.0520000  29.2220000 105.5670000   2.2570000  29.0900000 104.2220000
  11.5110000  36.0210000  88.5810000  10.3460000  36.6010000  89.7250000
  10.4520000  36.5350000  87.2820000  10.3340000  36.5970000  91.1890000
   9.2140000  37.0690000  89.1700000  10.7730000  36.4640000  85.9100000
   9.2470000  37.0410000  87.7200000  11.2960000  36.1760000  92.1160000
   9.1640000  37.1670000  91.6300000   8.0650000  37.6700000  90.3290000
   9.8270000  36.8690000  84.9800000  11.5910000  36.1170000  85.6360000
   8.3090000  37.5010000  86.7690000  11.0170000  36.3710000  93.4740000
  12.0980000  35.8070000  91.8220000   8.8990000  37.4320000  92.9930000
   8.6150000  37.4230000  85.4090000  10.1480000  36.8610000  83.5150000
   7.5120000  37.8850000  87.0560000   9.8470000  37.0260000  93.9050000
  11.6050000  36.0050000  94.0950000   8.1210000  37.8730000  93.2460000
   7.9900000  37.7060000  84.7800000  11.1380000  36.0310000  83.0220000
   9.5200000  37.6910000  82.6190000   9.6680000  37.3330000  95.3960000
  11.4860000  36.0110000  81.6830000  11.5660000  35.4320000  83.5900000
   9.8430000  37.6270000  81.2480000   8.8330000  38.2390000  82.9230000
   8.5000000  36.6200000  96.0370000   9.5590000  38.2960000  95.4370000
  10.5040000  37.0890000  95.8240000  10.8180000  36.8060000  80.7960000
  12.1820000  35.4790000  81.3680000   9.4000000  38.2010000  80.6650000
   8.2810000  37.1290000  97.4920000   8.6380000  35.6630000  96.1190000
   7.6650000  36.7800000  95.5710000  11.0240000  36.7830000  79.8890000
   7.0790000  36.5410000  98.1800000   9.1020000  36.9370000  97.9710000
   8.1720000  38.0900000  97.4120000   6.8990000  37.0770000  99.6270000
   7.1960000  35.5820000  98.2730000   6.2610000  36.7190000  97.6900000
   5.6670000  36.5470000 100.3370000   7.7220000  36.8950000 100.1070000
   6.7930000  38.0350000  99.5230000   5.5460000  37.1210000 101.7630000
   5.7890000  35.5900000 100.4420000   4.8540000  36.7170000  99.8350000
   6.3640000  36.9560000 102.2560000   5.4210000  38.0760000 101.6520000
   4.3910000  36.5180000 102.5150000   4.2370000  37.1160000 103.9300000
   4.4740000  35.5550000 102.6000000   3.5510000  36.7290000 102.0780000
   5.0520000  36.8580000 104.3900000   3.0590000  36.5970000 104.6880000
   4.2050000  38.0810000 103.8480000   3.0950000  35.6370000 104.7590000
   3.0520000  36.9790000 105.5670000   2.2570000  36.8470000 104.2220000
  11.5110000  43.7780000  88.5810000  10.3460000  44.3580000  89.7250000
  10.4520000  44.2920000  87.2820000  10.3340000  44.3530000  91.1890000
   9.2140000  44.8260000  89.1700000  10.7730000  44.2210000  85.9100000
   9.2470000  44.7980000  87.7200000  11.2960000  43.9330000  92.1160000
   9.1640000  44.9240000  91.6300000   8.0650000  45.4270000  90.3290000
   9.8270000  44.6260000  84.9800000  11.5910000  43.8730000  85.6360000
   8.3090000  45.2580000  86.7690000  11.0170000  44.1280000  93.4740000
  12.0980000  43.5640000  91.8220000   8.8990000  45.1890000  92.9930000
   8.6150000  45.1790000  85.4090000  10.1480000  44.6180000  83.5150000
   7.5120000  45.6410000  87.0560000   9.8470000  44.7820000  93.9050000
  11.6050000  43.7620000  94.0950000   8.1210000  45.6300000  93.2460000
   7.9900000  45.4630000  84.7800000  11.1380000  43.7880000  83.0220000
   9.5200000  45.4480000  82.6190000   9.6680000  45.0900000  95.3960000
  11.4860000  43.7680000  81.6830000  11.5660000  43.1890000  83.5900000
   9.8430000  45.3840000  81.2480000   8.8330000  45.9960000  82.9230000
   8.5000000  44.3770000  96.0370000   9.5590000  46.0530000  95.4370000
  10.5040000  44.8460000  95.8240000  10.8180000  44.5630000  80.7960000
  12.1820000  43.2360000  81.3680000   9.4000000  45.9580000  80.6650000
   8.2810000  44.8860000  97.4920000   8.6380000  43.4200000  96.1190000
   7.6650000  44.5370000  95.5710000  11.0240000  44.5390000  79.8890000
   7.0790000  44.2980000  98.1800000   9.1020000  44.6940000  97.9710000
   8.1720000  45.8470000  97.4120000   6.8990000  44.8340000  99.6270000
   7.1960000  43.3390000  98.2730000   6.2610000  44.4760000  97.6900000
   5.6670000  44.3040000 100.3370000   7.7220000  44.6520000 100.1070000
   6.7930000  45.7920000  99.5230000   5.5460000  44.8780000 101.7630000
   5.7890000  43.3470000 100.4420000   4.8540000  44.4730000  99.8350000
   6.3640000  44.7130000 102.2560000   5.4210000  45.8330000 101.6520000
   4.3910000  44.2750000 102.5150000   4.2370000  44.8720000 103.9300000
   4.4740000  43.3120000 102.6000000   3.5510000  44.4860000 102.0780000
   5.0520000  44.6150000 104.3900000   3.0590000  44.3530000 104.6880000
   4.2050000  45.8380000 103.8480000   3.0950000  43.3930000 104.7590000
   3.0520000  44.7360000 105.5670000   2.2570000  44.6040000 104.2220000
  14.4160000   4.9940000  35.5360000  13.2510000   5.5740000  36.6810000
  13.3570000   5.5080000  34.2380000  13.2390000   5.5690000  38.1440000
  12.1190000   6.0420000  36.1250000  13.6780000   5.4370000  32.8650000
  12.1520000   6.0140000  34.6760000  14.2020000   5.1490000  39.0720000
  12.0700000   6.1400000  38.5850000  10.9700000   6.6430000  37.2850000
  12.7320000   5.8420000  31.9350000  14.4960000   5.0890000  32.5920000
  11.2150000   6.4740000  33.7250000  13.9220000   5.3440000  40.4290000
  15.0030000   4.7800000  38.7770000  11.8040000   6.4050000  39.9480000
  11.5200000   6.3950000  32.3640000  13.0530000   5.8340000  30.4710000
  10.4170000   6.8570000  34.0110000  12.7520000   5.9980000  40.8600000
  14.5100000   4.9780000  41.0500000  11.0260000   6.8460000  40.2010000
  10.8960000   6.6790000  31.7350000  14.0440000   5.0040000  29.9770000
  12.4260000   6.6640000  29.5750000  12.5730000   6.3060000  42.3520000
  14.3920000   4.9840000  28.6380000  14.4710000   4.4050000  30.5460000
  12.7480000   6.6000000  28.2030000  11.7380000   7.2120000  29.8790000
  11.4050000   5.5930000  42.9920000  12.4640000   7.2690000  42.3920000
  13.4090000   6.0620000  42.7800000  13.7240000   5.7790000  27.7510000
  15.0870000   4.4520000  28.3240000  12.3050000   7.1740000  27.6200000
  11.1860000   6.1020000  44.4480000  11.5440000   4.6360000  43.0750000
  10.5700000   5.7530000  42.5260000  13.9290000   5.7550000  26.8450000
   9.9840000   5.5140000  45.1360000  12.0070000   5.9100000  44.9270000
  11.0780000   7.0630000  44.3670000   9.8040000   6.0500000  46.5830000
  10.1010000   4.5550000  45.2280000   9.1660000   5.6920000  44.6450000
   8.5720000   5.5200000  47.2920000  10.6270000   5.8680000  47.0620000
   9.6990000   7.0080000  46.4790000   8.4510000   6.0940000  48.7180000
   8.6940000   4.5630000  47.3980000   7.7600000   5.6890000  46.7910000
   9.2700000   5.9290000  49.2120000   8.3270000   7.0490000  48.6070000
   7.2960000   5.4910000  49.4700000   7.1420000   6.0880000  50.8850000
   7.3790000   4.5280000  49.5550000   6.4560000   5.7020000  49.0330000
   7.9570000   5.8310000  51.3450000   5.9640000   5.5690000  51.6430000
   7.1100000   7.0540000  50.8030000   6.0010000   4.6090000  51.7140000
   5.9570000   5.9520000  52.5220000   5.1620000   5.8200000  51.1770000
  14.4160000  12.7510000  35.5360000  13.2510000  13.3310000  36.6810000
  13.3570000  13.2650000  34.2380000  13.2390000  13.3260000  38.1440000
  12.1190000  13.7990000  36.1250000  13.6780000  13.1940000  32.8650000
  12.1520000  13.7710000  34.6760000  14.2020000  12.9060000  39.0720000
  12.0700000  13.8960000  38.5850000  10.9700000  14.4000000  37.2850000
  12.7320000  13.5980000  31.9350000  14.4960000  12.8460000  32.5920000
  11.2150000  14.2310000  33.7250000  13.9220000  13.1000000  40.4290000
  15.0030000  12.5360000  38.7770000  11.8040000  14.1620000  39.9480000
  11.5200000  14.1520000  32.3640000  13.0530000  13.5910000  30.4710000
  10.4170000  14.6140000  34.0110000  12.7520000  13.7550000  40.8600000
  14.5100000  12.7350000  41.0500000  11.0260000  14.6030000  40.2010000
  10.8960000  14.4350000  31.7350000  14.0440000  12.7610000  29.9770000
  12.4260000  14.4210000  29.5750000  12.5730000  14.0620000  42.3520000
  14.3920000  12.7410000  28.6380000  14.4710000  12.1620000  30.5460000
  12.7480000  14.3570000  28.2030000  11.7380000  14.9680000  29.8790000
  11.4050000  13.3490000  42.9920000  12.4640000  15.0250000  42.3920000
  13.4090000  13.8190000  42.7800000  13.7240000  13.5360000  27.7510000
  15.0870000  12.2090000  28.3240000  12.3050000  14.9310000  27.6200000
  11.1860000  13.8590000  44.4480000  11.5440000  12.3930000  43.0750000
  10.5700000  13.5100000  42.5260000  13.9290000  13.5120000  26.8450000
   9.9840000  13.2700000  45.1360000  12.0070000  13.6660000  44.9270000
  11.0780000  14.8190000  44.3670000   9.8040000  13.8060000  46.5830000
  10.1010000  12.3120000  45.2280000   9.1660000  13.4490000  44.6450000
   8.5720000  13.2770000  47.2920000  10.6270000  13.6250000  47.0620000
   9.6990000  14.7650000  46.4790000   8.4510000  13.8510000  48.7180000
   8.6940000  12.3200000  47.3980000   7.7600000  13.4460000  46.7910000
   9.2700000  13.6850000  49.2120000   8.3270000  14.8060000  48.6070000
   7.2960000  13.2480000  49.4700000   7.1420000  13.8450000  50.8850000
   7.3790000  12.2850000  49.5550000   6.4560000  13.4590000  49.0330000
   7.9570000  13.5880000  51.3450000   5.9640000  13.3260000  51.6430000
   7.1100000  14.8110000  50.8030000   6.0010000  12.3660000  51.7140000
   5.9570000  13.7090000  52.5220000   5.1620000  13.5770000  51.1770000
  14.4160000  20.5070000  35.5360000  13.2510000  21.0880000  36.6810000
  13.3570000  21.0220000  34.2380000  13.2390000  21.0830000  38.1440000
  12.1190000  21.5550000  36.1250000  13.6780000  20.9500000  32.8650000
  12.1520000  21.5270000  34.6760000  14.2020000  20.6630000  39.0720000
  12.0700000  21.6530000  38.5850000  10.9700000  22.1570000  37.2850000
  12.7320000  21.3550000  31.9350000  14.4960000  20.6030000  32.5920000
  11.2150000  21.9870000  33.7250000  13.9220000  20.8570000  40.4290000
  15.0030000  20.2930000  38.7770000  11.8040000  21.9180000  39.9480000
  11.5200000  21.9090000  32.3640000  13.0530000  21.3470000  30.4710000
  10.4170000  22.3710000  34.0110000  12.7520000  21.5120000  40.8600000
  14.5100000  20.4920000  41.0500000  11.0260000  22.3600000  40.2010000
  10.8960000  22.1920000  31.7350000  14.0440000  20.5180000  29.9770000
  12.4260000  22.1770000  29.5750000  12.5730000  21.8190000  42.3520000
  14.3920000  20.4970000  28.6380000  14.4710000  19.9190000  30.5460000
  12.7480000  22.1140000  28.2030000  11.7380000  22.7250000  29.8790000
  11.4050000  21.1060000  42.9920000  12.4640000  22.7820000  42.3920000
  13.4090000  21.5760000  42.7800000  13.7240000  21.2920000  27.7510000
  15.0870000  19.9660000  28.3240000  12.3050000  22.6870000  27.6200000
  11.1860000  21.6160000  44.4480000  11.5440000  20.1490000  43.0750000
  10.5700000  21.2660000  42.5260000  13.9290000  21.2690000  26.8450000
   9.9840000  21.0270000  45.1360000  12.0070000  21.4230000  44.9270000
  11.0780000  22.5760000  44.3670000   9.8040000  21.5630000  46.5830000
  10.1010000  20.0680000  45.2280000   9.1660000  21.2060000  44.6450000
   8.5720000  21.0330000  47.2920000  10.6270000  21.3810000  47.0620000
   9.6990000  22.5220000  46.4790000   8.4510000  21.6070000  48.7180000
   8.6940000  20.0770000  47.3980000   7.7600000  21.2030000  46.7910000
   9.2700000  21.4420000  49.2120000   8.3270000  22.5630000  48.6070000
   7.2960000  21.0050000  49.4700000   7.1420000  21.6020000  50.8850000
   7.3790000  20.0420000  49.5550000   6.4560000  21.2150000  49.0330000
   7.9570000  21.3440000  51.3450000   5.9640000  21.0830000  51.6430000
   7.1100000  22.5680000  50.8030000   6.0010000  20.1230000  51.7140000
   5.9570000  21.4650000  52.5220000   5.1620000  21.3340000  51.1770000
  14.4160000  28.2640000  35.5360000  13.2510000  28.8440000  36.6810000
  13.3570000  28.7790000  34.2380000  13.2390000  28.8400000  38.1440000
  12.1190000  29.3120000  36.1250000  13.6780000  28.7070000  32.8650000
  12.1520000  29.2840000  34.6760000  14.2020000  28.4190000  39.0720000
  12.0700000  29.4100000  38.5850000  10.9700000  29.9130000  37.2850000
  12.7320000  29.1120000  31.9350000  14.4960000  28.3600000  32.5920000
  11.2150000  29.7440000  33.7250000  13.9220000  28.6140000  40.4290000
  15.0030000  28.0500000  38.7770000  11.8040000  29.6750000  39.9480000
  11.5200000  29.6660000  32.3640000  13.0530000  29.1040000  30.4710000
  10.4170000  30.1280000  34.0110000  12.7520000  29.2690000  40.8600000
  14.5100000  28.2480000  41.0500000  11.0260000  30.1160000  40.2010000
  10.8960000  29.9490000  31.7350000  14.0440000  28.2740000  29.9770000
  12.4260000  29.9340000  29.5750000  12.5730000  29.5760000  42.3520000
  14.3920000  28.2540000  28.6380000  14.4710000  27.6760000  30.5460000
  12.7480000  29.8710000  28.2030000  11.7380000  30.4820000  29.8790000
  11.4050000  28.8630000  42.9920000  12.4640000  30.5390000  42.3920000
  13.4090000  29.3320000  42.7800000  13.7240000  29.0490000  27.7510000
  15.0870000  27.7230000  28.3240000  12.3050000  30.4440000  27.6200000
  11.1860000  29.3730000  44.4480000  11.5440000  27.9060000  43.0750000
  10.5700000  29.0230000  42.5260000  13.9290000  29.0260000  26.8450000
   9.9840000  28.7840000  45.1360000  12.0070000  29.1800000  44.9270000
  11.0780000  30.3330000  44.3670000   9.8040000  29.3200000  46.5830000
  10.1010000  27.8250000  45.2280000   9.1660000  28.9620000  44.6450000
   8.5720000  28.7900000  47.2920000  10.6270000  29.1380000  47.0620000
   9.6990000  30.2780000  46.4790000   8.4510000  29.3640000  48.7180000
   8.6940000  27.8340000  47.3980000   7.7600000  28.9600000  46.7910000
   9.2700000  29.1990000  49.2120000   8.3270000  30.3190000  48.6070000
   7.2960000  28.7610000  49.4700000   7.1420000  29.3590000  50.8850000
   7.3790000  27.7980000  49.5550000   6.4560000  28.9720000  49.0330000
   7.9570000  29.1010000  51.3450000   5.9640000  28.8400000  51.6430000
   7.1100000  30.3250000  50.8030000   6.0010000  27.8800000  51.7140000
   5.9570000  29.2220000  52.5220000   5.1620000  29.0900000  51.1770000
  14.4160000  36.0210000  35.5360000  13.2510000  36.6010000  36.6810000
  13.3570000  36.5350000  34.2380000  13.2390000  36.5970000  38.1440000
  12.1190000  37.0690000  36.1250000  13.6780000  36.4640000  32.8650000
  12.1520000  37.0410000  34.6760000  14.2020000  36.1760000  39.0720000
  12.0700000  37.1670000  38.5850000  10.9700000  37.6700000  37.2850000
  12.7320000  36.8690000  31.9350000  14.4960000  36.1170000  32.5920000
  11.2150000  37.5010000  33.7250000  13.9220000  36.3710000  40.4290000
  15.0030000  35.8070000  38.7770000  11.8040000  37.4320000  39.9480000
  11.5200000  37.4230000  32.3640000  13.0530000  36.8610000  30.4710000
  10.4170000  37.8850000  34.0110000  12.7520000  37.0260000  40.8600000
  14.5100000  36.0050000  41.0500000  11.0260000  37.8730000  40.2010000
  10.8960000  37.7060000  31.7350000  14.0440000  36.0310000  29.9770000
  12.4260000  37.6910000  29.5750000  12.5730000  37.3330000  42.3520000
  14.3920000  36.0110000  28.6380000  14.4710000  35.4320000  30.5460000
  12.7480000  37.6270000  28.2030000  11.7380000  38.2390000  29.8790000
  11.4050000  36.6200000  42.9920000  12.4640000  38.2960000  42.3920000
  13.4090000  37.0890000  42.7800000  13.7240000  36.8060000  27.7510000
  15.0870000  35.4790000  28.3240000  12.3050000  38.2010000  27.6200000
  11.1860000  37.1290000  44.4480000  11.5440000  35.6630000  43.0750000
  10.5700000  36.7800000  42.5260000  13.9290000  36.7830000  26.8450000
   9.9840000  36.5410000  45.1360000  12.0070000  36.9370000  44.9270000
  11.0780000  38.0900000  44.3670000   9.8040000  37.0770000  46.5830000
  10.1010000  35.5820000  45.2280000   9.1660000  36.7190000  44.6450000
   8.5720000  36.5470000  47.2920000  10.6270000  36.8950000  47.0620000
   9.6990000  38.0350000  46.4790000   8.4510000  37.1210000  48.7180000
   8.6940000  35.5900000  47.3980000   7.7600000  36.7170000  46.7910000
   9.2700000  36.9560000  49.2120000   8.3270000  38.0760000  48.6070000
   7.2960000  36.5180000  49.4700000   7.1420000  37.1160000  50.8850000
   7.3790000  35.5550000  49.5550000   6.4560000  36.7290000  49.0330000
   7.9570000  36.8580000  51.3450000   5.9640000  36.5970000  51.6430000
   7.1100000  38.0810000  50.8030000   6.0010000  35.6370000  51.7140000
   5.9570000  36.9790000  52.5220000   5.1620000  36.8470000  51.1770000
  14.4160000  43.7780000  35.5360000  13.2510000  44.3580000  36.6810000
  13.3570000  44.2920000  34.2380000  13.2390000  44.3530000  38.1440000
  12.1190000  44.8260000  36.1250000  13.6780000  44.2210000  32.8650000
  12.1520000  44.7980000  34.6760000  14.2020000  43.9330000  39.0720000
  12.0700000  44.9240000  38.5850000  10.9700000  45.4270000  37.2850000
  12.7320000  44.6260000  31.9350000  14.4960000  43.8730000  32.5920000
  11.2150000  45.2580000  33.7250000  13.9220000  44.1280000  40.4290000
  15.0030000  43.5640000  38.7770000  11.8040000  45.1890000  39.9480000
  11.5200000  45.1790000  32.3640000  13.0530000  44.6180000  30.4710000
  10.4170000  45.6410000  34.0110000  12.7520000  44.7820000  40.8600000
  14.5100000  43.7620000  41.0500000  11.0260000  45.6300000  40.2010000
  10.8960000  45.4630000  31.7350000  14.0440000  43.7880000  29.9770000
  12.4260000  45.4480000  29.5750000  12.5730000  45.0900000  42.3520000
  14.3920000  43.7680000  28.6380000  14.4710000  43.1890000  30.5460000
  12.7480000  45.3840000  28.2030000  11.7380000  45.9960000  29.8790000
  11.4050000  44.3770000  42.9920000  12.4640000  46.0530000  42.3920000
  13.4090000  44.8460000  42.7800000  13.7240000  44.5630000  27.7510000
  15.0870000  43.2360000  28.3240000  12.3050000  45.9580000  27.6200000
  11.1860000  44.8860000  44.4480000  11.5440000  43.4200000  43.0750000
  10.5700000  44.5370000  42.5260000  13.9290000  44.5390000  26.8450000
   9.9840000  44.2980000  45.1360000  12.0070000  44.6940000  44.9270000
  11.0780000  45.8470000  44.3670000   9.8040000  44.8340000  46.5830000
  10.1010000  43.3390000  45.2280000   9.1660000  44.4760000  44.6450000
   8.5720000  44.3040000  47.2920000  10.6270000  44.6520000  47.0620000
   9.6990000  45.7920000  46.4790000   8.4510000  44.8780000  48.7180000
   8.6940000  43.3470000  47.3980000   7.7600000  44.4730000  46.7910000
   9.2700000  44.7130000  49.2120000   8.3270000  45.8330000  48.6070000
   7.2960000  44.2750000  49.4700000   7.1420000  44.8720000  50.8850000
   7.3790000  43.3120000  49.5550000   6.4560000  44.4860000  49.0330000
   7.9570000  44.6150000  51.3450000   5.9640000  44.3530000  51.6430000
   7.1100000  45.8380000  50.8030000   6.0010000  43.3930000  51.7140000
   5.9570000  44.7360000  52.5220000   5.1620000  44.6040000  51.1770000
   9.8910000   6.6410000  17.5080000  11.0550000   6.0610000  16.3640000
  10.9490000   6.1270000  18.8070000  11.0680000   6.0660000  14.9000000
  12.1880000   5.5930000  16.9190000  10.6290000   6.1980000  20.1790000
  12.1550000   5.6210000  18.3690000  10.1050000   6.4860000  13.9730000
  12.2370000   5.4960000  14.4590000  13.3360000   4.9920000  15.7600000
  11.5750000   5.7940000  21.1090000   9.8100000   6.5460000  20.4530000
  13.0920000   5.1610000  19.3200000  10.3840000   6.2920000  12.6150000
   9.3040000   6.8560000  14.2670000  12.5020000   5.2300000  13.0960000
  12.7870000   5.2400000  20.6800000  11.2530000   5.8010000  22.5740000
  13.8900000   4.7780000  19.0330000  11.5540000   5.6370000  12.1840000
   9.7960000   6.6570000  11.9940000  13.2800000   4.7890000  12.8430000
  13.4110000   4.9570000  21.3090000  10.2630000   6.6310000  23.0670000
  11.8810000   4.9710000  23.4700000  11.7340000   5.3300000  10.6930000
   9.9150000   6.6510000  24.4060000   9.8360000   7.2300000  22.4990000
  11.5580000   5.0350000  24.8410000  12.5690000   4.4240000  23.1660000
  12.9010000   6.0430000  10.0520000  11.8430000   4.3670000  10.6520000
  10.8970000   5.5730000  10.2650000  10.5830000   5.8560000  25.2930000
   9.2200000   7.1830000  24.7210000  12.0020000   4.4610000  25.4240000
  13.1210000   5.5330000   8.5970000  12.7630000   6.9990000   9.9700000
  13.7370000   5.8820000  10.5180000  10.3770000   5.8800000  26.2000000
  14.3220000   6.1220000   7.9090000  12.3000000   5.7260000   8.1180000
  13.2290000   4.5730000   8.6770000  14.5030000   5.5860000   6.4620000
  14.2050000   7.0800000   7.8160000  15.1400000   5.9430000   8.3990000
  15.7350000   6.1150000   5.7520000  13.6800000   5.7670000   5.9820000
  14.6080000   4.6270000   6.5660000  15.8560000   5.5410000   4.3260000
  15.6130000   7.0720000   5.6470000  16.5470000   5.9460000   6.2540000
  15.0370000   5.7070000   3.8330000  15.9800000   4.5860000   4.4370000
  17.0110000   6.1440000   3.5740000  17.1640000   5.5470000   2.1590000
  16.9270000   7.1070000   3.4890000  17.8500000   5.9330000   4.0110000
  16.3490000   5.8040000   1.6990000  18.3430000   6.0660000   1.4010000
  17.1970000   4.5810000   2.2410000  18.3060000   7.0260000   1.3300000
  18.3500000   5.6830000   0.5220000  19.1440000   5.8150000   1.8670000
   9.8910000  14.3980000  17.5080000  11.0550000  13.8180000  16.3640000
  10.9490000  13.8840000  18.8070000  11.0680000  13.8230000  14.9000000
  12.1880000  13.3500000  16.9190000  10.6290000  13.9550000  20.1790000
  12.1550000  13.3780000  18.3690000  10.1050000  14.2430000  13.9730000
  12.2370000  13.2520000  14.4590000  13.3360000  12.7490000  15.7600000
  11.5750000  13.5500000  21.1090000   9.8100000  14.3030000  20.4530000
  13.0920000  12.9180000  19.3200000  10.3840000  14.0480000  12.6150000
   9.3040000  14.6120000  14.2670000  12.5020000  12.9870000  13.0960000
  12.7870000  12.9970000  20.6800000  11.2530000  13.5580000  22.5740000
  13.8900000  12.5350000  19.0330000  11.5540000  13.3940000  12.1840000
   9.7960000  14.4140000  11.9940000  13.2800000  12.5460000  12.8430000
  13.4110000  12.7130000  21.3090000  10.2630000  14.3880000  23.0670000
  11.8810000  12.7280000  23.4700000  11.7340000  13.0860000  10.6930000
   9.9150000  14.4080000  24.4060000   9.8360000  14.9870000  22.4990000
  11.5580000  12.7920000  24.8410000  12.5690000  12.1800000  23.1660000
  12.9010000  13.7990000  10.0520000  11.8430000  12.1230000  10.6520000
  10.8970000  13.3300000  10.2650000  10.5830000  13.6130000  25.2930000
   9.2200000  14.9400000  24.7210000  12.0020000  12.2180000  25.4240000
  13.1210000  13.2900000   8.5970000  12.7630000  14.7560000   9.9700000
  13.7370000  13.6390000  10.5180000  10.3770000  13.6370000  26.2000000
  14.3220000  13.8780000   7.9090000  12.3000000  13.4820000   8.1180000
  13.2290000  12.3290000   8.6770000  14.5030000  13.3420000   6.4620000
  14.2050000  14.8370000   7.8160000  15.1400000  13.7000000   8.3990000
  15.7350000  13.8720000   5.7520000  13.6800000  13.5240000   5.9820000
  14.6080000  12.3840000   6.5660000  15.8560000  13.2980000   4.3260000
  15.6130000  14.8290000   5.6470000  16.5470000  13.7030000   6.2540000
  15.0370000  13.4630000   3.8330000  15.9800000  12.3430000   4.4370000
  17.0110000  13.9010000   3.5740000  17.1640000  13.3040000   2.1590000
  16.9270000  14.8640000   3.4890000  17.8500000  13.6900000   4.0110000
  16.3490000  13.5610000   1.6990000  18.3430000  13.8230000   1.4010000
  17.1970000  12.3380000   2.2410000  18.3060000  14.7830000   1.3300000
  18.3500000  13.4400000   0.5220000  19.1440000  13.5720000   1.8670000
   9.8910000  22.1550000  17.5080000  11.0550000  21.5750000  16.3640000
  10.9490000  21.6410000  18.8070000  11.0680000  21.5790000  14.9000000
  12.1880000  21.1070000  16.9190000  10.6290000  21.7120000  20.1790000
  12.1550000  21.1350000  18.3690000  10.1050000  22.0000000  13.9730000
  12.2370000  21.0090000  14.4590000  13.3360000  20.5060000  15.7600000
  11.5750000  21.3070000  21.1090000   9.8100000  22.0590000  20.4530000
  13.0920000  20.6750000  19.3200000  10.3840000  21.8050000  12.6150000
   9.3040000  22.3690000  14.2670000  12.5020000  20.7440000  13.0960000
  12.7870000  20.7530000  20.6800000  11.2530000  21.3150000  22.5740000
  13.8900000  20.2910000  19.0330000  11.5540000  21.1500000  12.1840000
   9.7960000  22.1710000  11.9940000  13.2800000  20.3030000  12.8430000
  13.4110000  20.4700000  21.3090000  10.2630000  22.1450000  23.0670000
  11.8810000  20.4850000  23.4700000  11.7340000  20.8430000  10.6930000
   9.9150000  22.1650000  24.4060000   9.8360000  22.7440000  22.4990000
  11.5580000  20.5490000  24.8410000  12.5690000  19.9370000  23.1660000
  12.9010000  21.5560000  10.0520000  11.8430000  19.8800000  10.6520000
  10.8970000  21.0870000  10.2650000  10.5830000  21.3700000  25.2930000
   9.2200000  22.6970000  24.7210000  12.0020000  19.9750000  25.4240000
  13.1210000  21.0470000   8.5970000  12.7630000  22.5130000   9.9700000
  13.7370000  21.3960000  10.5180000  10.3770000  21.3930000  26.2000000
  14.3220000  21.6350000   7.9090000  12.3000000  21.2390000   8.1180000
  13.2290000  20.0860000   8.6770000  14.5030000  21.0990000   6.4620000
  14.2050000  22.5940000   7.8160000  15.1400000  21.4570000   8.3990000
  15.7350000  21.6290000   5.7520000  13.6800000  21.2810000   5.9820000
  14.6080000  20.1410000   6.5660000  15.8560000  21.0550000   4.3260000
  15.6130000  22.5860000   5.6470000  16.5470000  21.4590000   6.2540000
  15.0370000  21.2200000   3.8330000  15.9800000  20.1000000   4.4370000
  17.0110000  21.6580000   3.5740000  17.1640000  21.0600000   2.1590000
  16.9270000  22.6210000   3.4890000  17.8500000  21.4470000   4.0110000
  16.3490000  21.3180000   1.6990000  18.3430000  21.5790000   1.4010000
  17.1970000  20.0950000   2.2410000  18.3060000  22.5390000   1.3300000
  18.3500000  21.1970000   0.5220000  19.1440000  21.3290000   1.8670000
   9.8910000  29.9120000  17.5080000  11.0550000  29.3320000  16.3640000
  10.9490000  29.3970000  18.8070000  11.0680000  29.3360000  14.9000000
  12.1880000  28.8640000  16.9190000  10.6290000  29.4690000  20.1790000
  12.1550000  28.8920000  18.3690000  10.1050000  29.7570000  13.9730000
  12.2370000  28.7660000  14.4590000  13.3360000  28.2630000  15.7600000
  11.5750000  29.0640000  21.1090000   9.8100000  29.8160000  20.4530000
  13.0920000  28.4320000  19.3200000  10.3840000  29.5620000  12.6150000
   9.3040000  30.1260000  14.2670000  12.5020000  28.5010000  13.0960000
  12.7870000  28.5100000  20.6800000  11.2530000  29.0720000  22.5740000
  13.8900000  28.0480000  19.0330000  11.5540000  28.9070000  12.1840000
   9.7960000  29.9280000  11.9940000  13.2800000  28.0600000  12.8430000
  13.4110000  28.2270000  21.3090000  10.2630000  29.9020000  23.0670000
  11.8810000  28.2420000  23.4700000  11.7340000  28.6000000  10.6930000
   9.9150000  29.9220000  24.4060000   9.8360000  30.5000000  22.4990000
  11.5580000  28.3050000  24.8410000  12.5690000  27.6940000  23.1660000
  12.9010000  29.3130000  10.0520000  11.8430000  27.6370000  10.6520000
  10.8970000  28.8440000  10.2650000  10.5830000  29.1270000  25.2930000
   9.2200000  30.4530000  24.7210000  12.0020000  27.7320000  25.4240000
  13.1210000  28.8030000   8.5970000  12.7630000  30.2700000   9.9700000
  13.7370000  29.1530000  10.5180000  10.3770000  29.1500000  26.2000000
  14.3220000  29.3920000   7.9090000  12.3000000  28.9960000   8.1180000
  13.2290000  27.8430000   8.6770000  14.5030000  28.8560000   6.4620000
  14.2050000  30.3510000   7.8160000  15.1400000  29.2140000   8.3990000
  15.7350000  29.3860000   5.7520000  13.6800000  29.0380000   5.9820000
  14.6080000  27.8980000   6.5660000  15.8560000  28.8120000   4.3260000
  15.6130000  30.3420000   5.6470000  16.5470000  29.2160000   6.2540000
  15.0370000  28.9770000   3.8330000  15.9800000  27.8570000   4.4370000
  17.0110000  29.4150000   3.5740000  17.1640000  28.8170000   2.1590000
  16.9270000  30.3780000   3.4890000  17.8500000  29.2040000   4.0110000
  16.3490000  29.0750000   1.6990000  18.3430000  29.3360000   1.4010000
  17.1970000  27.8510000   2.2410000  18.3060000  30.2960000   1.3300000
  18.3500000  28.9540000   0.5220000  19.1440000  29.0860000   1.8670000
   9.8910000  37.6690000  17.5080000  11.0550000  37.0880000  16.3640000
  10.9490000  37.1540000  18.8070000  11.0680000  37.0930000  14.9000000
  12.1880000  36.6210000  16.9190000  10.6290000  37.2260000  20.1790000
  12.1550000  36.6490000  18.3690000  10.1050000  37.5130000  13.9730000
  12.2370000  36.5230000  14.4590000  13.3360000  36.0190000  15.7600000
  11.5750000  36.8210000  21.1090000   9.8100000  37.5730000  20.4530000
  13.0920000  36.1890000  19.3200000  10.3840000  37.3190000  12.6150000
   9.3040000  37.8830000  14.2670000  12.5020000  36.2580000  13.0960000
  12.7870000  36.2670000  20.6800000  11.2530000  36.8290000  22.5740000
  13.8900000  35.8050000  19.0330000  11.5540000  36.6640000  12.1840000
   9.7960000  37.6840000  11.9940000  13.2800000  35.8160000  12.8430000
  13.4110000  35.9840000  21.3090000  10.2630000  37.6580000  23.0670000
  11.8810000  35.9990000  23.4700000  11.7340000  36.3570000  10.6930000
   9.9150000  37.6790000  24.4060000   9.8360000  38.2570000  22.4990000
  11.5580000  36.0620000  24.8410000  12.5690000  35.4510000  23.1660000
  12.9010000  37.0700000  10.0520000  11.8430000  35.3940000  10.6520000
  10.8970000  36.6000000  10.2650000  10.5830000  36.8840000  25.2930000
   9.2200000  38.2100000  24.7210000  12.0020000  35.4890000  25.4240000
  13.1210000  36.5600000   8.5970000  12.7630000  38.0270000   9.9700000
  13.7370000  36.9100000  10.5180000  10.3770000  36.9070000  26.2000000
  14.3220000  37.1490000   7.9090000  12.3000000  36.7530000   8.1180000
  13.2290000  35.6000000   8.6770000  14.5030000  36.6130000   6.4620000
  14.2050000  38.1080000   7.8160000  15.1400000  36.9700000   8.3990000
  15.7350000  37.1430000   5.7520000  13.6800000  36.7950000   5.9820000
  14.6080000  35.6540000   6.5660000  15.8560000  36.5690000   4.3260000
  15.6130000  38.0990000   5.6470000  16.5470000  36.9730000   6.2540000
  15.0370000  36.7340000   3.8330000  15.9800000  35.6130000   4.4370000
  17.0110000  37.1710000   3.5740000  17.1640000  36.5740000   2.1590000
  16.9270000  38.1340000   3.4890000  17.8500000  36.9610000   4.0110000
  16.3490000  36.8320000   1.6990000  18.3430000  37.0930000   1.4010000
  17.1970000  35.6080000   2.2410000  18.3060000  38.0530000   1.3300000
  18.3500000  36.7110000   0.5220000  19.1440000  36.8420000   1.8670000
   9.8910000  45.4250000  17.5080000  11.0550000  44.8450000  16.3640000
  10.9490000  44.9110000  18.8070000  11.0680000  44.8500000  14.9000000
  12.1880000  44.3770000  16.9190000  10.6290000  44.9820000  20.1790000
  12.1550000  44.4050000  18.3690000  10.1050000  45.2700000  13.9730000
  12.2370000  44.2800000  14.4590000  13.3360000  43.7760000  15.7600000
  11.5750000  44.5780000  21.1090000   9.8100000  45.3300000  20.4530000
  13.0920000  43.9450000  19.3200000  10.3840000  45.0760000  12.6150000
   9.3040000  45.6400000  14.2670000  12.5020000  44.0140000  13.0960000
  12.7870000  44.0240000  20.6800000  11.2530000  44.5850000  22.5740000
  13.8900000  43.5620000  19.0330000  11.5540000  44.4210000  12.1840000
   9.7960000  45.4410000  11.9940000  13.2800000  43.5730000  12.8430000
  13.4110000  43.7410000  21.3090000  10.2630000  45.4150000  23.0670000
  11.8810000  43.7550000  23.4700000  11.7340000  44.1140000  10.6930000
   9.9150000  45.4350000  24.4060000   9.8360000  46.0140000  22.4990000
  11.5580000  43.8190000  24.8410000  12.5690000  43.2080000  23.1660000
  12.9010000  44.8270000  10.0520000  11.8430000  43.1510000  10.6520000
  10.8970000  44.3570000  10.2650000  10.5830000  44.6400000  25.2930000
   9.2200000  45.9670000  24.7210000  12.0020000  43.2450000  25.4240000
  13.1210000  44.3170000   8.5970000  12.7630000  45.7830000   9.9700000
  13.7370000  44.6660000  10.5180000  10.3770000  44.6640000  26.2000000
  14.3220000  44.9060000   7.9090000  12.3000000  44.5100000   8.1180000
  13.2290000  43.3570000   8.6770000  14.5030000  44.3700000   6.4620000
  14.2050000  45.8640000   7.8160000  15.1400000  44.7270000   8.3990000
  15.7350000  44.8990000   5.7520000  13.6800000  44.5510000   5.9820000
  14.6080000  43.4110000   6.5660000  15.8560000  44.3250000   4.3260000
  15.6130000  45.8560000   5.6470000  16.5470000  44.7300000   6.2540000
  15.0370000  44.4910000   3.8330000  15.9800000  43.3700000   4.4370000
  17.0110000  44.9280000   3.5740000  17.1640000  44.3310000   2.1590000
  16.9270000  45.8910000   3.4890000  17.8500000  44.7170000   4.0110000
  16.3490000  44.5880000   1.6990000  18.3430000  44.8500000   1.4010000
  17.1970000  43.3650000   2.2410000  18.3060000  45.8100000   1.3300000
  18.3500000  44.4670000   0.5220000  19.1440000  44.5990000   1.8670000
   6.9850000   6.6410000  70.5530000   8.1500000   6.0610000  69.4080000
   8.0440000   6.1270000  71.8510000   8.1620000   6.0660000  67.9450000
   9.2820000   5.5930000  69.9640000   7.7230000   6.1980000  73.2240000
   9.2500000   5.6210000  71.4130000   7.2000000   6.4860000  67.0170000
   9.3320000   5.4960000  67.5040000  10.4310000   4.9920000  68.8040000
   8.6700000   5.7940000  74.1540000   6.9050000   6.5460000  73.4970000
  10.1870000   5.1610000  72.3640000   7.4790000   6.2920000  65.6600000
   6.3980000   6.8560000  67.3120000   9.5970000   5.2300000  66.1410000
   9.8810000   5.2400000  73.7250000   8.3480000   5.8010000  75.6180000
  10.9840000   4.7780000  72.0780000   8.6490000   5.6370000  65.2290000
   6.8910000   6.6570000  65.0390000  10.3750000   4.7890000  65.8880000
  10.5060000   4.9570000  74.3540000   7.3580000   6.6310000  76.1120000
   8.9760000   4.9710000  76.5140000   8.8280000   5.3300000  63.7370000
   7.0100000   6.6510000  77.4510000   6.9300000   7.2300000  75.5430000
   8.6530000   5.0350000  77.8860000   9.6630000   4.4240000  76.2100000
   9.9960000   6.0430000  63.0970000   8.9380000   4.3670000  63.6970000
   7.9920000   5.5730000  63.3090000   7.6780000   5.8560000  78.3380000
   6.3140000   7.1830000  77.7650000   9.0960000   4.4610000  78.4690000
  10.2150000   5.5330000  61.6410000   9.8580000   6.9990000  63.0140000
  10.8310000   5.8820000  63.5630000   7.4720000   5.8800000  79.2440000
  11.4170000   6.1220000  60.9530000   9.3940000   5.7260000  61.1620000
  10.3240000   4.5730000  61.7220000  11.5970000   5.5860000  59.5060000
  11.3000000   7.0800000  60.8610000  12.2350000   5.9430000  61.4440000
  12.8290000   6.1150000  58.7970000  10.7740000   5.7670000  59.0270000
  11.7030000   4.6270000  59.6100000  12.9500000   5.5410000  57.3710000
  12.7070000   7.0720000  58.6910000  13.6420000   5.9460000  59.2980000
  12.1320000   5.7070000  56.8770000  13.0750000   4.5860000  57.4820000
  14.1050000   6.1440000  56.6190000  14.2590000   5.5470000  55.2040000
  14.0220000   7.1070000  56.5340000  14.9450000   5.9330000  57.0560000
  13.4440000   5.8040000  54.7440000  15.4370000   6.0660000  54.4460000
  14.2910000   4.5810000  55.2860000  15.4010000   7.0260000  54.3750000
  15.4440000   5.6830000  53.5670000  16.2390000   5.8150000  54.9120000
   6.9850000  14.3980000  70.5530000   8.1500000  13.8180000  69.4080000
   8.0440000  13.8840000  71.8510000   8.1620000  13.8230000  67.9450000
   9.2820000  13.3500000  69.9640000   7.7230000  13.9550000  73.2240000
   9.2500000  13.3780000  71.4130000   7.2000000  14.2430000  67.0170000
   9.3320000  13.2520000  67.5040000  10.4310000  12.7490000  68.8040000
   8.6700000  13.5500000  74.1540000   6.9050000  14.3030000  73.4970000
  10.1870000  12.9180000  72.3640000   7.4790000  14.0480000  65.6600000
   6.3980000  14.6120000  67.3120000   9.5970000  12.9870000  66.1410000
   9.8810000  12.9970000  73.7250000   8.3480000  13.5580000  75.6180000
  10.9840000  12.5350000  72.0780000   8.6490000  13.3940000  65.2290000
   6.8910000  14.4140000  65.0390000  10.3750000  12.5460000  65.8880000
  10.5060000  12.7130000  74.3540000   7.3580000  14.3880000  76.1120000
   8.9760000  12.7280000  76.5140000   8.8280000  13.0860000  63.7370000
   7.0100000  14.4080000  77.4510000   6.9300000  14.9870000  75.5430000
   8.6530000  12.7920000  77.8860000   9.6630000  12.1800000  76.2100000
   9.9960000  13.7990000  63.0970000   8.9380000  12.1230000  63.6970000
   7.9920000  13.3300000  63.3090000   7.6780000  13.6130000  78.3380000
   6.3140000  14.9400000  77.7650000   9.0960000  12.2180000  78.4690000
  10.2150000  13.2900000  61.6410000   9.8580000  14.7560000  63.0140000
  10.8310000  13.6390000  63.5630000   7.4720000  13.6370000  79.2440000
  11.4170000  13.8780000  60.9530000   9.3940000  13.4820000  61.1620000
  10.3240000  12.3290000  61.7220000  11.5970000  13.3420000  59.5060000
  11.3000000  14.8370000  60.8610000  12.2350000  13.7000000  61.4440000
  12.8290000  13.8720000  58.7970000  10.7740000  13.5240000  59.0270000
  11.7030000  12.3840000  59.6100000  12.9500000  13.2980000  57.3710000
  12.7070000  14.8290000  58.6910000  13.6420000  13.7030000  59.2980000
  12.1320000  13.4630000  56.8770000  13.0750000  12.3430000  57.4820000
  14.1050000  13.9010000  56.6190000  14.2590000  13.3040000  55.2040000
  14.0220000  14.8640000  56.5340000  14.9450000  13.6900000  57.0560000
  13.4440000  13.5610000  54.7440000  15.4370000  13.8230000  54.4460000
  14.2910000  12.3380000  55.2860000  15.4010000  14.7830000  54.3750000
  15.4440000  13.4400000  53.5670000  16.2390000  13.5720000  54.9120000
   6.9850000  22.1550000  70.5530000   8.1500000  21.5750000  69.4080000
   8.0440000  21.6410000  71.8510000   8.1620000  21.5790000  67.9450000
   9.2820000  21.1070000  69.9640000   7.7230000  21.7120000  73.2240000
   9.2500000  21.1350000  71.4130000   7.2000000  22.0000000  67.0170000
   9.3320000  21.0090000  67.5040000  10.4310000  20.5060000  68.8040000
   8.6700000  21.3070000  74.1540000   6.9050000  22.0590000  73.4970000
  10.1870000  20.6750000  72.3640000   7.4790000  21.8050000  65.6600000
   6.3980000  22.3690000  67.3120000   9.5970000  20.7440000  66.1410000
   9.8810000  20.7530000  73.7250000   8.3480000  21.3150000  75.6180000
  10.9840000  20.2910000  72.0780000   8.6490000  21.1500000  65.2290000
   6.8910000  22.1710000  65.0390000  10.3750000  20.3030000  65.8880000
  10.5060000  20.4700000  74.3540000   7.3580000  22.1450000  76.1120000
   8.9760000  20.4850000  76.5140000   8.8280000  20.8430000  63.7370000
   7.0100000  22.1650000  77.4510000   6.9300000  22.7440000  75.5430000
   8.6530000  20.5490000  77.8860000   9.6630000  19.9370000  76.2100000
   9.9960000  21.5560000  63.0970000   8.9380000  19.8800000  63.6970000
   7.9920000  21.0870000  63.3090000   7.6780000  21.3700000  78.3380000
   6.3140000  22.6970000  77.7650000   9.0960000  19.9750000  78.4690000
  10.2150000  21.0470000  61.6410000   9.8580000  22.5130000  63.0140000
  10.8310000  21.3960000  63.5630000   7.4720000  21.3930000  79.2440000
  11.4170000  21.6350000  60.9530000   9.3940000  21.2390000  61.1620000
  10.3240000  20.0860000  61.7220000  11.5970000  21.0990000  59.5060000
  11.3000000  22.5940000  60.8610000  12.2350000  21.4570000  61.4440000
  12.8290000  21.6290000  58.7970000  10.7740000  21.2810000  59.0270000
  11.7030000  20.1410000  59.6100000  12.9500000  21.0550000  57.3710000
  12.7070000  22.5860000  58.6910000  13.6420000  21.4590000  59.2980000
  12.1320000  21.2200000  56.8770000  13.0750000  20.1000000  57.4820000
  14.1050000  21.6580000  56.6190000  14.2590000  21.0600000  55.2040000
  14.0220000  22.6210000  56.5340000  14.9450000  21.4470000  57.0560000
  13.4440000  21.3180000  54.7440000  15.4370000  21.5790000  54.4460000
  14.2910000  20.0950000  55.2860000  15.4010000  22.5390000  54.3750000
  15.4440000  21.1970000  53.5670000  16.2390000  21.3290000  54.9120000
   6.9850000  29.9120000  70.5530000   8.1500000  29.3320000  69.4080000
   8.0440000  29.3970000  71.8510000   8.1620000  29.3360000  67.9450000
   9.2820000  28.8640000  69.9640000   7.7230000  29.4690000  73.2240000
   9.2500000  28.8920000  71.4130000   7.2000000  29.7570000  67.0170000
   9.3320000  28.7660000  67.5040000  10.4310000  28.2630000  68.8040000
   8.6700000  29.0640000  74.1540000   6.9050000  29.8160000  73.4970000
  10.1870000  28.4320000  72.3640000   7.4790000  29.5620000  65.6600000
   6.3980000  30.1260000  67.3120000   9.5970000  28.5010000  66.1410000
   9.8810000  28.5100000  73.7250000   8.3480000  29.0720000  75.6180000
  10.9840000  28.0480000  72.0780000   8.6490000  28.9070000  65.2290000
   6.8910000  29.9280000  65.0390000  10.3750000  28.0600000  65.8880000
  10.5060000  28.2270000  74.3540000   7.3580000  29.9020000  76.1120000
   8.9760000  28.2420000  76.5140000   8.8280000  28.6000000  63.7370000
   7.0100000  29.9220000  77.4510000   6.9300000  30.5000000  75.5430000
   8.6530000  28.3050000  77.8860000   9.6630000  27.6940000  76.2100000
   9.9960000  29.3130000  63.0970000   8.9380000  27.6370000  63.6970000
   7.9920000  28.8440000  63.3090000   7.6780000  29.1270000  78.3380000
   6.3140000  30.4530000  77.7650000   9.0960000  27.7320000  78.4690000
  10.2150000  28.8030000  61.6410000   9.8580000  30.2700000  63.0140000
  10.8310000  29.1530000  63.5630000   7.4720000  29.1500000  79.2440000
  11.4170000  29.3920000  60.9530000   9.3940000  28.9960000  61.1620000
  10.3240000  27.8430000  61.7220000  11.5970000  28.8560000  59.5060000
  11.3000000  30.3510000  60.8610000  12.2350000  29.2140000  61.4440000
  12.8290000  29.3860000  58.7970000  10.7740000  29.0380000  59.0270000
  11.7030000  27.8980000  59.6100000  12.9500000  28.8120000  57.3710000
  12.7070000  30.3420000  58.6910000  13.6420000  29.2160000  59.2980000
  12.1320000  28.9770000  56.8770000  13.0750000  27.8570000  57.4820000
  14.1050000  29.4150000  56.6190000  14.2590000  28.8170000  55.2040000
  14.0220000  30.3780000  56.5340000  14.9450000  29.2040000  57.0560000
  13.4440000  29.0750000  54.7440000  15.4370000  29.3360000  54.4460000
  14.2910000  27.8510000  55.2860000  15.4010000  30.2960000  54.3750000
  15.4440000  28.9540000  53.5670000  16.2390000  29.0860000  54.9120000
   6.9850000  37.6690000  70.5530000   8.1500000  37.0880000  69.4080000
   8.0440000  37.1540000  71.8510000   8.1620000  37.0930000  67.9450000
   9.2820000  36.6210000  69.9640000   7.7230000  37.2260000  73.2240000
   9.2500000  36.6490000  71.4130000   7.2000000  37.5130000  67.0170000
   9.3320000  36.5230000  67.5040000  10.4310000  36.0190000  68.8040000
   8.6700000  36.8210000  74.1540000   6.9050000  37.5730000  73.4970000
  10.1870000  36.1890000  72.3640000   7.4790000  37.3190000  65.6600000
   6.3980000  37.8830000  67.3120000   9.5970000  36.2580000  66.1410000
   9.8810000  36.2670000  73.7250000   8.3480000  36.8290000  75.6180000
  10.9840000  35.8050000  72.0780000   8.6490000  36.6640000  65.2290000
   6.8910000  37.6840000  65.0390000  10.3750000  35.8160000  65.8880000
  10.5060000  35.9840000  74.3540000   7.3580000  37.6580000  76.1120000
   8.9760000  35.9990000  76.5140000   8.8280000  36.3570000  63.7370000
   7.0100000  37.6790000  77.4510000   6.9300000  38.2570000  75.5430000
   8.6530000  36.0620000  77.8860000   9.6630000  35.4510000  76.2100000
   9.9960000  37.0700000  63.0970000   8.9380000  35.3940000  63.6970000
   7.9920000  36.6000000  63.3090000   7.6780000  36.8840000  78.3380000
   6.3140000  38.2100000  77.7650000   9.0960000  35.4890000  78.4690000
  10.2150000  36.5600000  61.6410000   9.8580000  38.0270000  63.0140000
  10.8310000  36.9100000  63.5630000   7.4720000  36.9070000  79.2440000
  11.4170000  37.1490000  60.9530000   9.3940000  36.7530000  61.1620000
  10.3240000  35.6000000  61.7220000  11.5970000  36.6130000  59.5060000
  11.3000000  38.1080000  60.8610000  12.2350000  36.9700000  61.4440000
  12.8290000  37.1430000  58.7970000  10.7740000  36.7950000  59.0270000
  11.7030000  35.6540000  59.6100000  12.9500000  36.5690000  57.3710000
  12.7070000  38.0990000  58.6910000  13.6420000  36.9730000  59.2980000
  12.1320000  36.7340000  56.8770000  13.0750000  35.6130000  57.4820000
  14.1050000  37.1710000  56.6190000  14.2590000  36.5740000  55.2040000
  14.0220000  38.1340000  56.5340000  14.9450000  36.9610000  57.0560000
  13.4440000  36.8320000  54.7440000  15.4370000  37.0930000  54.4460000
  14.2910000  35.6080000  55.2860000  15.4010000  38.0530000  54.3750000
  15.4440000  36.7110000  53.5670000  16.2390000  36.8420000  54.9120000
   6.9850000  45.4250000  70.5530000   8.1500000  44.8450000  69.4080000
   8.0440000  44.9110000  71.8510000   8.1620000  44.8500000  67.9450000
   9.2820000  44.3770000  69.9640000   7.7230000  44.9820000  73.2240000
   9.2500000  44.4050000  71.4130000   7.2000000  45.2700000  67.0170000
   9.3320000  44.2800000  67.5040000  10.4310000  43.7760000  68.8040000
   8.6700000  44.5780000  74.1540000   6.9050000  45.3300000  73.4970000
  10.1870000  43.9450000  72.3640000   7.4790000  45.0760000  65.6600000
   6.3980000  45.6400000  67.3120000   9.5970000  44.0140000  66.1410000
   9.8810000  44.0240000  73.7250000   8.3480000  44.5850000  75.6180000
  10.9840000  43.5620000  72.0780000   8.6490000  44.4210000  65.2290000
   6.8910000  45.4410000  65.0390000  10.3750000  43.5730000  65.8880000
  10.5060000  43.7410000  74.3540000   7.3580000  45.4150000  76.1120000
   8.9760000  43.7550000  76.5140000   8.8280000  44.1140000  63.7370000
   7.0100000  45.4350000  77.4510000   6.9300000  46.0140000  75.5430000
   8.6530000  43.8190000  77.8860000   9.6630000  43.2080000  76.2100000
   9.9960000  44.8270000  63.0970000   8.9380000  43.1510000  63.6970000
   7.9920000  44.3570000  63.3090000   7.6780000  44.6400000  78.3380000
   6.3140000  45.9670000  77.7650000   9.0960000  43.2450000  78.4690000
  10.2150000  44.3170000  61.6410000   9.8580000  45.7830000  63.0140000
  10.8310000  44.6660000  63.5630000   7.4720000  44.6640000  79.2440000
  11.4170000  44.9060000  60.9530000   9.3940000  44.5100000  61.1620000
  10.3240000  43.3570000  61.7220000  11.5970000  44.3700000  59.5060000
  11.3000000  45.8640000  60.8610000  12.2350000  44.7270000  61.4440000
  12.8290000  44.8990000  58.7970000  10.7740000  44.5510000  59.0270000
  11.7030000  43.4110000  59.6100000  12.9500000  44.3250000  57.3710000
  12.7070000  45.8560000  58.6910000  13.6420000  44.7300000  59.2980000
  12.1320000  44.4910000  56.8770000  13.0750000  43.3700000  57.4820000
  14.1050000  44.9280000  56.6190000  14.2590000  44.3310000  55.2040000
  14.0220000  45.8910000  56.5340000  14.9450000  44.7170000  57.0560000
  13.4440000  44.5880000  54.7440000  15.4370000  44.8500000  54.4460000
  14.2910000  43.3650000  55.2860000  15.4010000  45.8100000  54.3750000
  15.4440000  44.4670000  53.5670000  16.2390000  44.5990000  54.9120000
  17.4390000  10.5200000  35.5360000  16.2750000   9.9400000  36.6810000
  16.3810000  10.0050000  34.2380000  16.2630000   9.9440000  38.1440000
  15.1430000   9.4720000  36.1250000  16.7020000  10.0770000  32.8650000
  15.1750000   9.5000000  34.6760000  17.2250000  10.3650000  39.0720000
  15.0930000   9.3740000  38.5850000  13.9940000   8.8710000  37.2850000
  15.7550000   9.6720000  31.9350000  17.5200000  10.4240000  32.5920000
  14.2380000   9.0400000  33.7250000  16.9460000  10.1700000  40.4290000
  18.0270000  10.7340000  38.7770000  14.8280000   9.1090000  39.9480000
  14.5440000   9.1180000  32.3640000  16.0770000   9.6800000  30.4710000
  13.4410000   8.6560000  34.0110000  15.7760000   9.5150000  40.8600000
  17.5340000  10.5360000  41.0500000  14.0500000   8.6680000  40.2010000
  13.9190000   8.8350000  31.7350000  17.0670000  10.5100000  29.9770000
  15.4490000   8.8500000  29.5750000  15.5970000   9.2080000  42.3520000
  17.4150000  10.5300000  28.6380000  17.4950000  11.1080000  30.5460000
  15.7720000   8.9130000  28.2030000  14.7610000   8.3020000  29.8790000
  14.4290000   9.9210000  42.9920000  15.4870000   8.2450000  42.3920000
  16.4330000   9.4520000  42.7800000  16.7470000   9.7350000  27.7510000
  18.1110000  11.0610000  28.3240000  15.3280000   8.3400000  27.6200000
  14.2100000   9.4110000  44.4480000  14.5670000  10.8780000  43.0750000
  13.5930000   9.7610000  42.5260000  16.9530000   9.7580000  26.8450000
  13.0080000  10.0000000  45.1360000  15.0310000   9.6040000  44.9270000
  14.1010000   8.4510000  44.3670000  12.8280000   9.4640000  46.5830000
  13.1250000  10.9590000  45.2280000  12.1900000   9.8220000  44.6450000
  11.5960000   9.9940000  47.2920000  13.6510000   9.6460000  47.0620000
  12.7220000   8.5060000  46.4790000  11.4750000   9.4200000  48.7180000
  11.7180000  10.9500000  47.3980000  10.7830000   9.8240000  46.7910000
  12.2930000   9.5850000  49.2120000  11.3500000   8.4650000  48.6070000
  10.3200000  10.0230000  49.4700000  10.1660000   9.4250000  50.8850000
  10.4030000  10.9860000  49.5550000   9.4800000   9.8120000  49.0330000
  10.9810000   9.6830000  51.3450000   8.9880000   9.9440000  51.6430000
  10.1340000   8.4590000  50.8030000   9.0240000  10.9040000  51.7140000
   8.9810000   9.5620000  52.5220000   8.1860000   9.6940000  51.1770000
  14.5340000  10.5200000  88.5810000  13.3700000   9.9400000  89.7250000
  13.4760000  10.0050000  87.2820000  13.3570000   9.9440000  91.1890000
  12.2370000   9.4720000  89.1700000  13.7960000  10.0770000  85.9100000
  12.2700000   9.5000000  87.7200000  14.3200000  10.3650000  92.1160000
  12.1880000   9.3740000  91.6300000  11.0890000   8.8710000  90.3290000
  12.8500000   9.6720000  84.9800000  14.6140000  10.4240000  85.6360000
  11.3330000   9.0400000  86.7690000  14.0410000  10.1700000  93.4740000
  15.1210000  10.7340000  91.8220000  11.9230000   9.1090000  92.9930000
  11.6380000   9.1180000  85.4090000  13.1720000   9.6800000  83.5150000
  10.5350000   8.6560000  87.0560000  12.8700000   9.5150000  93.9050000
  14.6290000  10.5360000  94.0950000  11.1440000   8.6680000  93.2460000
  11.0140000   8.8350000  84.7800000  14.1620000  10.5100000  83.0220000
  12.5440000   8.8500000  82.6190000  12.6910000   9.2080000  95.3960000
  14.5100000  10.5300000  81.6830000  14.5890000  11.1080000  83.5900000
  12.8660000   8.9130000  81.2480000  11.8560000   8.3020000  82.9230000
  11.5240000   9.9210000  96.0370000  12.5820000   8.2450000  95.4370000
  13.5270000   9.4520000  95.8240000  13.8420000   9.7350000  80.7960000
  15.2050000  11.0610000  81.3680000  12.4230000   8.3400000  80.6650000
  11.3040000   9.4110000  97.4920000  11.6620000  10.8780000  96.1190000
  10.6880000   9.7610000  95.5710000  14.0480000   9.7580000  79.8890000
  10.1030000  10.0000000  98.1800000  12.1250000   9.6040000  97.9710000
  11.1960000   8.4510000  97.4120000   9.9220000   9.4640000  99.6270000
  10.2200000  10.9590000  98.2730000   9.2850000   9.8220000  97.6900000
   8.6900000   9.9940000 100.3370000  10.7450000   9.6460000 100.1070000
   9.8170000   8.5060000  99.5230000   8.5690000   9.4200000 101.7630000
   8.8120000  10.9500000 100.4420000   7.8780000   9.8240000  99.8350000
   9.3880000   9.5850000 102.2560000   8.4450000   8.4650000 101.6520000
   7.4140000  10.0230000 102.5150000   7.2610000   9.4250000 103.9300000
   7.4980000  10.9860000 102.6000000   6.5750000   9.8120000 102.0780000
   8.0750000   9.6830000 104.3900000   6.0820000   9.9440000 104.6880000
   7.2280000   8.4590000 103.8480000   6.1190000  10.9040000 104.7590000
   6.0750000   9.5620000 105.5670000   5.2800000   9.6940000 104.2220000
  17.4390000  18.2770000  35.5360000  16.2750000  17.6960000  36.6810000
  16.3810000  17.7620000  34.2380000  16.2630000  17.7010000  38.1440000
  15.1430000  17.2290000  36.1250000  16.7020000  17.8340000  32.8650000
  15.1750000  17.2570000  34.6760000  17.2250000  18.1210000  39.0720000
  15.0930000  17.1310000  38.5850000  13.9940000  16.6270000  37.2850000
  15.7550000  17.4290000  31.9350000  17.5200000  18.1810000  32.5920000
  14.2380000  16.7970000  33.7250000  16.9460000  17.9270000  40.4290000
  18.0270000  18.4910000  38.7770000  14.8280000  16.8660000  39.9480000
  14.5440000  16.8750000  32.3640000  16.0770000  17.4370000  30.4710000
  13.4410000  16.4130000  34.0110000  15.7760000  17.2720000  40.8600000
  17.5340000  18.2920000  41.0500000  14.0500000  16.4240000  40.2010000
  13.9190000  16.5920000  31.7350000  17.0670000  18.2660000  29.9770000
  15.4490000  16.6070000  29.5750000  15.5970000  16.9650000  42.3520000
  17.4150000  18.2870000  28.6380000  17.4950000  18.8650000  30.5460000
  15.7720000  16.6700000  28.2030000  14.7610000  16.0590000  29.8790000
  14.4290000  17.6780000  42.9920000  15.4870000  16.0020000  42.3920000
  16.4330000  17.2080000  42.7800000  16.7470000  17.4920000  27.7510000
  18.1110000  18.8180000  28.3240000  15.3280000  16.0970000  27.6200000
  14.2100000  17.1680000  44.4480000  14.5670000  18.6350000  43.0750000
  13.5930000  17.5180000  42.5260000  16.9530000  17.5150000  26.8450000
  13.0080000  17.7570000  45.1360000  15.0310000  17.3610000  44.9270000
  14.1010000  16.2080000  44.3670000  12.8280000  17.2210000  46.5830000
  13.1250000  18.7160000  45.2280000  12.1900000  17.5780000  44.6450000
  11.5960000  17.7510000  47.2920000  13.6510000  17.4030000  47.0620000
  12.7220000  16.2620000  46.4790000  11.4750000  17.1770000  48.7180000
  11.7180000  18.7070000  47.3980000  10.7830000  17.5810000  46.7910000
  12.2930000  17.3420000  49.2120000  11.3500000  16.2210000  48.6070000
  10.3200000  17.7790000  49.4700000  10.1660000  17.1820000  50.8850000
  10.4030000  18.7420000  49.5550000   9.4800000  17.5690000  49.0330000
  10.9810000  17.4400000  51.3450000   8.9880000  17.7010000  51.6430000
  10.1340000  16.2160000  50.8030000   9.0240000  18.6610000  51.7140000
   8.9810000  17.3190000  52.5220000   8.1860000  17.4500000  51.1770000
  14.5340000  18.2770000  88.5810000  13.3700000  17.6960000  89.7250000
  13.4760000  17.7620000  87.2820000  13.3570000  17.7010000  91.1890000
  12.2370000  17.2290000  89.1700000  13.7960000  17.8340000  85.9100000
  12.2700000  17.2570000  87.7200000  14.3200000  18.1210000  92.1160000
  12.1880000  17.1310000  91.6300000  11.0890000  16.6270000  90.3290000
  12.8500000  17.4290000  84.9800000  14.6140000  18.1810000  85.6360000
  11.3330000  16.7970000  86.7690000  14.0410000  17.9270000  93.4740000
  15.1210000  18.4910000  91.8220000  11.9230000  16.8660000  92.9930000
  11.6380000  16.8750000  85.4090000  13.1720000  17.4370000  83.5150000
  10.5350000  16.4130000  87.0560000  12.8700000  17.2720000  93.9050000
  14.6290000  18.2920000  94.0950000  11.1440000  16.4240000  93.2460000
  11.0140000  16.5920000  84.7800000  14.1620000  18.2660000  83.0220000
  12.5440000  16.6070000  82.6190000  12.6910000  16.9650000  95.3960000
  14.5100000  18.2870000  81.6830000  14.5890000  18.8650000  83.5900000
  12.8660000  16.6700000  81.2480000  11.8560000  16.0590000  82.9230000
  11.5240000  17.6780000  96.0370000  12.5820000  16.0020000  95.4370000
  13.5270000  17.2080000  95.8240000  13.8420000  17.4920000  80.7960000
  15.2050000  18.8180000  81.3680000  12.4230000  16.0970000  80.6650000
  11.3040000  17.1680000  97.4920000  11.6620000  18.6350000  96.1190000
  10.6880000  17.5180000  95.5710000  14.0480000  17.5150000  79.8890000
  10.1030000  17.7570000  98.1800000  12.1250000  17.3610000  97.9710000
  11.1960000  16.2080000  97.4120000   9.9220000  17.2210000  99.6270000
  10.2200000  18.7160000  98.2730000   9.2850000  17.5780000  97.6900000
   8.6900000  17.7510000 100.3370000  10.7450000  17.4030000 100.1070000
   9.8170000  16.2620000  99.5230000   8.5690000  17.1770000 101.7630000
   8.8120000  18.7070000 100.4420000   7.8780000  17.5810000  99.8350000
   9.3880000  17.3420000 102.2560000   8.4450000  16.2210000 101.6520000
   7.4140000  17.7790000 102.5150000   7.2610000  17.1820000 103.9300000
   7.4980000  18.7420000 102.6000000   6.5750000  17.5690000 102.0780000
   8.0750000  17.4400000 104.3900000   6.0820000  17.7010000 104.6880000
   7.2280000  16.2160000 103.8480000   6.1190000  18.6610000 104.7590000
   6.0750000  17.3190000 105.5670000   5.2800000  17.4500000 104.2220000
  17.4390000  26.0330000  35.5360000  16.2750000  25.4530000  36.6810000
  16.3810000  25.5190000  34.2380000  16.2630000  25.4580000  38.1440000
  15.1430000  24.9850000  36.1250000  16.7020000  25.5900000  32.8650000
  15.1750000  25.0130000  34.6760000  17.2250000  25.8780000  39.0720000
  15.0930000  24.8880000  38.5850000  13.9940000  24.3840000  37.2850000
  15.7550000  25.1860000  31.9350000  17.5200000  25.9380000  32.5920000
  14.2380000  24.5530000  33.7250000  16.9460000  25.6840000  40.4290000
  18.0270000  26.2480000  38.7770000  14.8280000  24.6220000  39.9480000
  14.5440000  24.6320000  32.3640000  16.0770000  25.1930000  30.4710000
  13.4410000  24.1700000  34.0110000  15.7760000  25.0290000  40.8600000
  17.5340000  26.0490000  41.0500000  14.0500000  24.1810000  40.2010000
  13.9190000  24.3490000  31.7350000  17.0670000  26.0230000  29.9770000
  15.4490000  24.3630000  29.5750000  15.5970000  24.7220000  42.3520000
  17.4150000  26.0430000  28.6380000  17.4950000  26.6220000  30.5460000
  15.7720000  24.4270000  28.2030000  14.7610000  23.8160000  29.8790000
  14.4290000  25.4350000  42.9920000  15.4870000  23.7590000  42.3920000
  16.4330000  24.9650000  42.7800000  16.7470000  25.2480000  27.7510000
  18.1110000  26.5750000  28.3240000  15.3280000  23.8530000  27.6200000
  14.2100000  24.9250000  44.4480000  14.5670000  26.3910000  43.0750000
  13.5930000  25.2740000  42.5260000  16.9530000  25.2720000  26.8450000
  13.0080000  25.5140000  45.1360000  15.0310000  25.1180000  44.9270000
  14.1010000  23.9650000  44.3670000  12.8280000  24.9780000  46.5830000
  13.1250000  26.4720000  45.2280000  12.1900000  25.3350000  44.6450000
  11.5960000  25.5070000  47.2920000  13.6510000  25.1590000  47.0620000
  12.7220000  24.0190000  46.4790000  11.4750000  24.9330000  48.7180000
  11.7180000  26.4640000  47.3980000  10.7830000  25.3380000  46.7910000
  12.2930000  25.0990000  49.2120000  11.3500000  23.9780000  48.6070000
  10.3200000  25.5360000  49.4700000  10.1660000  24.9390000  50.8850000
  10.4030000  26.4990000  49.5550000   9.4800000  25.3250000  49.0330000
  10.9810000  25.1960000  51.3450000   8.9880000  25.4580000  51.6430000
  10.1340000  23.9730000  50.8030000   9.0240000  26.4180000  51.7140000
   8.9810000  25.0750000  52.5220000   8.1860000  25.2070000  51.1770000
  14.5340000  26.0330000  88.5810000  13.3700000  25.4530000  89.7250000
  13.4760000  25.5190000  87.2820000  13.3570000  25.4580000  91.1890000
  12.2370000  24.9850000  89.1700000  13.7960000  25.5900000  85.9100000
  12.2700000  25.0130000  87.7200000  14.3200000  25.8780000  92.1160000
  12.1880000  24.8880000  91.6300000  11.0890000  24.3840000  90.3290000
  12.8500000  25.1860000  84.9800000  14.6140000  25.9380000  85.6360000
  11.3330000  24.5530000  86.7690000  14.0410000  25.6840000  93.4740000
  15.1210000  26.2480000  91.8220000  11.9230000  24.6220000  92.9930000
  11.6380000  24.6320000  85.4090000  13.1720000  25.1930000  83.5150000
  10.5350000  24.1700000  87.0560000  12.8700000  25.0290000  93.9050000
  14.6290000  26.0490000  94.0950000  11.1440000  24.1810000  93.2460000
  11.0140000  24.3490000  84.7800000  14.1620000  26.0230000  83.0220000
  12.5440000  24.3630000  82.6190000  12.6910000  24.7220000  95.3960000
  14.5100000  26.0430000  81.6830000  14.5890000  26.6220000  83.5900000
  12.8660000  24.4270000  81.2480000  11.8560000  23.8160000  82.9230000
  11.5240000  25.4350000  96.0370000  12.5820000  23.7590000  95.4370000
  13.5270000  24.9650000  95.8240000  13.8420000  25.2480000  80.7960000
  15.2050000  26.5750000  81.3680000  12.4230000  23.8530000  80.6650000
  11.3040000  24.9250000  97.4920000  11.6620000  26.3910000  96.1190000
  10.6880000  25.2740000  95.5710000  14.0480000  25.2720000  79.8890000
  10.1030000  25.5140000  98.1800000  12.1250000  25.1180000  97.9710000
  11.1960000  23.9650000  97.4120000   9.9220000  24.9780000  99.6270000
  10.2200000  26.4720000  98.2730000   9.2850000  25.3350000  97.6900000
   8.6900000  25.5070000 100.3370000  10.7450000  25.1590000 100.1070000
   9.8170000  24.0190000  99.5230000   8.5690000  24.9330000 101.7630000
   8.8120000  26.4640000 100.4420000   7.8780000  25.3380000  99.8350000
   9.3880000  25.0990000 102.2560000   8.4450000  23.9780000 101.6520000
   7.4140000  25.5360000 102.5150000   7.2610000  24.9390000 103.9300000
   7.4980000  26.4990000 102.6000000   6.5750000  25.3250000 102.0780000
   8.0750000  25.1960000 104.3900000   6.0820000  25.4580000 104.6880000
   7.2280000  23.9730000 103.8480000   6.1190000  26.4180000 104.7590000
   6.0750000  25.0750000 105.5670000   5.2800000  25.2070000 104.2220000
  17.4390000  33.7900000  35.5360000  16.2750000  33.2100000  36.6810000
  16.3810000  33.2760000  34.2380000  16.2630000  33.2150000  38.1440000
  15.1430000  32.7420000  36.1250000  16.7020000  33.3470000  32.8650000
  15.1750000  32.7700000  34.6760000  17.2250000  33.6350000  39.0720000
  15.0930000  32.6440000  38.5850000  13.9940000  32.1410000  37.2850000
  15.7550000  32.9420000  31.9350000  17.5200000  33.6950000  32.5920000
  14.2380000  32.3100000  33.7250000  16.9460000  33.4400000  40.4290000
  18.0270000  34.0040000  38.7770000  14.8280000  32.3790000  39.9480000
  14.5440000  32.3890000  32.3640000  16.0770000  32.9500000  30.4710000
  13.4410000  31.9270000  34.0110000  15.7760000  32.7860000  40.8600000
  17.5340000  33.8060000  41.0500000  14.0500000  31.9380000  40.2010000
  13.9190000  32.1050000  31.7350000  17.0670000  33.7800000  29.9770000
  15.4490000  32.1200000  29.5750000  15.5970000  32.4780000  42.3520000
  17.4150000  33.8000000  28.6380000  17.4950000  34.3790000  30.5460000
  15.7720000  32.1840000  28.2030000  14.7610000  31.5720000  29.8790000
  14.4290000  33.1910000  42.9920000  15.4870000  31.5150000  42.3920000
  16.4330000  32.7220000  42.7800000  16.7470000  33.0050000  27.7510000
  18.1110000  34.3320000  28.3240000  15.3280000  31.6100000  27.6200000
  14.2100000  32.6820000  44.4480000  14.5670000  34.1480000  43.0750000
  13.5930000  33.0310000  42.5260000  16.9530000  33.0290000  26.8450000
  13.0080000  33.2700000  45.1360000  15.0310000  32.8740000  44.9270000
  14.1010000  31.7210000  44.3670000  12.8280000  32.7340000  46.5830000
  13.1250000  34.2290000  45.2280000  12.1900000  33.0920000  44.6450000
  11.5960000  33.2640000  47.2920000  13.6510000  32.9160000  47.0620000
  12.7220000  31.7760000  46.4790000  11.4750000  32.6900000  48.7180000
  11.7180000  34.2210000  47.3980000  10.7830000  33.0950000  46.7910000
  12.2930000  32.8550000  49.2120000  11.3500000  31.7350000  48.6070000
  10.3200000  33.2930000  49.4700000  10.1660000  32.6960000  50.8850000
  10.4030000  34.2560000  49.5550000   9.4800000  33.0820000  49.0330000
  10.9810000  32.9530000  51.3450000   8.9880000  33.2150000  51.6430000
  10.1340000  31.7300000  50.8030000   9.0240000  34.1750000  51.7140000
   8.9810000  32.8320000  52.5220000   8.1860000  32.9640000  51.1770000
  14.5340000  33.7900000  88.5810000  13.3700000  33.2100000  89.7250000
  13.4760000  33.2760000  87.2820000  13.3570000  33.2150000  91.1890000
  12.2370000  32.7420000  89.1700000  13.7960000  33.3470000  85.9100000
  12.2700000  32.7700000  87.7200000  14.3200000  33.6350000  92.1160000
  12.1880000  32.6440000  91.6300000  11.0890000  32.1410000  90.3290000
  12.8500000  32.9420000  84.9800000  14.6140000  33.6950000  85.6360000
  11.3330000  32.3100000  86.7690000  14.0410000  33.4400000  93.4740000
  15.1210000  34.0040000  91.8220000  11.9230000  32.3790000  92.9930000
  11.6380000  32.3890000  85.4090000  13.1720000  32.9500000  83.5150000
  10.5350000  31.9270000  87.0560000  12.8700000  32.7860000  93.9050000
  14.6290000  33.8060000  94.0950000  11.1440000  31.9380000  93.2460000
  11.0140000  32.1050000  84.7800000  14.1620000  33.7800000  83.0220000
  12.5440000  32.1200000  82.6190000  12.6910000  32.4780000  95.3960000
  14.5100000  33.8000000  81.6830000  14.5890000  34.3790000  83.5900000
  12.8660000  32.1840000  81.2480000  11.8560000  31.5720000  82.9230000
  11.5240000  33.1910000  96.0370000  12.5820000  31.5150000  95.4370000
  13.5270000  32.7220000  95.8240000  13.8420000  33.0050000  80.7960000
  15.2050000  34.3320000  81.3680000  12.4230000  31.6100000  80.6650000
  11.3040000  32.6820000  97.4920000  11.6620000  34.1480000  96.1190000
  10.6880000  33.0310000  95.5710000  14.0480000  33.0290000  79.8890000
  10.1030000  33.2700000  98.1800000  12.1250000  32.8740000  97.9710000
  11.1960000  31.7210000  97.4120000   9.9220000  32.7340000  99.6270000
  10.2200000  34.2290000  98.2730000   9.2850000  33.0920000  97.6900000
   8.6900000  33.2640000 100.3370000  10.7450000  32.9160000 100.1070000
   9.8170000  31.7760000  99.5230000   8.5690000  32.6900000 101.7630000
   8.8120000  34.2210000 100.4420000   7.8780000  33.0950000  99.8350000
   9.3880000  32.8550000 102.2560000   8.4450000  31.7350000 101.6520000
   7.4140000  33.2930000 102.5150000   7.2610000  32.6960000 103.9300000
   7.4980000  34.2560000 102.6000000   6.5750000  33.0820000 102.0780000
   8.0750000  32.9530000 104.3900000   6.0820000  33.2150000 104.6880000
   7.2280000  31.7300000 103.8480000   6.1190000  34.1750000 104.7590000
   6.0750000  32.8320000 105.5670000   5.2800000  32.9640000 104.2220000
  17.4390000  41.5470000  35.5360000  16.2750000  40.9670000  36.6810000
  16.3810000  41.0330000  34.2380000  16.2630000  40.9710000  38.1440000
  15.1430000  40.4990000  36.1250000  16.7020000  41.1040000  32.8650000
  15.1750000  40.5270000  34.6760000  17.2250000  41.3920000  39.0720000
  15.0930000  40.4010000  38.5850000  13.9940000  39.8980000  37.2850000
  15.7550000  40.6990000  31.9350000  17.5200000  41.4510000  32.5920000
  14.2380000  40.0670000  33.7250000  16.9460000  41.1970000  40.4290000
  18.0270000  41.7610000  38.7770000  14.8280000  40.1360000  39.9480000
  14.5440000  40.1450000  32.3640000  16.0770000  40.7070000  30.4710000
  13.4410000  39.6830000  34.0110000  15.7760000  40.5420000  40.8600000
  17.5340000  41.5630000  41.0500000  14.0500000  39.6950000  40.2010000
  13.9190000  39.8620000  31.7350000  17.0670000  41.5370000  29.9770000
  15.4490000  39.8770000  29.5750000  15.5970000  40.2350000  42.3520000
  17.4150000  41.5570000  28.6380000  17.4950000  42.1360000  30.5460000
  15.7720000  39.9410000  28.2030000  14.7610000  39.3290000  29.8790000
  14.4290000  40.9480000  42.9920000  15.4870000  39.2720000  42.3920000
  16.4330000  40.4790000  42.7800000  16.7470000  40.7620000  27.7510000
  18.1110000  42.0890000  28.3240000  15.3280000  39.3670000  27.6200000
  14.2100000  40.4390000  44.4480000  14.5670000  41.9050000  43.0750000
  13.5930000  40.7880000  42.5260000  16.9530000  40.7850000  26.8450000
  13.0080000  41.0270000  45.1360000  15.0310000  40.6310000  44.9270000
  14.1010000  39.4780000  44.3670000  12.8280000  40.4910000  46.5830000
  13.1250000  41.9860000  45.2280000  12.1900000  40.8490000  44.6450000
  11.5960000  41.0210000  47.2920000  13.6510000  40.6730000  47.0620000
  12.7220000  39.5330000  46.4790000  11.4750000  40.4470000  48.7180000
  11.7180000  41.9780000  47.3980000  10.7830000  40.8510000  46.7910000
  12.2930000  40.6120000  49.2120000  11.3500000  39.4920000  48.6070000
  10.3200000  41.0500000  49.4700000  10.1660000  40.4520000  50.8850000
  10.4030000  42.0130000  49.5550000   9.4800000  40.8390000  49.0330000
  10.9810000  40.7100000  51.3450000   8.9880000  40.9710000  51.6430000
  10.1340000  39.4870000  50.8030000   9.0240000  41.9310000  51.7140000
   8.9810000  40.5890000  52.5220000   8.1860000  40.7210000  51.1770000
  14.5340000  41.5470000  88.5810000  13.3700000  40.9670000  89.7250000
  13.4760000  41.0330000  87.2820000  13.3570000  40.9710000  91.1890000
  12.2370000  40.4990000  89.1700000  13.7960000  41.1040000  85.9100000
  12.2700000  40.5270000  87.7200000  14.3200000  41.3920000  92.1160000
  12.1880000  40.4010000  91.6300000  11.0890000  39.8980000  90.3290000
  12.8500000  40.6990000  84.9800000  14.6140000  41.4510000  85.6360000
  11.3330000  40.0670000  86.7690000  14.0410000  41.1970000  93.4740000
  15.1210000  41.7610000  91.8220000  11.9230000  40.1360000  92.9930000
  11.6380000  40.1450000  85.4090000  13.1720000  40.7070000  83.5150000
  10.5350000  39.6830000  87.0560000  12.8700000  40.5420000  93.9050000
  14.6290000  41.5630000  94.0950000  11.1440000  39.6950000  93.2460000
  11.0140000  39.8620000  84.7800000  14.1620000  41.5370000  83.0220000
  12.5440000  39.8770000  82.6190000  12.6910000  40.2350000  95.3960000
  14.5100000  41.5570000  81.6830000  14.5890000  42.1360000  83.5900000
  12.8660000  39.9410000  81.2480000  11.8560000  39.3290000  82.9230000
  11.5240000  40.9480000  96.0370000  12.5820000  39.2720000  95.4370000
  13.5270000  40.4790000  95.8240000  13.8420000  40.7620000  80.7960000
  15.2050000  42.0890000  81.3680000  12.4230000  39.3670000  80.6650000
  11.3040000  40.4390000  97.4920000  11.6620000  41.9050000  96.1190000
  10.6880000  40.7880000  95.5710000  14.0480000  40.7850000  79.8890000
  10.1030000  41.0270000  98.1800000  12.1250000  40.6310000  97.9710000
  11.1960000  39.4780000  97.4120000   9.9220000  40.4910000  99.6270000
  10.2200000  41.9860000  98.2730000   9.2850000  40.8490000  97.6900000
   8.6900000  41.0210000 100.3370000  10.7450000  40.6730000 100.1070000
   9.8170000  39.5330000  99.5230000   8.5690000  40.4470000 101.7630000
   8.8120000  41.9780000 100.4420000   7.8780000  40.8510000  99.8350000
   9.3880000  40.6120000 102.2560000   8.4450000  39.4920000 101.6520000
   7.4140000  41.0500000 102.5150000   7.2610000  40.4520000 103.9300000
   7.4980000  42.0130000 102.6000000   6.5750000  40.8390000 102.0780000
   8.0750000  40.7100000 104.3900000   6.0820000  40.9710000 104.6880000
   7.2280000  39.4870000 103.8480000   6.1190000  41.9310000 104.7590000
   6.0750000  40.5890000 105.5670000   5.2800000  40.7210000 104.2220000
  17.4390000   2.7630000  35.5360000  16.2750000   2.1830000  36.6810000
  16.3810000   2.2490000  34.2380000  16.2630000   2.1870000  38.1440000
  15.1430000   1.7150000  36.1250000  16.7020000   2.3200000  32.8650000
  15.1750000   1.7430000  34.6760000  17.2250000   2.6080000  39.0720000
  15.0930000   1.6170000  38.5850000  13.9940000   1.1140000  37.2850000
  15.7550000   1.9150000  31.9350000  17.5200000   2.6670000  32.5920000
  14.2380000   1.2830000  33.7250000  16.9460000   2.4130000  40.4290000
  18.0270000   2.9770000  38.7770000  14.8280000   1.3520000  39.9480000
  14.5440000   1.3610000  32.3640000  16.0770000   1.9230000  30.4710000
  13.4410000   0.8990000  34.0110000  15.7760000   1.7580000  40.8600000
  17.5340000   2.7790000  41.0500000  14.0500000   0.9110000  40.2010000
  13.9190000   1.0780000  31.7350000  17.0670000   2.7530000  29.9770000
  15.4490000   1.0930000  29.5750000  15.5970000   1.4510000  42.3520000
  17.4150000   2.7730000  28.6380000  17.4950000   3.3520000  30.5460000
  15.7720000   1.1570000  28.2030000  14.7610000   0.5450000  29.8790000
  14.4290000   2.1640000  42.9920000  15.4870000   0.4880000  42.3920000
  16.4330000   1.6950000  42.7800000  16.7470000   1.9780000  27.7510000
  18.1110000   3.3050000  28.3240000  15.3280000   0.5830000  27.6200000
  14.2100000   1.6550000  44.4480000  14.5670000   3.1210000  43.0750000
  13.5930000   2.0040000  42.5260000  16.9530000   2.0010000  26.8450000
  13.0080000   2.2430000  45.1360000  15.0310000   1.8470000  44.9270000
  14.1010000   0.6940000  44.3670000  12.8280000   1.7070000  46.5830000
  13.1250000   3.2020000  45.2280000  12.1900000   2.0650000  44.6450000
  11.5960000   2.2370000  47.2920000  13.6510000   1.8890000  47.0620000
  12.7220000   0.7490000  46.4790000  11.4750000   1.6630000  48.7180000
  11.7180000   3.1940000  47.3980000  10.7830000   2.0670000  46.7910000
  12.2930000   1.8280000  49.2120000  11.3500000   0.7080000  48.6070000
  10.3200000   2.2660000  49.4700000  10.1660000   1.6680000  50.8850000
  10.4030000   3.2290000  49.5550000   9.4800000   2.0550000  49.0330000
  10.9810000   1.9260000  51.3450000   8.9880000   2.1870000  51.6430000
  10.1340000   0.7030000  50.8030000   9.0240000   3.1470000  51.7140000
   8.9810000   1.8050000  52.5220000   8.1860000   1.9370000  51.1770000
  14.5340000   2.7630000  88.5810000  13.3700000   2.1830000  89.7250000
  13.4760000   2.2490000  87.2820000  13.3570000   2.1870000  91.1890000
  12.2370000   1.7150000  89.1700000  13.7960000   2.3200000  85.9100000
  12.2700000   1.7430000  87.7200000  14.3200000   2.6080000  92.1160000
  12.1880000   1.6170000  91.6300000  11.0890000   1.1140000  90.3290000
  12.8500000   1.9150000  84.9800000  14.6140000   2.6670000  85.6360000
  11.3330000   1.2830000  86.7690000  14.0410000   2.4130000  93.4740000
  15.1210000   2.9770000  91.8220000  11.9230000   1.3520000  92.9930000
  11.6380000   1.3610000  85.4090000  13.1720000   1.9230000  83.5150000
  10.5350000   0.8990000  87.0560000  12.8700000   1.7580000  93.9050000
  14.6290000   2.7790000  94.0950000  11.1440000   0.9110000  93.2460000
  11.0140000   1.0780000  84.7800000  14.1620000   2.7530000  83.0220000
  12.5440000   1.0930000  82.6190000  12.6910000   1.4510000  95.3960000
  14.5100000   2.7730000  81.6830000  14.5890000   3.3520000  83.5900000
  12.8660000   1.1570000  81.2480000  11.8560000   0.5450000  82.9230000
  11.5240000   2.1640000  96.0370000  12.5820000   0.4880000  95.4370000
  13.5270000   1.6950000  95.8240000  13.8420000   1.9780000  80.7960000
  15.2050000   3.3050000  81.3680000  12.4230000   0.5830000  80.6650000
  11.3040000   1.6550000  97.4920000  11.6620000   3.1210000  96.1190000
  10.6880000   2.0040000  95.5710000  14.0480000   2.0010000  79.8890000
  10.1030000   2.2430000  98.1800000  12.1250000   1.8470000  97.9710000
  11.1960000   0.6940000  97.4120000   9.9220000   1.7070000  99.6270000
  10.2200000   3.2020000  98.2730000   9.2850000   2.0650000  97.6900000
   8.6900000   2.2370000 100.3370000  10.7450000   1.8890000 100.1070000
   9.8170000   0.7490000  99.5230000   8.5690000   1.6630000 101.7630000
   8.8120000   3.1940000 100.4420000   7.8780000   2.0670000  99.8350000
   9.3880000   1.8280000 102.2560000   8.4450000   0.7080000 101.6520000
   7.4140000   2.2660000 102.5150000   7.2610000   1.6680000 103.9300000
   7.4980000   3.2290000 102.6000000   6.5750000   2.0550000 102.0780000
   8.0750000   1.9260000 104.3900000   6.0820000   2.1870000 104.6880000
   7.2280000   0.7030000 103.8480000   6.1190000   3.1470000 104.7590000
   6.0750000   1.8050000 105.5670000   5.2800000   1.9370000 104.2220000
  12.9140000   8.8720000  17.5080000  14.0790000   9.4520000  16.3640000
  13.9730000   9.3870000  18.8070000  14.0910000   9.4480000  14.9000000
  15.2110000   9.9200000  16.9190000  13.6520000   9.3150000  20.1790000
  15.1780000   9.8920000  18.3690000  13.1290000   9.0270000  13.9730000
  15.2610000  10.0180000  14.4590000  16.3600000  10.5210000  15.7600000
  14.5980000   9.7200000  21.1090000  12.8340000   8.9680000  20.4530000
  16.1160000  10.3520000  19.3200000  13.4080000   9.2220000  12.6150000
  12.3270000   8.6580000  14.2670000  15.5260000  10.2830000  13.0960000
  15.8100000  10.2740000  20.6800000  14.2770000   9.7120000  22.5740000
  16.9130000  10.7360000  19.0330000  14.5780000   9.8770000  12.1840000
  12.8200000   8.8560000  11.9940000  16.3040000  10.7240000  12.8430000
  16.4350000  10.5570000  21.3090000  13.2870000   8.8820000  23.0670000
  14.9040000  10.5420000  23.4700000  14.7570000  10.1840000  10.6930000
  12.9390000   8.8620000  24.4060000  12.8590000   8.2840000  22.4990000
  14.5820000  10.4790000  24.8410000  15.5920000  11.0900000  23.1660000
  15.9250000   9.4710000  10.0520000  14.8660000  11.1470000  10.6520000
  13.9210000   9.9400000  10.2650000  13.6070000   9.6570000  25.2930000
  12.2430000   8.3310000  24.7210000  15.0250000  11.0520000  25.4240000
  16.1440000   9.9810000   8.5970000  15.7870000   8.5140000   9.9700000
  16.7600000   9.6310000  10.5180000  13.4010000   9.6340000  26.2000000
  17.3460000   9.3920000   7.9090000  15.3230000   9.7880000   8.1180000
  16.2530000  10.9410000   8.6770000  17.5260000   9.9280000   6.4620000
  17.2290000   8.4330000   7.8160000  18.1640000   9.5700000   8.3990000
  18.7580000   9.3980000   5.7520000  16.7030000   9.7460000   5.9820000
  17.6310000  10.8860000   6.5660000  18.8790000   9.9720000   4.3260000
  18.6360000   8.4420000   5.6470000  19.5710000   9.5680000   6.2540000
  18.0610000   9.8070000   3.8330000  19.0040000  10.9270000   4.4370000
  20.0340000   9.3690000   3.5740000  20.1880000   9.9670000   2.1590000
  19.9510000   8.4060000   3.4890000  20.8740000   9.5800000   4.0110000
  19.3730000   9.7090000   1.6990000  21.3660000   9.4480000   1.4010000
  20.2200000  10.9330000   2.2410000  21.3300000   8.4880000   1.3300000
  21.3730000   9.8300000   0.5220000  22.1680000   9.6980000   1.8670000
  12.9140000  16.6290000  17.5080000  14.0790000  17.2090000  16.3640000
  13.9730000  17.1430000  18.8070000  14.0910000  17.2050000  14.9000000
  15.2110000  17.6770000  16.9190000  13.6520000  17.0720000  20.1790000
  15.1780000  17.6490000  18.3690000  13.1290000  16.7840000  13.9730000
  15.2610000  17.7750000  14.4590000  16.3600000  18.2780000  15.7600000
  14.5980000  17.4770000  21.1090000  12.8340000  16.7250000  20.4530000
  16.1160000  18.1090000  19.3200000  13.4080000  16.9790000  12.6150000
  12.3270000  16.4150000  14.2670000  15.5260000  18.0400000  13.0960000
  15.8100000  18.0310000  20.6800000  14.2770000  17.4690000  22.5740000
  16.9130000  18.4930000  19.0330000  14.5780000  17.6340000  12.1840000
  12.8200000  16.6130000  11.9940000  16.3040000  18.4810000  12.8430000
  16.4350000  18.3140000  21.3090000  13.2870000  16.6390000  23.0670000
  14.9040000  18.2990000  23.4700000  14.7570000  17.9410000  10.6930000
  12.9390000  16.6190000  24.4060000  12.8590000  16.0400000  22.4990000
  14.5820000  18.2350000  24.8410000  15.5920000  18.8470000  23.1660000
  15.9250000  17.2280000  10.0520000  14.8660000  18.9040000  10.6520000
  13.9210000  17.6970000  10.2650000  13.6070000  17.4140000  25.2930000
  12.2430000  16.0870000  24.7210000  15.0250000  18.8090000  25.4240000
  16.1440000  17.7370000   8.5970000  15.7870000  16.2710000   9.9700000
  16.7600000  17.3880000  10.5180000  13.4010000  17.3910000  26.2000000
  17.3460000  17.1490000   7.9090000  15.3230000  17.5450000   8.1180000
  16.2530000  18.6980000   8.6770000  17.5260000  17.6850000   6.4620000
  17.2290000  16.1900000   7.8160000  18.1640000  17.3270000   8.3990000
  18.7580000  17.1550000   5.7520000  16.7030000  17.5030000   5.9820000
  17.6310000  18.6430000   6.5660000  18.8790000  17.7290000   4.3260000
  18.6360000  16.1980000   5.6470000  19.5710000  17.3250000   6.2540000
  18.0610000  17.5640000   3.8330000  19.0040000  18.6840000   4.4370000
  20.0340000  17.1260000   3.5740000  20.1880000  17.7240000   2.1590000
  19.9510000  16.1630000   3.4890000  20.8740000  17.3370000   4.0110000
  19.3730000  17.4660000   1.6990000  21.3660000  17.2050000   1.4010000
  20.2200000  18.6890000   2.2410000  21.3300000  16.2450000   1.3300000
  21.3730000  17.5870000   0.5220000  22.1680000  17.4550000   1.8670000
  12.9140000  24.3860000  17.5080000  14.0790000  24.9660000  16.3640000
  13.9730000  24.9000000  18.8070000  14.0910000  24.9610000  14.9000000
  15.2110000  25.4340000  16.9190000  13.6520000  24.8290000  20.1790000
  15.1780000  25.4060000  18.3690000  13.1290000  24.5410000  13.9730000
  15.2610000  25.5320000  14.4590000  16.3600000  26.0350000  15.7600000
  14.5980000  25.2340000  21.1090000  12.8340000  24.4810000  20.4530000
  16.1160000  25.8660000  19.3200000  13.4080000  24.7360000  12.6150000
  12.3270000  24.1720000  14.2670000  15.5260000  25.7970000  13.0960000
  15.8100000  25.7870000  20.6800000  14.2770000  25.2260000  22.5740000
  16.9130000  26.2490000  19.0330000  14.5780000  25.3900000  12.1840000
  12.8200000  24.3700000  11.9940000  16.3040000  26.2380000  12.8430000
  16.4350000  26.0710000  21.3090000  13.2870000  24.3960000  23.0670000
  14.9040000  26.0560000  23.4700000  14.7570000  25.6980000  10.6930000
  12.9390000  24.3760000  24.4060000  12.8590000  23.7970000  22.4990000
  14.5820000  25.9920000  24.8410000  15.5920000  26.6040000  23.1660000
  15.9250000  24.9850000  10.0520000  14.8660000  26.6610000  10.6520000
  13.9210000  25.4540000  10.2650000  13.6070000  25.1710000  25.2930000
  12.2430000  23.8440000  24.7210000  15.0250000  26.5660000  25.4240000
  16.1440000  25.4940000   8.5970000  15.7870000  24.0280000   9.9700000
  16.7600000  25.1450000  10.5180000  13.4010000  25.1470000  26.2000000
  17.3460000  24.9060000   7.9090000  15.3230000  25.3020000   8.1180000
  16.2530000  26.4550000   8.6770000  17.5260000  25.4420000   6.4620000
  17.2290000  23.9470000   7.8160000  18.1640000  25.0840000   8.3990000
  18.7580000  24.9120000   5.7520000  16.7030000  25.2600000   5.9820000
  17.6310000  26.4000000   6.5660000  18.8790000  25.4860000   4.3260000
  18.6360000  23.9550000   5.6470000  19.5710000  25.0810000   6.2540000
  18.0610000  25.3210000   3.8330000  19.0040000  26.4410000   4.4370000
  20.0340000  24.8830000   3.5740000  20.1880000  25.4800000   2.1590000
  19.9510000  23.9200000   3.4890000  20.8740000  25.0940000   4.0110000
  19.3730000  25.2230000   1.6990000  21.3660000  24.9610000   1.4010000
  20.2200000  26.4460000   2.2410000  21.3300000  24.0010000   1.3300000
  21.3730000  25.3440000   0.5220000  22.1680000  25.2120000   1.8670000
  12.9140000  32.1430000  17.5080000  14.0790000  32.7230000  16.3640000
  13.9730000  32.6570000  18.8070000  14.0910000  32.7180000  14.9000000
  15.2110000  33.1910000  16.9190000  13.6520000  32.5860000  20.1790000
  15.1780000  33.1630000  18.3690000  13.1290000  32.2980000  13.9730000
  15.2610000  33.2880000  14.4590000  16.3600000  33.7920000  15.7600000
  14.5980000  32.9900000  21.1090000  12.8340000  32.2380000  20.4530000
  16.1160000  33.6230000  19.3200000  13.4080000  32.4920000  12.6150000
  12.3270000  31.9280000  14.2670000  15.5260000  33.5540000  13.0960000
  15.8100000  33.5440000  20.6800000  14.2770000  32.9830000  22.5740000
  16.9130000  34.0060000  19.0330000  14.5780000  33.1470000  12.1840000
  12.8200000  32.1270000  11.9940000  16.3040000  33.9950000  12.8430000
  16.4350000  33.8270000  21.3090000  13.2870000  32.1530000  23.0670000
  14.9040000  33.8130000  23.4700000  14.7570000  33.4540000  10.6930000
  12.9390000  32.1330000  24.4060000  12.8590000  31.5540000  22.4990000
  14.5820000  33.7490000  24.8410000  15.5920000  34.3600000  23.1660000
  15.9250000  32.7410000  10.0520000  14.8660000  34.4170000  10.6520000
  13.9210000  33.2110000  10.2650000  13.6070000  32.9280000  25.2930000
  12.2430000  31.6010000  24.7210000  15.0250000  34.3230000  25.4240000
  16.1440000  33.2510000   8.5970000  15.7870000  31.7850000   9.9700000
  16.7600000  32.9020000  10.5180000  13.4010000  32.9040000  26.2000000
  17.3460000  32.6620000   7.9090000  15.3230000  33.0580000   8.1180000
  16.2530000  34.2110000   8.6770000  17.5260000  33.1980000   6.4620000
  17.2290000  31.7040000   7.8160000  18.1640000  32.8410000   8.3990000
  18.7580000  32.6690000   5.7520000  16.7030000  33.0170000   5.9820000
  17.6310000  34.1570000   6.5660000  18.8790000  33.2430000   4.3260000
  18.6360000  31.7120000   5.6470000  19.5710000  32.8380000   6.2540000
  18.0610000  33.0770000   3.8330000  19.0040000  34.1980000   4.4370000
  20.0340000  32.6400000   3.5740000  20.1880000  33.2370000   2.1590000
  19.9510000  31.6770000   3.4890000  20.8740000  32.8510000   4.0110000
  19.3730000  32.9800000   1.6990000  21.3660000  32.7180000   1.4010000
  20.2200000  34.2030000   2.2410000  21.3300000  31.7580000   1.3300000
  21.3730000  33.1010000   0.5220000  22.1680000  32.9690000   1.8670000
  12.9140000  39.8990000  17.5080000  14.0790000  40.4800000  16.3640000
  13.9730000  40.4140000  18.8070000  14.0910000  40.4750000  14.9000000
  15.2110000  40.9470000  16.9190000  13.6520000  40.3420000  20.1790000
  15.1780000  40.9190000  18.3690000  13.1290000  40.0550000  13.9730000
  15.2610000  41.0450000  14.4590000  16.3600000  41.5490000  15.7600000
  14.5980000  40.7470000  21.1090000  12.8340000  39.9950000  20.4530000
  16.1160000  41.3790000  19.3200000  13.4080000  40.2490000  12.6150000
  12.3270000  39.6850000  14.2670000  15.5260000  41.3100000  13.0960000
  15.8100000  41.3010000  20.6800000  14.2770000  40.7390000  22.5740000
  16.9130000  41.7630000  19.0330000  14.5780000  40.9040000  12.1840000
  12.8200000  39.8840000  11.9940000  16.3040000  41.7520000  12.8430000
  16.4350000  41.5840000  21.3090000  13.2870000  39.9100000  23.0670000
  14.9040000  41.5690000  23.4700000  14.7570000  41.2110000  10.6930000
  12.9390000  39.8890000  24.4060000  12.8590000  39.3110000  22.4990000
  14.5820000  41.5060000  24.8410000  15.5920000  42.1170000  23.1660000
  15.9250000  40.4980000  10.0520000  14.8660000  42.1740000  10.6520000
  13.9210000  40.9680000  10.2650000  13.6070000  40.6840000  25.2930000
  12.2430000  39.3580000  24.7210000  15.0250000  42.0790000  25.4240000
  16.1440000  41.0080000   8.5970000  15.7870000  39.5410000   9.9700000
  16.7600000  40.6580000  10.5180000  13.4010000  40.6610000  26.2000000
  17.3460000  40.4190000   7.9090000  15.3230000  40.8150000   8.1180000
  16.2530000  41.9680000   8.6770000  17.5260000  40.9550000   6.4620000
  17.2290000  39.4600000   7.8160000  18.1640000  40.5980000   8.3990000
  18.7580000  40.4250000   5.7520000  16.7030000  40.7730000   5.9820000
  17.6310000  41.9140000   6.5660000  18.8790000  40.9990000   4.3260000
  18.6360000  39.4690000   5.6470000  19.5710000  40.5950000   6.2540000
  18.0610000  40.8340000   3.8330000  19.0040000  41.9550000   4.4370000
  20.0340000  40.3970000   3.5740000  20.1880000  40.9940000   2.1590000
  19.9510000  39.4340000   3.4890000  20.8740000  40.6070000   4.0110000
  19.3730000  40.7360000   1.6990000  21.3660000  40.4750000   1.4010000
  20.2200000  41.9600000   2.2410000  21.3300000  39.5150000   1.3300000
  21.3730000  40.8570000   0.5220000  22.1680000  40.7260000   1.8670000
  10.0090000   8.8720000  70.5530000  11.1740000   9.4520000  69.4080000
  11.0670000   9.3870000  71.8510000  11.1860000   9.4480000  67.9450000
  12.3060000   9.9200000  69.9640000  10.7470000   9.3150000  73.2240000
  12.2730000   9.8920000  71.4130000  10.2230000   9.0270000  67.0170000
  12.3550000  10.0180000  67.5040000  13.4540000  10.5210000  68.8040000
  11.6930000   9.7200000  74.1540000   9.9290000   8.9680000  73.4970000
  13.2100000  10.3520000  72.3640000  10.5030000   9.2220000  65.6600000
   9.4220000   8.6580000  67.3120000  12.6210000  10.2830000  66.1410000
  12.9050000  10.2740000  73.7250000  11.3720000   9.7120000  75.6180000
  14.0080000  10.7360000  72.0780000  11.6730000   9.8770000  65.2290000
   9.9150000   8.8560000  65.0390000  13.3990000  10.7240000  65.8880000
  13.5290000  10.5570000  74.3540000  10.3810000   8.8820000  76.1120000
  11.9990000  10.5420000  76.5140000  11.8520000  10.1840000  63.7370000
  10.0330000   8.8620000  77.4510000   9.9540000   8.2840000  75.5430000
  11.6770000  10.4790000  77.8860000  12.6870000  11.0900000  76.2100000
  13.0190000   9.4710000  63.0970000  11.9610000  11.1470000  63.6970000
  11.0160000   9.9400000  63.3090000  10.7010000   9.6570000  78.3380000
   9.3380000   8.3310000  77.7650000  12.1200000  11.0520000  78.4690000
  13.2390000   9.9810000  61.6410000  12.8810000   8.5140000  63.0140000
  13.8550000   9.6310000  63.5630000  10.4960000   9.6340000  79.2440000
  14.4410000   9.3920000  60.9530000  12.4180000   9.7880000  61.1620000
  13.3470000  10.9410000  61.7220000  14.6210000   9.9280000  59.5060000
  14.3230000   8.4330000  60.8610000  15.2580000   9.5700000  61.4440000
  15.8530000   9.3980000  58.7970000  13.7980000   9.7460000  59.0270000
  14.7260000  10.8860000  59.6100000  15.9740000   9.9720000  57.3710000
  15.7310000   8.4420000  58.6910000  16.6650000   9.5680000  59.2980000
  15.1550000   9.8070000  56.8770000  16.0980000  10.9270000  57.4820000
  17.1290000   9.3690000  56.6190000  17.2830000   9.9670000  55.2040000
  17.0460000   8.4060000  56.5340000  17.9690000   9.5800000  57.0560000
  16.4680000   9.7090000  54.7440000  18.4610000   9.4480000  54.4460000
  17.3150000  10.9330000  55.2860000  18.4240000   8.4880000  54.3750000
  18.4680000   9.8300000  53.5670000  19.2630000   9.6980000  54.9120000
  10.0090000  16.6290000  70.5530000  11.1740000  17.2090000  69.4080000
  11.0670000  17.1430000  71.8510000  11.1860000  17.2050000  67.9450000
  12.3060000  17.6770000  69.9640000  10.7470000  17.0720000  73.2240000
  12.2730000  17.6490000  71.4130000  10.2230000  16.7840000  67.0170000
  12.3550000  17.7750000  67.5040000  13.4540000  18.2780000  68.8040000
  11.6930000  17.4770000  74.1540000   9.9290000  16.7250000  73.4970000
  13.2100000  18.1090000  72.3640000  10.5030000  16.9790000  65.6600000
   9.4220000  16.4150000  67.3120000  12.6210000  18.0400000  66.1410000
  12.9050000  18.0310000  73.7250000  11.3720000  17.4690000  75.6180000
  14.0080000  18.4930000  72.0780000  11.6730000  17.6340000  65.2290000
   9.9150000  16.6130000  65.0390000  13.3990000  18.4810000  65.8880000
  13.5290000  18.3140000  74.3540000  10.3810000  16.6390000  76.1120000
  11.9990000  18.2990000  76.5140000  11.8520000  17.9410000  63.7370000
  10.0330000  16.6190000  77.4510000   9.9540000  16.0400000  75.5430000
  11.6770000  18.2350000  77.8860000  12.6870000  18.8470000  76.2100000
  13.0190000  17.2280000  63.0970000  11.9610000  18.9040000  63.6970000
  11.0160000  17.6970000  63.3090000  10.7010000  17.4140000  78.3380000
   9.3380000  16.0870000  77.7650000  12.1200000  18.8090000  78.4690000
  13.2390000  17.7370000  61.6410000  12.8810000  16.2710000  63.0140000
  13.8550000  17.3880000  63.5630000  10.4960000  17.3910000  79.2440000
  14.4410000  17.1490000  60.9530000  12.4180000  17.5450000  61.1620000
  13.3470000  18.6980000  61.7220000  14.6210000  17.6850000  59.5060000
  14.3230000  16.1900000  60.8610000  15.2580000  17.3270000  61.4440000
  15.8530000  17.1550000  58.7970000  13.7980000  17.5030000  59.0270000
  14.7260000  18.6430000  59.6100000  15.9740000  17.7290000  57.3710000
  15.7310000  16.1980000  58.6910000  16.6650000  17.3250000  59.2980000
  15.1550000  17.5640000  56.8770000  16.0980000  18.6840000  57.4820000
  17.1290000  17.1260000  56.6190000  17.2830000  17.7240000  55.2040000
  17.0460000  16.1630000  56.5340000  17.9690000  17.3370000  57.0560000
  16.4680000  17.4660000  54.7440000  18.4610000  17.2050000  54.4460000
  17.3150000  18.6890000  55.2860000  18.4240000  16.2450000  54.3750000
  18.4680000  17.5870000  53.5670000  19.2630000  17.4550000  54.9120000
  10.0090000  24.3860000  70.5530000  11.1740000  24.9660000  69.4080000
  11.0670000  24.9000000  71.8510000  11.1860000  24.9610000  67.9450000
  12.3060000  25.4340000  69.9640000  10.7470000  24.8290000  73.2240000
  12.2730000  25.4060000  71.4130000  10.2230000  24.5410000  67.0170000
  12.3550000  25.5320000  67.5040000  13.4540000  26.0350000  68.8040000
  11.6930000  25.2340000  74.1540000   9.9290000  24.4810000  73.4970000
  13.2100000  25.8660000  72.3640000  10.5030000  24.7360000  65.6600000
   9.4220000  24.1720000  67.3120000  12.6210000  25.7970000  66.1410000
  12.9050000  25.7870000  73.7250000  11.3720000  25.2260000  75.6180000
  14.0080000  26.2490000  72.0780000  11.6730000  25.3900000  65.2290000
   9.9150000  24.3700000  65.0390000  13.3990000  26.2380000  65.8880000
  13.5290000  26.0710000  74.3540000  10.3810000  24.3960000  76.1120000
  11.9990000  26.0560000  76.5140000  11.8520000  25.6980000  63.7370000
  10.0330000  24.3760000  77.4510000   9.9540000  23.7970000  75.5430000
  11.6770000  25.9920000  77.8860000  12.6870000  26.6040000  76.2100000
  13.0190000  24.9850000  63.0970000  11.9610000  26.6610000  63.6970000
  11.0160000  25.4540000  63.3090000  10.7010000  25.1710000  78.3380000
   9.3380000  23.8440000  77.7650000  12.1200000  26.5660000  78.4690000
  13.2390000  25.4940000  61.6410000  12.8810000  24.0280000  63.0140000
  13.8550000  25.1450000  63.5630000  10.4960000  25.1470000  79.2440000
  14.4410000  24.9060000  60.9530000  12.4180000  25.3020000  61.1620000
  13.3470000  26.4550000  61.7220000  14.6210000  25.4420000  59.5060000
  14.3230000  23.9470000  60.8610000  15.2580000  25.0840000  61.4440000
  15.8530000  24.9120000  58.7970000  13.7980000  25.2600000  59.0270000
  14.7260000  26.4000000  59.6100000  15.9740000  25.4860000  57.3710000
  15.7310000  23.9550000  58.6910000  16.6650000  25.0810000  59.2980000
  15.1550000  25.3210000  56.8770000  16.0980000  26.4410000  57.4820000
  17.1290000  24.8830000  56.6190000  17.2830000  25.4800000  55.2040000
  17.0460000  23.9200000  56.5340000  17.9690000  25.0940000  57.0560000
  16.4680000  25.2230000  54.7440000  18.4610000  24.9610000  54.4460000
  17.3150000  26.4460000  55.2860000  18.4240000  24.0010000  54.3750000
  18.4680000  25.3440000  53.5670000  19.2630000  25.2120000  54.9120000
  10.0090000  32.1430000  70.5530000  11.1740000  32.7230000  69.4080000
  11.0670000  32.6570000  71.8510000  11.1860000  32.7180000  67.9450000
  12.3060000  33.1910000  69.9640000  10.7470000  32.5860000  73.2240000
  12.2730000  33.1630000  71.4130000  10.2230000  32.2980000  67.0170000
  12.3550000  33.2880000  67.5040000  13.4540000  33.7920000  68.8040000
  11.6930000  32.9900000  74.1540000   9.9290000  32.2380000  73.4970000
  13.2100000  33.6230000  72.3640000  10.5030000  32.4920000  65.6600000
   9.4220000  31.9280000  67.3120000  12.6210000  33.5540000  66.1410000
  12.9050000  33.5440000  73.7250000  11.3720000  32.9830000  75.6180000
  14.0080000  34.0060000  72.0780000  11.6730000  33.1470000  65.2290000
   9.9150000  32.1270000  65.0390000  13.3990000  33.9950000  65.8880000
  13.5290000  33.8270000  74.3540000  10.3810000  32.1530000  76.1120000
  11.9990000  33.8130000  76.5140000  11.8520000  33.4540000  63.7370000
  10.0330000  32.1330000  77.4510000   9.9540000  31.5540000  75.5430000
  11.6770000  33.7490000  77.8860000  12.6870000  34.3600000  76.2100000
  13.0190000  32.7410000  63.0970000  11.9610000  34.4170000  63.6970000
  11.0160000  33.2110000  63.3090000  10.7010000  32.9280000  78.3380000
   9.3380000  31.6010000  77.7650000  12.1200000  34.3230000  78.4690000
  13.2390000  33.2510000  61.6410000  12.8810000  31.7850000  63.0140000
  13.8550000  32.9020000  63.5630000  10.4960000  32.9040000  79.2440000
  14.4410000  32.6620000  60.9530000  12.4180000  33.0580000  61.1620000
  13.3470000  34.2110000  61.7220000  14.6210000  33.1980000  59.5060000
  14.3230000  31.7040000  60.8610000  15.2580000  32.8410000  61.4440000
  15.8530000  32.6690000  58.7970000  13.7980000  33.0170000  59.0270000
  14.7260000  34.1570000  59.6100000  15.9740000  33.2430000  57.3710000
  15.7310000  31.7120000  58.6910000  16.6650000  32.8380000  59.2980000
  15.1550000  33.0770000  56.8770000  16.0980000  34.1980000  57.4820000
  17.1290000  32.6400000  56.6190000  17.2830000  33.2370000  55.2040000
  17.0460000  31.6770000  56.5340000  17.9690000  32.8510000  57.0560000
  16.4680000  32.9800000  54.7440000  18.4610000  32.7180000  54.4460000
  17.3150000  34.2030000  55.2860000  18.4240000  31.7580000  54.3750000
  18.4680000  33.1010000  53.5670000  19.2630000  32.9690000  54.9120000
  10.0090000  39.8990000  70.5530000  11.1740000  40.4800000  69.4080000
  11.0670000  40.4140000  71.8510000  11.1860000  40.4750000  67.9450000
  12.3060000  40.9470000  69.9640000  10.7470000  40.3420000  73.2240000
  12.2730000  40.9190000  71.4130000  10.2230000  40.0550000  67.0170000
  12.3550000  41.0450000  67.5040000  13.4540000  41.5490000  68.8040000
  11.6930000  40.7470000  74.1540000   9.9290000  39.9950000  73.4970000
  13.2100000  41.3790000  72.3640000  10.5030000  40.2490000  65.6600000
   9.4220000  39.6850000  67.3120000  12.6210000  41.3100000  66.1410000
  12.9050000  41.3010000  73.7250000  11.3720000  40.7390000  75.6180000
  14.0080000  41.7630000  72.0780000  11.6730000  40.9040000  65.2290000
   9.9150000  39.8840000  65.0390000  13.3990000  41.7520000  65.8880000
  13.5290000  41.5840000  74.3540000  10.3810000  39.9100000  76.1120000
  11.9990000  41.5690000  76.5140000  11.8520000  41.2110000  63.7370000
  10.0330000  39.8890000  77.4510000   9.9540000  39.3110000  75.5430000
  11.6770000  41.5060000  77.8860000  12.6870000  42.1170000  76.2100000
  13.0190000  40.4980000  63.0970000  11.9610000  42.1740000  63.6970000
  11.0160000  40.9680000  63.3090000  10.7010000  40.6840000  78.3380000
   9.3380000  39.3580000  77.7650000  12.1200000  42.0790000  78.4690000
  13.2390000  41.0080000  61.6410000  12.8810000  39.5410000  63.0140000
  13.8550000  40.6580000  63.5630000  10.4960000  40.6610000  79.2440000
  14.4410000  40.4190000  60.9530000  12.4180000  40.8150000  61.1620000
  13.3470000  41.9680000  61.7220000  14.6210000  40.9550000  59.5060000
  14.3230000  39.4600000  60.8610000  15.2580000  40.5980000  61.4440000
  15.8530000  40.4250000  58.7970000  13.7980000  40.7730000  59.0270000
  14.7260000  41.9140000  59.6100000  15.9740000  40.9990000  57.3710000
  15.7310000  39.4690000  58.6910000  16.6650000  40.5950000  59.2980000
  15.1550000  40.8340000  56.8770000  16.0980000  41.9550000  57.4820000
  17.1290000  40.3970000  56.6190000  17.2830000  40.9940000  55.2040000
  17.0460000  39.4340000  56.5340000  17.9690000  40.6070000  57.0560000
  16.4680000  40.7360000  54.7440000  18.4610000  40.4750000  54.4460000
  17.3150000  41.9600000  55.2860000  18.4240000  39.5150000  54.3750000
  18.4680000  40.8570000  53.5670000  19.2630000  40.7260000  54.9120000
  12.9140000   1.1150000  17.5080000  14.0790000   1.6960000  16.3640000
  13.9730000   1.6300000  18.8070000  14.0910000   1.6910000  14.9000000
  15.2110000   2.1630000  16.9190000  13.6520000   1.5580000  20.1790000
  15.1780000   2.1350000  18.3690000  13.1290000   1.2710000  13.9730000
  15.2610000   2.2610000  14.4590000  16.3600000   2.7650000  15.7600000
  14.5980000   1.9630000  21.1090000  12.8340000   1.2110000  20.4530000
  16.1160000   2.5950000  19.3200000  13.4080000   1.4650000  12.6150000
  12.3270000   0.9010000  14.2670000  15.5260000   2.5260000  13.0960000
  15.8100000   2.5170000  20.6800000  14.2770000   1.9550000  22.5740000
  16.9130000   2.9790000  19.0330000  14.5780000   2.1200000  12.1840000
  12.8200000   1.1000000  11.9940000  16.3040000   2.9680000  12.8430000
  16.4350000   2.8000000  21.3090000  13.2870000   1.1260000  23.0670000
  14.9040000   2.7850000  23.4700000  14.7570000   2.4270000  10.6930000
  12.9390000   1.1050000  24.4060000  12.8590000   0.5270000  22.4990000
  14.5820000   2.7220000  24.8410000  15.5920000   3.3330000  23.1660000
  15.9250000   1.7140000  10.0520000  14.8660000   3.3900000  10.6520000
  13.9210000   2.1840000  10.2650000  13.6070000   1.9000000  25.2930000
  12.2430000   0.5740000  24.7210000  15.0250000   3.2950000  25.4240000
  16.1440000   2.2240000   8.5970000  15.7870000   0.7570000   9.9700000
  16.7600000   1.8740000  10.5180000  13.4010000   1.8770000  26.2000000
  17.3460000   1.6350000   7.9090000  15.3230000   2.0310000   8.1180000
  16.2530000   3.1840000   8.6770000  17.5260000   2.1710000   6.4620000
  17.2290000   0.6760000   7.8160000  18.1640000   1.8140000   8.3990000
  18.7580000   1.6410000   5.7520000  16.7030000   1.9890000   5.9820000
  17.6310000   3.1300000   6.5660000  18.8790000   2.2150000   4.3260000
  18.6360000   0.6850000   5.6470000  19.5710000   1.8110000   6.2540000
  18.0610000   2.0500000   3.8330000  19.0040000   3.1710000   4.4370000
  20.0340000   1.6130000   3.5740000  20.1880000   2.2100000   2.1590000
  19.9510000   0.6500000   3.4890000  20.8740000   1.8230000   4.0110000
  19.3730000   1.9520000   1.6990000  21.3660000   1.6910000   1.4010000
  20.2200000   3.1760000   2.2410000  21.3300000   0.7310000   1.3300000
  21.3730000   2.0730000   0.5220000  22.1680000   1.9420000   1.8670000
  10.0090000   1.1150000  70.5530000  11.1740000   1.6960000  69.4080000
  11.0670000   1.6300000  71.8510000  11.1860000   1.6910000  67.9450000
  12.3060000   2.1630000  69.9640000  10.7470000   1.5580000  73.2240000
  12.2730000   2.1350000  71.4130000  10.2230000   1.2710000  67.0170000
  12.3550000   2.2610000  67.5040000  13.4540000   2.7650000  68.8040000
  11.6930000   1.9630000  74.1540000   9.9290000   1.2110000  73.4970000
  13.2100000   2.5950000  72.3640000  10.5030000   1.4650000  65.6600000
   9.4220000   0.9010000  67.3120000  12.6210000   2.5260000  66.1410000
  12.9050000   2.5170000  73.7250000  11.3720000   1.9550000  75.6180000
  14.0080000   2.9790000  72.0780000  11.6730000   2.1200000  65.2290000
   9.9150000   1.1000000  65.0390000  13.3990000   2.9680000  65.8880000
  13.5290000   2.8000000  74.3540000  10.3810000   1.1260000  76.1120000
  11.9990000   2.7850000  76.5140000  11.8520000   2.4270000  63.7370000
  10.0330000   1.1050000  77.4510000   9.9540000   0.5270000  75.5430000
  11.6770000   2.7220000  77.8860000  12.6870000   3.3330000  76.2100000
  13.0190000   1.7140000  63.0970000  11.9610000   3.3900000  63.6970000
  11.0160000   2.1840000  63.3090000  10.7010000   1.9000000  78.3380000
   9.3380000   0.5740000  77.7650000  12.1200000   3.2950000  78.4690000
  13.2390000   2.2240000  61.6410000  12.8810000   0.7570000  63.0140000
  13.8550000   1.8740000  63.5630000  10.4960000   1.8770000  79.2440000
  14.4410000   1.6350000  60.9530000  12.4180000   2.0310000  61.1620000
  13.3470000   3.1840000  61.7220000  14.6210000   2.1710000  59.5060000
  14.3230000   0.6760000  60.8610000  15.2580000   1.8140000  61.4440000
  15.8530000   1.6410000  58.7970000  13.7980000   1.9890000  59.0270000
  14.7260000   3.1300000  59.6100000  15.9740000   2.2150000  57.3710000
  15.7310000   0.6850000  58.6910000  16.6650000   1.8110000  59.2980000
  15.1550000   2.0500000  56.8770000  16.0980000   3.1710000  57.4820000
  17.1290000   1.6130000  56.6190000  17.2830000   2.2100000  55.2040000
  17.0460000   0.6500000  56.5340000  17.9690000   1.8230000  57.0560000
  16.4680000   1.9520000  54.7440000  18.4610000   1.6910000  54.4460000
  17.3150000   3.1760000  55.2860000  18.4240000   0.7310000  54.3750000
  18.4680000   2.0730000  53.5670000  19.2630000   1.9420000  54.9120000
  17.5580000   4.9940000  88.5810000  16.3930000   5.5740000  89.7250000
  16.4990000   5.5080000  87.2820000  16.3810000   5.5690000  91.1890000
  15.2610000   6.0420000  89.1700000  16.8200000   5.4370000  85.9100000
  15.2940000   6.0140000  87.7200000  17.3440000   5.1490000  92.1160000
  15.2110000   6.1400000  91.6300000  14.1120000   6.6430000  90.3290000
  15.8740000   5.8420000  84.9800000  17.6380000   5.0890000  85.6360000
  14.3560000   6.4740000  86.7690000  17.0640000   5.3440000  93.4740000
  18.1450000   4.7800000  91.8220000  14.9460000   6.4050000  92.9930000
  14.6620000   6.3950000  85.4090000  16.1950000   5.8340000  83.5150000
  13.5590000   6.8570000  87.0560000  15.8940000   5.9980000  93.9050000
  17.6520000   4.9780000  94.0950000  14.1680000   6.8460000  93.2460000
  14.0370000   6.6790000  84.7800000  17.1860000   5.0040000  83.0220000
  15.5680000   6.6640000  82.6190000  15.7150000   6.3060000  95.3960000
  17.5330000   4.9840000  81.6830000  17.6130000   4.4050000  83.5900000
  15.8900000   6.6000000  81.2480000  14.8800000   7.2120000  82.9230000
  14.5470000   5.5930000  96.0370000  15.6060000   7.2690000  95.4370000
  16.5510000   6.0620000  95.8240000  16.8650000   5.7790000  80.7960000
  18.2290000   4.4520000  81.3680000  15.4470000   7.1740000  80.6650000
  14.3280000   6.1020000  97.4920000  14.6860000   4.6360000  96.1190000
  13.7120000   5.7530000  95.5710000  17.0710000   5.7550000  79.8890000
  13.1260000   5.5140000  98.1800000  15.1490000   5.9100000  97.9710000
  14.2190000   7.0630000  97.4120000  12.9460000   6.0500000  99.6270000
  13.2430000   4.5550000  98.2730000  12.3080000   5.6920000  97.6900000
  11.7140000   5.5200000 100.3370000  13.7690000   5.8680000 100.1070000
  12.8410000   7.0080000  99.5230000  11.5930000   6.0940000 101.7630000
  11.8360000   4.5630000 100.4420000  10.9010000   5.6890000  99.8350000
  12.4110000   5.9290000 102.2560000  11.4690000   7.0490000 101.6520000
  10.4380000   5.4910000 102.5150000  10.2840000   6.0880000 103.9300000
  10.5210000   4.5280000 102.6000000   9.5980000   5.7020000 102.0780000
  11.0990000   5.8310000 104.3900000   9.1060000   5.5690000 104.6880000
  10.2520000   7.0540000 103.8480000   9.1420000   4.6090000 104.7590000
   9.0990000   5.9520000 105.5670000   8.3040000   5.8200000 104.2220000
  17.5580000  12.7510000  88.5810000  16.3930000  13.3310000  89.7250000
  16.4990000  13.2650000  87.2820000  16.3810000  13.3260000  91.1890000
  15.2610000  13.7990000  89.1700000  16.8200000  13.1940000  85.9100000
  15.2940000  13.7710000  87.7200000  17.3440000  12.9060000  92.1160000
  15.2110000  13.8960000  91.6300000  14.1120000  14.4000000  90.3290000
  15.8740000  13.5980000  84.9800000  17.6380000  12.8460000  85.6360000
  14.3560000  14.2310000  86.7690000  17.0640000  13.1000000  93.4740000
  18.1450000  12.5360000  91.8220000  14.9460000  14.1620000  92.9930000
  14.6620000  14.1520000  85.4090000  16.1950000  13.5910000  83.5150000
  13.5590000  14.6140000  87.0560000  15.8940000  13.7550000  93.9050000
  17.6520000  12.7350000  94.0950000  14.1680000  14.6030000  93.2460000
  14.0370000  14.4350000  84.7800000  17.1860000  12.7610000  83.0220000
  15.5680000  14.4210000  82.6190000  15.7150000  14.0620000  95.3960000
  17.5330000  12.7410000  81.6830000  17.6130000  12.1620000  83.5900000
  15.8900000  14.3570000  81.2480000  14.8800000  14.9680000  82.9230000
  14.5470000  13.3490000  96.0370000  15.6060000  15.0250000  95.4370000
  16.5510000  13.8190000  95.8240000  16.8650000  13.5360000  80.7960000
  18.2290000  12.2090000  81.3680000  15.4470000  14.9310000  80.6650000
  14.3280000  13.8590000  97.4920000  14.6860000  12.3930000  96.1190000
  13.7120000  13.5100000  95.5710000  17.0710000  13.5120000  79.8890000
  13.1260000  13.2700000  98.1800000  15.1490000  13.6660000  97.9710000
  14.2190000  14.8190000  97.4120000  12.9460000  13.8060000  99.6270000
  13.2430000  12.3120000  98.2730000  12.3080000  13.4490000  97.6900000
  11.7140000  13.2770000 100.3370000  13.7690000  13.6250000 100.1070000
  12.8410000  14.7650000  99.5230000  11.5930000  13.8510000 101.7630000
  11.8360000  12.3200000 100.4420000  10.9010000  13.4460000  99.8350000
  12.4110000  13.6850000 102.2560000  11.4690000  14.8060000 101.6520000
  10.4380000  13.2480000 102.5150000  10.2840000  13.8450000 103.9300000
  10.5210000  12.2850000 102.6000000   9.5980000  13.4590000 102.0780000
  11.0990000  13.5880000 104.3900000   9.1060000  13.3260000 104.6880000
  10.2520000  14.8110000 103.8480000   9.1420000  12.3660000 104.7590000
   9.0990000  13.7090000 105.5670000   8.3040000  13.5770000 104.2220000
  17.5580000  20.5070000  88.5810000  16.3930000  21.0880000  89.7250000
  16.4990000  21.0220000  87.2820000  16.3810000  21.0830000  91.1890000
  15.2610000  21.5550000  89.1700000  16.8200000  20.9500000  85.9100000
  15.2940000  21.5270000  87.7200000  17.3440000  20.6630000  92.1160000
  15.2110000  21.6530000  91.6300000  14.1120000  22.1570000  90.3290000
  15.8740000  21.3550000  84.9800000  17.6380000  20.6030000  85.6360000
  14.3560000  21.9870000  86.7690000  17.0640000  20.8570000  93.4740000
  18.1450000  20.2930000  91.8220000  14.9460000  21.9180000  92.9930000
  14.6620000  21.9090000  85.4090000  16.1950000  21.3470000  83.5150000
  13.5590000  22.3710000  87.0560000  15.8940000  21.5120000  93.9050000
  17.6520000  20.4920000  94.0950000  14.1680000  22.3600000  93.2460000
  14.0370000  22.1920000  84.7800000  17.1860000  20.5180000  83.0220000
  15.5680000  22.1770000  82.6190000  15.7150000  21.8190000  95.3960000
  17.5330000  20.4970000  81.6830000  17.6130000  19.9190000  83.5900000
  15.8900000  22.1140000  81.2480000  14.8800000  22.7250000  82.9230000
  14.5470000  21.1060000  96.0370000  15.6060000  22.7820000  95.4370000
  16.5510000  21.5760000  95.8240000  16.8650000  21.2920000  80.7960000
  18.2290000  19.9660000  81.3680000  15.4470000  22.6870000  80.6650000
  14.3280000  21.6160000  97.4920000  14.6860000  20.1490000  96.1190000
  13.7120000  21.2660000  95.5710000  17.0710000  21.2690000  79.8890000
  13.1260000  21.0270000  98.1800000  15.1490000  21.4230000  97.9710000
  14.2190000  22.5760000  97.4120000  12.9460000  21.5630000  99.6270000
  13.2430000  20.0680000  98.2730000  12.3080000  21.2060000  97.6900000
  11.7140000  21.0330000 100.3370000  13.7690000  21.3810000 100.1070000
  12.8410000  22.5220000  99.5230000  11.5930000  21.6070000 101.7630000
  11.8360000  20.0770000 100.4420000  10.9010000  21.2030000  99.8350000
  12.4110000  21.4420000 102.2560000  11.4690000  22.5630000 101.6520000
  10.4380000  21.0050000 102.5150000  10.2840000  21.6020000 103.9300000
  10.5210000  20.0420000 102.6000000   9.5980000  21.2150000 102.0780000
  11.0990000  21.3440000 104.3900000   9.1060000  21.0830000 104.6880000
  10.2520000  22.5680000 103.8480000   9.1420000  20.1230000 104.7590000
   9.0990000  21.4650000 105.5670000   8.3040000  21.3340000 104.2220000
  17.5580000  28.2640000  88.5810000  16.3930000  28.8440000  89.7250000
  16.4990000  28.7790000  87.2820000  16.3810000  28.8400000  91.1890000
  15.2610000  29.3120000  89.1700000  16.8200000  28.7070000  85.9100000
  15.2940000  29.2840000  87.7200000  17.3440000  28.4190000  92.1160000
  15.2110000  29.4100000  91.6300000  14.1120000  29.9130000  90.3290000
  15.8740000  29.1120000  84.9800000  17.6380000  28.3600000  85.6360000
  14.3560000  29.7440000  86.7690000  17.0640000  28.6140000  93.4740000
  18.1450000  28.0500000  91.8220000  14.9460000  29.6750000  92.9930000
  14.6620000  29.6660000  85.4090000  16.1950000  29.1040000  83.5150000
  13.5590000  30.1280000  87.0560000  15.8940000  29.2690000  93.9050000
  17.6520000  28.2480000  94.0950000  14.1680000  30.1160000  93.2460000
  14.0370000  29.9490000  84.7800000  17.1860000  28.2740000  83.0220000
  15.5680000  29.9340000  82.6190000  15.7150000  29.5760000  95.3960000
  17.5330000  28.2540000  81.6830000  17.6130000  27.6760000  83.5900000
  15.8900000  29.8710000  81.2480000  14.8800000  30.4820000  82.9230000
  14.5470000  28.8630000  96.0370000  15.6060000  30.5390000  95.4370000
  16.5510000  29.3320000  95.8240000  16.8650000  29.0490000  80.7960000
  18.2290000  27.7230000  81.3680000  15.4470000  30.4440000  80.6650000
  14.3280000  29.3730000  97.4920000  14.6860000  27.9060000  96.1190000
  13.7120000  29.0230000  95.5710000  17.0710000  29.0260000  79.8890000
  13.1260000  28.7840000  98.1800000  15.1490000  29.1800000  97.9710000
  14.2190000  30.3330000  97.4120000  12.9460000  29.3200000  99.6270000
  13.2430000  27.8250000  98.2730000  12.3080000  28.9620000  97.6900000
  11.7140000  28.7900000 100.3370000  13.7690000  29.1380000 100.1070000
  12.8410000  30.2780000  99.5230000  11.5930000  29.3640000 101.7630000
  11.8360000  27.8340000 100.4420000  10.9010000  28.9600000  99.8350000
  12.4110000  29.1990000 102.2560000  11.4690000  30.3190000 101.6520000
  10.4380000  28.7610000 102.5150000  10.2840000  29.3590000 103.9300000
  10.5210000  27.7980000 102.6000000   9.5980000  28.9720000 102.0780000
  11.0990000  29.1010000 104.3900000   9.1060000  28.8400000 104.6880000
  10.2520000  30.3250000 103.8480000   9.1420000  27.8800000 104.7590000
   9.0990000  29.2220000 105.5670000   8.3040000  29.0900000 104.2220000
  17.5580000  36.0210000  88.5810000  16.3930000  36.6010000  89.7250000
  16.4990000  36.5350000  87.2820000  16.3810000  36.5970000  91.1890000
  15.2610000  37.0690000  89.1700000  16.8200000  36.4640000  85.9100000
  15.2940000  37.0410000  87.7200000  17.3440000  36.1760000  92.1160000
  15.2110000  37.1670000  91.6300000  14.1120000  37.6700000  90.3290000
  15.8740000  36.8690000  84.9800000  17.6380000  36.1170000  85.6360000
  14.3560000  37.5010000  86.7690000  17.0640000  36.3710000  93.4740000
  18.1450000  35.8070000  91.8220000  14.9460000  37.4320000  92.9930000
  14.6620000  37.4230000  85.4090000  16.1950000  36.8610000  83.5150000
  13.5590000  37.8850000  87.0560000  15.8940000  37.0260000  93.9050000
  17.6520000  36.0050000  94.0950000  14.1680000  37.8730000  93.2460000
  14.0370000  37.7060000  84.7800000  17.1860000  36.0310000  83.0220000
  15.5680000  37.6910000  82.6190000  15.7150000  37.3330000  95.3960000
  17.5330000  36.0110000  81.6830000  17.6130000  35.4320000  83.5900000
  15.8900000  37.6270000  81.2480000  14.8800000  38.2390000  82.9230000
  14.5470000  36.6200000  96.0370000  15.6060000  38.2960000  95.4370000
  16.5510000  37.0890000  95.8240000  16.8650000  36.8060000  80.7960000
  18.2290000  35.4790000  81.3680000  15.4470000  38.2010000  80.6650000
  14.3280000  37.1290000  97.4920000  14.6860000  35.6630000  96.1190000
  13.7120000  36.7800000  95.5710000  17.0710000  36.7830000  79.8890000
  13.1260000  36.5410000  98.1800000  15.1490000  36.9370000  97.9710000
  14.2190000  38.0900000  97.4120000  12.9460000  37.0770000  99.6270000
  13.2430000  35.5820000  98.2730000  12.3080000  36.7190000  97.6900000
  11.7140000  36.5470000 100.3370000  13.7690000  36.8950000 100.1070000
  12.8410000  38.0350000  99.5230000  11.5930000  37.1210000 101.7630000
  11.8360000  35.5900000 100.4420000  10.9010000  36.7170000  99.8350000
  12.4110000  36.9560000 102.2560000  11.4690000  38.0760000 101.6520000
  10.4380000  36.5180000 102.5150000  10.2840000  37.1160000 103.9300000
  10.5210000  35.5550000 102.6000000   9.5980000  36.7290000 102.0780000
  11.0990000  36.8580000 104.3900000   9.1060000  36.5970000 104.6880000
  10.2520000  38.0810000 103.8480000   9.1420000  35.6370000 104.7590000
   9.0990000  36.9790000 105.5670000   8.3040000  36.8470000 104.2220000
  17.5580000  43.7780000  88.5810000  16.3930000  44.3580000  89.7250000
  16.4990000  44.2920000  87.2820000  16.3810000  44.3530000  91.1890000
  15.2610000  44.8260000  89.1700000  16.8200000  44.2210000  85.9100000
  15.2940000  44.7980000  87.7200000  17.3440000  43.9330000  92.1160000
  15.2110000  44.9240000  91.6300000  14.1120000  45.4270000  90.3290000
  15.8740000  44.6260000  84.9800000  17.6380000  43.8730000  85.6360000
  14.3560000  45.2580000  86.7690000  17.0640000  44.1280000  93.4740000
  18.1450000  43.5640000  91.8220000  14.9460000  45.1890000  92.9930000
  14.6620000  45.1790000  85.4090000  16.1950000  44.6180000  83.5150000
  13.5590000  45.6410000  87.0560000  15.8940000  44.7820000  93.9050000
  17.6520000  43.7620000  94.0950000  14.1680000  45.6300000  93.2460000
  14.0370000  45.4630000  84.7800000  17.1860000  43.7880000  83.0220000
  15.5680000  45.4480000  82.6190000  15.7150000  45.0900000  95.3960000
  17.5330000  43.7680000  81.6830000  17.6130000  43.1890000  83.5900000
  15.8900000  45.3840000  81.2480000  14.8800000  45.9960000  82.9230000
  14.5470000  44.3770000  96.0370000  15.6060000  46.0530000  95.4370000
  16.5510000  44.8460000  95.8240000  16.8650000  44.5630000  80.7960000
  18.2290000  43.2360000  81.3680000  15.4470000  45.9580000  80.6650000
  14.3280000  44.8860000  97.4920000  14.6860000  43.4200000  96.1190000
  13.7120000  44.5370000  95.5710000  17.0710000  44.5390000  79.8890000
  13.1260000  44.2980000  98.1800000  15.1490000  44.6940000  97.9710000
  14.2190000  45.8470000  97.4120000  12.9460000  44.8340000  99.6270000
  13.2430000  43.3390000  98.2730000  12.3080000  44.4760000  97.6900000
  11.7140000  44.3040000 100.3370000  13.7690000  44.6520000 100.1070000
  12.8410000  45.7920000  99.5230000  11.5930000  44.8780000 101.7630000
  11.8360000  43.3470000 100.4420000  10.9010000  44.4730000  99.8350000
  12.4110000  44.7130000 102.2560000  11.4690000  45.8330000 101.6520000
  10.4380000  44.2750000 102.5150000  10.2840000  44.8720000 103.9300000
  10.5210000  43.3120000 102.6000000   9.5980000  44.4860000 102.0780000
  11.0990000  44.6150000 104.3900000   9.1060000  44.3530000 104.6880000
  10.2520000  45.8380000 103.8480000   9.1420000  43.3930000 104.7590000
   9.0990000  44.7360000 105.5670000   8.3040000  44.6040000 104.2220000
  20.4630000   4.9940000  35.5360000  19.2990000   5.5740000  36.6810000
  19.4050000   5.5080000  34.2380000  19.2860000   5.5690000  38.1440000
  18.1660000   6.0420000  36.1250000  19.7250000   5.4370000  32.8650000
  18.1990000   6.0140000  34.6760000  20.2490000   5.1490000  39.0720000
  18.1170000   6.1400000  38.5850000  17.0180000   6.6430000  37.2850000
  18.7790000   5.8420000  31.9350000  20.5430000   5.0890000  32.5920000
  17.2620000   6.4740000  33.7250000  19.9690000   5.3440000  40.4290000
  21.0500000   4.7800000  38.7770000  17.8510000   6.4050000  39.9480000
  17.5670000   6.3950000  32.3640000  19.1000000   5.8340000  30.4710000
  16.4640000   6.8570000  34.0110000  18.7990000   5.9980000  40.8600000
  20.5580000   4.9780000  41.0500000  17.0730000   6.8460000  40.2010000
  16.9430000   6.6790000  31.7350000  20.0910000   5.0040000  29.9770000
  18.4730000   6.6640000  29.5750000  18.6200000   6.3060000  42.3520000
  20.4390000   4.9840000  28.6380000  20.5180000   4.4050000  30.5460000
  18.7950000   6.6000000  28.2030000  17.7850000   7.2120000  29.8790000
  17.4530000   5.5930000  42.9920000  18.5110000   7.2690000  42.3920000
  19.4560000   6.0620000  42.7800000  19.7710000   5.7790000  27.7510000
  21.1340000   4.4520000  28.3240000  18.3520000   7.1740000  27.6200000
  17.2330000   6.1020000  44.4480000  17.5910000   4.6360000  43.0750000
  16.6170000   5.7530000  42.5260000  19.9760000   5.7550000  26.8450000
  16.0310000   5.5140000  45.1360000  18.0540000   5.9100000  44.9270000
  17.1250000   7.0630000  44.3670000  15.8510000   6.0500000  46.5830000
  16.1490000   4.5550000  45.2280000  15.2140000   5.6920000  44.6450000
  14.6190000   5.5200000  47.2920000  16.6740000   5.8680000  47.0620000
  15.7460000   7.0080000  46.4790000  14.4980000   6.0940000  48.7180000
  14.7410000   4.5630000  47.3980000  13.8070000   5.6890000  46.7910000
  15.3170000   5.9290000  49.2120000  14.3740000   7.0490000  48.6070000
  13.3430000   5.4910000  49.4700000  13.1890000   6.0880000  50.8850000
  13.4270000   4.5280000  49.5550000  12.5030000   5.7020000  49.0330000
  14.0040000   5.8310000  51.3450000  12.0110000   5.5690000  51.6430000
  13.1570000   7.0540000  50.8030000  12.0480000   4.6090000  51.7140000
  12.0040000   5.9520000  52.5220000  11.2090000   5.8200000  51.1770000
  20.4630000  12.7510000  35.5360000  19.2990000  13.3310000  36.6810000
  19.4050000  13.2650000  34.2380000  19.2860000  13.3260000  38.1440000
  18.1660000  13.7990000  36.1250000  19.7250000  13.1940000  32.8650000
  18.1990000  13.7710000  34.6760000  20.2490000  12.9060000  39.0720000
  18.1170000  13.8960000  38.5850000  17.0180000  14.4000000  37.2850000
  18.7790000  13.5980000  31.9350000  20.5430000  12.8460000  32.5920000
  17.2620000  14.2310000  33.7250000  19.9690000  13.1000000  40.4290000
  21.0500000  12.5360000  38.7770000  17.8510000  14.1620000  39.9480000
  17.5670000  14.1520000  32.3640000  19.1000000  13.5910000  30.4710000
  16.4640000  14.6140000  34.0110000  18.7990000  13.7550000  40.8600000
  20.5580000  12.7350000  41.0500000  17.0730000  14.6030000  40.2010000
  16.9430000  14.4350000  31.7350000  20.0910000  12.7610000  29.9770000
  18.4730000  14.4210000  29.5750000  18.6200000  14.0620000  42.3520000
  20.4390000  12.7410000  28.6380000  20.5180000  12.1620000  30.5460000
  18.7950000  14.3570000  28.2030000  17.7850000  14.9680000  29.8790000
  17.4530000  13.3490000  42.9920000  18.5110000  15.0250000  42.3920000
  19.4560000  13.8190000  42.7800000  19.7710000  13.5360000  27.7510000
  21.1340000  12.2090000  28.3240000  18.3520000  14.9310000  27.6200000
  17.2330000  13.8590000  44.4480000  17.5910000  12.3930000  43.0750000
  16.6170000  13.5100000  42.5260000  19.9760000  13.5120000  26.8450000
  16.0310000  13.2700000  45.1360000  18.0540000  13.6660000  44.9270000
  17.1250000  14.8190000  44.3670000  15.8510000  13.8060000  46.5830000
  16.1490000  12.3120000  45.2280000  15.2140000  13.4490000  44.6450000
  14.6190000  13.2770000  47.2920000  16.6740000  13.6250000  47.0620000
  15.7460000  14.7650000  46.4790000  14.4980000  13.8510000  48.7180000
  14.7410000  12.3200000  47.3980000  13.8070000  13.4460000  46.7910000
  15.3170000  13.6850000  49.2120000  14.3740000  14.8060000  48.6070000
  13.3430000  13.2480000  49.4700000  13.1890000  13.8450000  50.8850000
  13.4270000  12.2850000  49.5550000  12.5030000  13.4590000  49.0330000
  14.0040000  13.5880000  51.3450000  12.0110000  13.3260000  51.6430000
  13.1570000  14.8110000  50.8030000  12.0480000  12.3660000  51.7140000
  12.0040000  13.7090000  52.5220000  11.2090000  13.5770000  51.1770000
  20.4630000  20.5070000  35.5360000  19.2990000  21.0880000  36.6810000
  19.4050000  21.0220000  34.2380000  19.2860000  21.0830000  38.1440000
  18.1660000  21.5550000  36.1250000  19.7250000  20.9500000  32.8650000
  18.1990000  21.5270000  34.6760000  20.2490000  20.6630000  39.0720000
  18.1170000  21.6530000  38.5850000  17.0180000  22.1570000  37.2850000
  18.7790000  21.3550000  31.9350000  20.5430000  20.6030000  32.5920000
  17.2620000  21.9870000  33.7250000  19.9690000  20.8570000  40.4290000
  21.0500000  20.2930000  38.7770000  17.8510000  21.9180000  39.9480000
  17.5670000  21.9090000  32.3640000  19.1000000  21.3470000  30.4710000
  16.4640000  22.3710000  34.0110000  18.7990000  21.5120000  40.8600000
  20.5580000  20.4920000  41.0500000  17.0730000  22.3600000  40.2010000
  16.9430000  22.1920000  31.7350000  20.0910000  20.5180000  29.9770000
  18.4730000  22.1770000  29.5750000  18.6200000  21.8190000  42.3520000
  20.4390000  20.4970000  28.6380000  20.5180000  19.9190000  30.5460000
  18.7950000  22.1140000  28.2030000  17.7850000  22.7250000  29.8790000
  17.4530000  21.1060000  42.9920000  18.5110000  22.7820000  42.3920000
  19.4560000  21.5760000  42.7800000  19.7710000  21.2920000  27.7510000
  21.1340000  19.9660000  28.3240000  18.3520000  22.6870000  27.6200000
  17.2330000  21.6160000  44.4480000  17.5910000  20.1490000  43.0750000
  16.6170000  21.2660000  42.5260000  19.9760000  21.2690000  26.8450000
  16.0310000  21.0270000  45.1360000  18.0540000  21.4230000  44.9270000
  17.1250000  22.5760000  44.3670000  15.8510000  21.5630000  46.5830000
  16.1490000  20.0680000  45.2280000  15.2140000  21.2060000  44.6450000
  14.6190000  21.0330000  47.2920000  16.6740000  21.3810000  47.0620000
  15.7460000  22.5220000  46.4790000  14.4980000  21.6070000  48.7180000
  14.7410000  20.0770000  47.3980000  13.8070000  21.2030000  46.7910000
  15.3170000  21.4420000  49.2120000  14.3740000  22.5630000  48.6070000
  13.3430000  21.0050000  49.4700000  13.1890000  21.6020000  50.8850000
  13.4270000  20.0420000  49.5550000  12.5030000  21.2150000  49.0330000
  14.0040000  21.3440000  51.3450000  12.0110000  21.0830000  51.6430000
  13.1570000  22.5680000  50.8030000  12.0480000  20.1230000  51.7140000
  12.0040000  21.4650000  52.5220000  11.2090000  21.3340000  51.1770000
  20.4630000  28.2640000  35.5360000  19.2990000  28.8440000  36.6810000
  19.4050000  28.7790000  34.2380000  19.2860000  28.8400000  38.1440000
  18.1660000  29.3120000  36.1250000  19.7250000  28.7070000  32.8650000
  18.1990000  29.2840000  34.6760000  20.2490000  28.4190000  39.0720000
  18.1170000  29.4100000  38.5850000  17.0180000  29.9130000  37.2850000
  18.7790000  29.1120000  31.9350000  20.5430000  28.3600000  32.5920000
  17.2620000  29.7440000  33.7250000  19.9690000  28.6140000  40.4290000
  21.0500000  28.0500000  38.7770000  17.8510000  29.6750000  39.9480000
  17.5670000  29.6660000  32.3640000  19.1000000  29.1040000  30.4710000
  16.4640000  30.1280000  34.0110000  18.7990000  29.2690000  40.8600000
  20.5580000  28.2480000  41.0500000  17.0730000  30.1160000  40.2010000
  16.9430000  29.9490000  31.7350000  20.0910000  28.2740000  29.9770000
  18.4730000  29.9340000  29.5750000  18.6200000  29.5760000  42.3520000
  20.4390000  28.2540000  28.6380000  20.5180000  27.6760000  30.5460000
  18.7950000  29.8710000  28.2030000  17.7850000  30.4820000  29.8790000
  17.4530000  28.8630000  42.9920000  18.5110000  30.5390000  42.3920000
  19.4560000  29.3320000  42.7800000  19.7710000  29.0490000  27.7510000
  21.1340000  27.7230000  28.3240000  18.3520000  30.4440000  27.6200000
  17.2330000  29.3730000  44.4480000  17.5910000  27.9060000  43.0750000
  16.6170000  29.0230000  42.5260000  19.9760000  29.0260000  26.8450000
  16.0310000  28.7840000  45.1360000  18.0540000  29.1800000  44.9270000
  17.1250000  30.3330000  44.3670000  15.8510000  29.3200000  46.5830000
  16.1490000  27.8250000  45.2280000  15.2140000  28.9620000  44.6450000
  14.6190000  28.7900000  47.2920000  16.6740000  29.1380000  47.0620000
  15.7460000  30.2780000  46.4790000  14.4980000  29.3640000  48.7180000
  14.7410000  27.8340000  47.3980000  13.8070000  28.9600000  46.7910000
  15.3170000  29.1990000  49.2120000  14.3740000  30.3190000  48.6070000
  13.3430000  28.7610000  49.4700000  13.1890000  29.3590000  50.8850000
  13.4270000  27.7980000  49.5550000  12.5030000  28.9720000  49.0330000
  14.0040000  29.1010000  51.3450000  12.0110000  28.8400000  51.6430000
  13.1570000  30.3250000  50.8030000  12.0480000  27.8800000  51.7140000
  12.0040000  29.2220000  52.5220000  11.2090000  29.0900000  51.1770000
  20.4630000  36.0210000  35.5360000  19.2990000  36.6010000  36.6810000
  19.4050000  36.5350000  34.2380000  19.2860000  36.5970000  38.1440000
  18.1660000  37.0690000  36.1250000  19.7250000  36.4640000  32.8650000
  18.1990000  37.0410000  34.6760000  20.2490000  36.1760000  39.0720000
  18.1170000  37.1670000  38.5850000  17.0180000  37.6700000  37.2850000
  18.7790000  36.8690000  31.9350000  20.5430000  36.1170000  32.5920000
  17.2620000  37.5010000  33.7250000  19.9690000  36.3710000  40.4290000
  21.0500000  35.8070000  38.7770000  17.8510000  37.4320000  39.9480000
  17.5670000  37.4230000  32.3640000  19.1000000  36.8610000  30.4710000
  16.4640000  37.8850000  34.0110000  18.7990000  37.0260000  40.8600000
  20.5580000  36.0050000  41.0500000  17.0730000  37.8730000  40.2010000
  16.9430000  37.7060000  31.7350000  20.0910000  36.0310000  29.9770000
  18.4730000  37.6910000  29.5750000  18.6200000  37.3330000  42.3520000
  20.4390000  36.0110000  28.6380000  20.5180000  35.4320000  30.5460000
  18.7950000  37.6270000  28.2030000  17.7850000  38.2390000  29.8790000
  17.4530000  36.6200000  42.9920000  18.5110000  38.2960000  42.3920000
  19.4560000  37.0890000  42.7800000  19.7710000  36.8060000  27.7510000
  21.1340000  35.4790000  28.3240000  18.3520000  38.2010000  27.6200000
  17.2330000  37.1290000  44.4480000  17.5910000  35.6630000  43.0750000
  16.6170000  36.7800000  42.5260000  19.9760000  36.7830000  26.8450000
  16.0310000  36.5410000  45.1360000  18.0540000  36.9370000  44.9270000
  17.1250000  38.0900000  44.3670000  15.8510000  37.0770000  46.5830000
  16.1490000  35.5820000  45.2280000  15.2140000  36.7190000  44.6450000
  14.6190000  36.5470000  47.2920000  16.6740000  36.8950000  47.0620000
  15.7460000  38.0350000  46.4790000  14.4980000  37.1210000  48.7180000
  14.7410000  35.5900000  47.3980000  13.8070000  36.7170000  46.7910000
  15.3170000  36.9560000  49.2120000  14.3740000  38.0760000  48.6070000
  13.3430000  36.5180000  49.4700000  13.1890000  37.1160000  50.8850000
  13.4270000  35.5550000  49.5550000  12.5030000  36.7290000  49.0330000
  14.0040000  36.8580000  51.3450000  12.0110000  36.5970000  51.6430000
  13.1570000  38.0810000  50.8030000  12.0480000  35.6370000  51.7140000
  12.0040000  36.9790000  52.5220000  11.2090000  36.8470000  51.1770000
  20.4630000  43.7780000  35.5360000  19.2990000  44.3580000  36.6810000
  19.4050000  44.2920000  34.2380000  19.2860000  44.3530000  38.1440000
  18.1660000  44.8260000  36.1250000  19.7250000  44.2210000  32.8650000
  18.1990000  44.7980000  34.6760000  20.2490000  43.9330000  39.0720000
  18.1170000  44.9240000  38.5850000  17.0180000  45.4270000  37.2850000
  18.7790000  44.6260000  31.9350000  20.5430000  43.8730000  32.5920000
  17.2620000  45.2580000  33.7250000  19.9690000  44.1280000  40.4290000
  21.0500000  43.5640000  38.7770000  17.8510000  45.1890000  39.9480000
  17.5670000  45.1790000  32.3640000  19.1000000  44.6180000  30.4710000
  16.4640000  45.6410000  34.0110000  18.7990000  44.7820000  40.8600000
  20.5580000  43.7620000  41.0500000  17.0730000  45.6300000  40.2010000
  16.9430000  45.4630000  31.7350000  20.0910000  43.7880000  29.9770000
  18.4730000  45.4480000  29.5750000  18.6200000  45.0900000  42.3520000
  20.4390000  43.7680000  28.6380000  20.5180000  43.1890000  30.5460000
  18.7950000  45.3840000  28.2030000  17.7850000  45.9960000  29.8790000
  17.4530000  44.3770000  42.9920000  18.5110000  46.0530000  42.3920000
  19.4560000  44.8460000  42.7800000  19.7710000  44.5630000  27.7510000
  21.1340000  43.2360000  28.3240000  18.3520000  45.9580000  27.6200000
  17.2330000  44.8860000  44.4480000  17.5910000  43.4200000  43.0750000
  16.6170000  44.5370000  42.5260000  19.9760000  44.5390000  26.8450000
  16.0310000  44.2980000  45.1360000  18.0540000  44.6940000  44.9270000
  17.1250000  45.8470000  44.3670000  15.8510000  44.8340000  46.5830000
  16.1490000  43.3390000  45.2280000  15.2140000  44.4760000  44.6450000
  14.6190000  44.3040000  47.2920000  16.6740000  44.6520000  47.0620000
  15.7460000  45.7920000  46.4790000  14.4980000  44.8780000  48.7180000
  14.7410000  43.3470000  47.3980000  13.8070000  44.4730000  46.7910000
  15.3170000  44.7130000  49.2120000  14.3740000  45.8330000  48.6070000
  13.3430000  44.2750000  49.4700000  13.1890000  44.8720000  50.8850000
  13.4270000  43.3120000  49.5550000  12.5030000  44.4860000  49.0330000
  14.0040000  44.6150000  51.3450000  12.0110000  44.3530000  51.6430000
  13.1570000  45.8380000  50.8030000  12.0480000  43.3930000  51.7140000
  12.0040000  44.7360000  52.5220000  11.2090000  44.6040000  51.1770000
  15.9380000   6.6410000  17.5080000  17.1020000   6.0610000  16.3640000
  16.9960000   6.1270000  18.8070000  17.1150000   6.0660000  14.9000000
  18.2350000   5.5930000  16.9190000  16.6760000   6.1980000  20.1790000
  18.2020000   5.6210000  18.3690000  16.1520000   6.4860000  13.9730000
  18.2840000   5.4960000  14.4590000  19.3830000   4.9920000  15.7600000
  17.6220000   5.7940000  21.1090000  15.8580000   6.5460000  20.4530000
  19.1390000   5.1610000  19.3200000  16.4310000   6.2920000  12.6150000
  15.3510000   6.8560000  14.2670000  18.5490000   5.2300000  13.0960000
  18.8340000   5.2400000  20.6800000  17.3000000   5.8010000  22.5740000
  19.9370000   4.7780000  19.0330000  17.6020000   5.6370000  12.1840000
  15.8430000   6.6570000  11.9940000  19.3280000   4.7890000  12.8430000
  19.4580000   4.9570000  21.3090000  16.3100000   6.6310000  23.0670000
  17.9280000   4.9710000  23.4700000  17.7810000   5.3300000  10.6930000
  15.9620000   6.6510000  24.4060000  15.8830000   7.2300000  22.4990000
  17.6060000   5.0350000  24.8410000  18.6160000   4.4240000  23.1660000
  18.9480000   6.0430000  10.0520000  17.8900000   4.3670000  10.6520000
  16.9450000   5.5730000  10.2650000  16.6300000   5.8560000  25.2930000
  15.2670000   7.1830000  24.7210000  18.0490000   4.4610000  25.4240000
  19.1680000   5.5330000   8.5970000  18.8100000   6.9990000   9.9700000
  19.7840000   5.8820000  10.5180000  16.4250000   5.8800000  26.2000000
  20.3690000   6.1220000   7.9090000  18.3470000   5.7260000   8.1180000
  19.2760000   4.5730000   8.6770000  20.5500000   5.5860000   6.4620000
  20.2520000   7.0800000   7.8160000  21.1870000   5.9430000   8.3990000
  21.7820000   6.1150000   5.7520000  19.7270000   5.7670000   5.9820000
  20.6550000   4.6270000   6.5660000  21.9030000   5.5410000   4.3260000
  21.6600000   7.0720000   5.6470000  22.5940000   5.9460000   6.2540000
  21.0840000   5.7070000   3.8330000  22.0270000   4.5860000   4.4370000
  23.0580000   6.1440000   3.5740000  23.2110000   5.5470000   2.1590000
  22.9740000   7.1070000   3.4890000  23.8970000   5.9330000   4.0110000
  22.3970000   5.8040000   1.6990000  24.3900000   6.0660000   1.4010000
  23.2440000   4.5810000   2.2410000  24.3530000   7.0260000   1.3300000
  24.3970000   5.6830000   0.5220000  25.1920000   5.8150000   1.8670000
  13.0330000   6.6410000  70.5530000  14.1970000   6.0610000  69.4080000
  14.0910000   6.1270000  71.8510000  14.2090000   6.0660000  67.9450000
  15.3290000   5.5930000  69.9640000  13.7700000   6.1980000  73.2240000
  15.2970000   5.6210000  71.4130000  13.2470000   6.4860000  67.0170000
  15.3790000   5.4960000  67.5040000  16.4780000   4.9920000  68.8040000
  14.7170000   5.7940000  74.1540000  12.9520000   6.5460000  73.4970000
  16.2340000   5.1610000  72.3640000  13.5260000   6.2920000  65.6600000
  12.4450000   6.8560000  67.3120000  15.6440000   5.2300000  66.1410000
  15.9280000   5.2400000  73.7250000  14.3950000   5.8010000  75.6180000
  17.0310000   4.7780000  72.0780000  14.6960000   5.6370000  65.2290000
  12.9380000   6.6570000  65.0390000  16.4220000   4.7890000  65.8880000
  16.5530000   4.9570000  74.3540000  13.4050000   6.6310000  76.1120000
  15.0230000   4.9710000  76.5140000  14.8750000   5.3300000  63.7370000
  13.0570000   6.6510000  77.4510000  12.9770000   7.2300000  75.5430000
  14.7000000   5.0350000  77.8860000  15.7110000   4.4240000  76.2100000
  16.0430000   6.0430000  63.0970000  14.9850000   4.3670000  63.6970000
  14.0390000   5.5730000  63.3090000  13.7250000   5.8560000  78.3380000
  12.3610000   7.1830000  77.7650000  15.1440000   4.4610000  78.4690000
  16.2620000   5.5330000  61.6410000  15.9050000   6.9990000  63.0140000
  16.8790000   5.8820000  63.5630000  13.5190000   5.8800000  79.2440000
  17.4640000   6.1220000  60.9530000  15.4410000   5.7260000  61.1620000
  16.3710000   4.5730000  61.7220000  17.6440000   5.5860000  59.5060000
  17.3470000   7.0800000  60.8610000  18.2820000   5.9430000  61.4440000
  18.8760000   6.1150000  58.7970000  16.8210000   5.7670000  59.0270000
  17.7500000   4.6270000  59.6100000  18.9970000   5.5410000  57.3710000
  18.7540000   7.0720000  58.6910000  19.6890000   5.9460000  59.2980000
  18.1790000   5.7070000  56.8770000  19.1220000   4.5860000  57.4820000
  20.1520000   6.1440000  56.6190000  20.3060000   5.5470000  55.2040000
  20.0690000   7.1070000  56.5340000  20.9920000   5.9330000  57.0560000
  19.4910000   5.8040000  54.7440000  21.4850000   6.0660000  54.4460000
  20.3390000   4.5810000  55.2860000  21.4480000   7.0260000  54.3750000
  21.4910000   5.6830000  53.5670000  22.2860000   5.8150000  54.9120000
  15.9380000  14.3980000  17.5080000  17.1020000  13.8180000  16.3640000
  16.9960000  13.8840000  18.8070000  17.1150000  13.8230000  14.9000000
  18.2350000  13.3500000  16.9190000  16.6760000  13.9550000  20.1790000
  18.2020000  13.3780000  18.3690000  16.1520000  14.2430000  13.9730000
  18.2840000  13.2520000  14.4590000  19.3830000  12.7490000  15.7600000
  17.6220000  13.5500000  21.1090000  15.8580000  14.3030000  20.4530000
  19.1390000  12.9180000  19.3200000  16.4310000  14.0480000  12.6150000
  15.3510000  14.6120000  14.2670000  18.5490000  12.9870000  13.0960000
  18.8340000  12.9970000  20.6800000  17.3000000  13.5580000  22.5740000
  19.9370000  12.5350000  19.0330000  17.6020000  13.3940000  12.1840000
  15.8430000  14.4140000  11.9940000  19.3280000  12.5460000  12.8430000
  19.4580000  12.7130000  21.3090000  16.3100000  14.3880000  23.0670000
  17.9280000  12.7280000  23.4700000  17.7810000  13.0860000  10.6930000
  15.9620000  14.4080000  24.4060000  15.8830000  14.9870000  22.4990000
  17.6060000  12.7920000  24.8410000  18.6160000  12.1800000  23.1660000
  18.9480000  13.7990000  10.0520000  17.8900000  12.1230000  10.6520000
  16.9450000  13.3300000  10.2650000  16.6300000  13.6130000  25.2930000
  15.2670000  14.9400000  24.7210000  18.0490000  12.2180000  25.4240000
  19.1680000  13.2900000   8.5970000  18.8100000  14.7560000   9.9700000
  19.7840000  13.6390000  10.5180000  16.4250000  13.6370000  26.2000000
  20.3690000  13.8780000   7.9090000  18.3470000  13.4820000   8.1180000
  19.2760000  12.3290000   8.6770000  20.5500000  13.3420000   6.4620000
  20.2520000  14.8370000   7.8160000  21.1870000  13.7000000   8.3990000
  21.7820000  13.8720000   5.7520000  19.7270000  13.5240000   5.9820000
  20.6550000  12.3840000   6.5660000  21.9030000  13.2980000   4.3260000
  21.6600000  14.8290000   5.6470000  22.5940000  13.7030000   6.2540000
  21.0840000  13.4630000   3.8330000  22.0270000  12.3430000   4.4370000
  23.0580000  13.9010000   3.5740000  23.2110000  13.3040000   2.1590000
  22.9740000  14.8640000   3.4890000  23.8970000  13.6900000   4.0110000
  22.3970000  13.5610000   1.6990000  24.3900000  13.8230000   1.4010000
  23.2440000  12.3380000   2.2410000  24.3530000  14.7830000   1.3300000
  24.3970000  13.4400000   0.5220000  25.1920000  13.5720000   1.8670000
  13.0330000  14.3980000  70.5530000  14.1970000  13.8180000  69.4080000
  14.0910000  13.8840000  71.8510000  14.2090000  13.8230000  67.9450000
  15.3290000  13.3500000  69.9640000  13.7700000  13.9550000  73.2240000
  15.2970000  13.3780000  71.4130000  13.2470000  14.2430000  67.0170000
  15.3790000  13.2520000  67.5040000  16.4780000  12.7490000  68.8040000
  14.7170000  13.5500000  74.1540000  12.9520000  14.3030000  73.4970000
  16.2340000  12.9180000  72.3640000  13.5260000  14.0480000  65.6600000
  12.4450000  14.6120000  67.3120000  15.6440000  12.9870000  66.1410000
  15.9280000  12.9970000  73.7250000  14.3950000  13.5580000  75.6180000
  17.0310000  12.5350000  72.0780000  14.6960000  13.3940000  65.2290000
  12.9380000  14.4140000  65.0390000  16.4220000  12.5460000  65.8880000
  16.5530000  12.7130000  74.3540000  13.4050000  14.3880000  76.1120000
  15.0230000  12.7280000  76.5140000  14.8750000  13.0860000  63.7370000
  13.0570000  14.4080000  77.4510000  12.9770000  14.9870000  75.5430000
  14.7000000  12.7920000  77.8860000  15.7110000  12.1800000  76.2100000
  16.0430000  13.7990000  63.0970000  14.9850000  12.1230000  63.6970000
  14.0390000  13.3300000  63.3090000  13.7250000  13.6130000  78.3380000
  12.3610000  14.9400000  77.7650000  15.1440000  12.2180000  78.4690000
  16.2620000  13.2900000  61.6410000  15.9050000  14.7560000  63.0140000
  16.8790000  13.6390000  63.5630000  13.5190000  13.6370000  79.2440000
  17.4640000  13.8780000  60.9530000  15.4410000  13.4820000  61.1620000
  16.3710000  12.3290000  61.7220000  17.6440000  13.3420000  59.5060000
  17.3470000  14.8370000  60.8610000  18.2820000  13.7000000  61.4440000
  18.8760000  13.8720000  58.7970000  16.8210000  13.5240000  59.0270000
  17.7500000  12.3840000  59.6100000  18.9970000  13.2980000  57.3710000
  18.7540000  14.8290000  58.6910000  19.6890000  13.7030000  59.2980000
  18.1790000  13.4630000  56.8770000  19.1220000  12.3430000  57.4820000
  20.1520000  13.9010000  56.6190000  20.3060000  13.3040000  55.2040000
  20.0690000  14.8640000  56.5340000  20.9920000  13.6900000  57.0560000
  19.4910000  13.5610000  54.7440000  21.4850000  13.8230000  54.4460000
  20.3390000  12.3380000  55.2860000  21.4480000  14.7830000  54.3750000
  21.4910000  13.4400000  53.5670000  22.2860000  13.5720000  54.9120000
  15.9380000  22.1550000  17.5080000  17.1020000  21.5750000  16.3640000
  16.9960000  21.6410000  18.8070000  17.1150000  21.5790000  14.9000000
  18.2350000  21.1070000  16.9190000  16.6760000  21.7120000  20.1790000
  18.2020000  21.1350000  18.3690000  16.1520000  22.0000000  13.9730000
  18.2840000  21.0090000  14.4590000  19.3830000  20.5060000  15.7600000
  17.6220000  21.3070000  21.1090000  15.8580000  22.0590000  20.4530000
  19.1390000  20.6750000  19.3200000  16.4310000  21.8050000  12.6150000
  15.3510000  22.3690000  14.2670000  18.5490000  20.7440000  13.0960000
  18.8340000  20.7530000  20.6800000  17.3000000  21.3150000  22.5740000
  19.9370000  20.2910000  19.0330000  17.6020000  21.1500000  12.1840000
  15.8430000  22.1710000  11.9940000  19.3280000  20.3030000  12.8430000
  19.4580000  20.4700000  21.3090000  16.3100000  22.1450000  23.0670000
  17.9280000  20.4850000  23.4700000  17.7810000  20.8430000  10.6930000
  15.9620000  22.1650000  24.4060000  15.8830000  22.7440000  22.4990000
  17.6060000  20.5490000  24.8410000  18.6160000  19.9370000  23.1660000
  18.9480000  21.5560000  10.0520000  17.8900000  19.8800000  10.6520000
  16.9450000  21.0870000  10.2650000  16.6300000  21.3700000  25.2930000
  15.2670000  22.6970000  24.7210000  18.0490000  19.9750000  25.4240000
  19.1680000  21.0470000   8.5970000  18.8100000  22.5130000   9.9700000
  19.7840000  21.3960000  10.5180000  16.4250000  21.3930000  26.2000000
  20.3690000  21.6350000   7.9090000  18.3470000  21.2390000   8.1180000
  19.2760000  20.0860000   8.6770000  20.5500000  21.0990000   6.4620000
  20.2520000  22.5940000   7.8160000  21.1870000  21.4570000   8.3990000
  21.7820000  21.6290000   5.7520000  19.7270000  21.2810000   5.9820000
  20.6550000  20.1410000   6.5660000  21.9030000  21.0550000   4.3260000
  21.6600000  22.5860000   5.6470000  22.5940000  21.4590000   6.2540000
  21.0840000  21.2200000   3.8330000  22.0270000  20.1000000   4.4370000
  23.0580000  21.6580000   3.5740000  23.2110000  21.0600000   2.1590000
  22.9740000  22.6210000   3.4890000  23.8970000  21.4470000   4.0110000
  22.3970000  21.3180000   1.6990000  24.3900000  21.5790000   1.4010000
  23.2440000  20.0950000   2.2410000  24.3530000  22.5390000   1.3300000
  24.3970000  21.1970000   0.5220000  25.1920000  21.3290000   1.8670000
  13.0330000  22.1550000  70.5530000  14.1970000  21.5750000  69.4080000
  14.0910000  21.6410000  71.8510000  14.2090000  21.5790000  67.9450000
  15.3290000  21.1070000  69.9640000  13.7700000  21.7120000  73.2240000
  15.2970000  21.1350000  71.4130000  13.2470000  22.0000000  67.0170000
  15.3790000  21.0090000  67.5040000  16.4780000  20.5060000  68.8040000
  14.7170000  21.3070000  74.1540000  12.9520000  22.0590000  73.4970000
  16.2340000  20.6750000  72.3640000  13.5260000  21.8050000  65.6600000
  12.4450000  22.3690000  67.3120000  15.6440000  20.7440000  66.1410000
  15.9280000  20.7530000  73.7250000  14.3950000  21.3150000  75.6180000
  17.0310000  20.2910000  72.0780000  14.6960000  21.1500000  65.2290000
  12.9380000  22.1710000  65.0390000  16.4220000  20.3030000  65.8880000
  16.5530000  20.4700000  74.3540000  13.4050000  22.1450000  76.1120000
  15.0230000  20.4850000  76.5140000  14.8750000  20.8430000  63.7370000
  13.0570000  22.1650000  77.4510000  12.9770000  22.7440000  75.5430000
  14.7000000  20.5490000  77.8860000  15.7110000  19.9370000  76.2100000
  16.0430000  21.5560000  63.0970000  14.9850000  19.8800000  63.6970000
  14.0390000  21.0870000  63.3090000  13.7250000  21.3700000  78.3380000
  12.3610000  22.6970000  77.7650000  15.1440000  19.9750000  78.4690000
  16.2620000  21.0470000  61.6410000  15.9050000  22.5130000  63.0140000
  16.8790000  21.3960000  63.5630000  13.5190000  21.3930000  79.2440000
  17.4640000  21.6350000  60.9530000  15.4410000  21.2390000  61.1620000
  16.3710000  20.0860000  61.7220000  17.6440000  21.0990000  59.5060000
  17.3470000  22.5940000  60.8610000  18.2820000  21.4570000  61.4440000
  18.8760000  21.6290000  58.7970000  16.8210000  21.2810000  59.0270000
  17.7500000  20.1410000  59.6100000  18.9970000  21.0550000  57.3710000
  18.7540000  22.5860000  58.6910000  19.6890000  21.4590000  59.2980000
  18.1790000  21.2200000  56.8770000  19.1220000  20.1000000  57.4820000
  20.1520000  21.6580000  56.6190000  20.3060000  21.0600000  55.2040000
  20.0690000  22.6210000  56.5340000  20.9920000  21.4470000  57.0560000
  19.4910000  21.3180000  54.7440000  21.4850000  21.5790000  54.4460000
  20.3390000  20.0950000  55.2860000  21.4480000  22.5390000  54.3750000
  21.4910000  21.1970000  53.5670000  22.2860000  21.3290000  54.9120000
  15.9380000  29.9120000  17.5080000  17.1020000  29.3320000  16.3640000
  16.9960000  29.3970000  18.8070000  17.1150000  29.3360000  14.9000000
  18.2350000  28.8640000  16.9190000  16.6760000  29.4690000  20.1790000
  18.2020000  28.8920000  18.3690000  16.1520000  29.7570000  13.9730000
  18.2840000  28.7660000  14.4590000  19.3830000  28.2630000  15.7600000
  17.6220000  29.0640000  21.1090000  15.8580000  29.8160000  20.4530000
  19.1390000  28.4320000  19.3200000  16.4310000  29.5620000  12.6150000
  15.3510000  30.1260000  14.2670000  18.5490000  28.5010000  13.0960000
  18.8340000  28.5100000  20.6800000  17.3000000  29.0720000  22.5740000
  19.9370000  28.0480000  19.0330000  17.6020000  28.9070000  12.1840000
  15.8430000  29.9280000  11.9940000  19.3280000  28.0600000  12.8430000
  19.4580000  28.2270000  21.3090000  16.3100000  29.9020000  23.0670000
  17.9280000  28.2420000  23.4700000  17.7810000  28.6000000  10.6930000
  15.9620000  29.9220000  24.4060000  15.8830000  30.5000000  22.4990000
  17.6060000  28.3050000  24.8410000  18.6160000  27.6940000  23.1660000
  18.9480000  29.3130000  10.0520000  17.8900000  27.6370000  10.6520000
  16.9450000  28.8440000  10.2650000  16.6300000  29.1270000  25.2930000
  15.2670000  30.4530000  24.7210000  18.0490000  27.7320000  25.4240000
  19.1680000  28.8030000   8.5970000  18.8100000  30.2700000   9.9700000
  19.7840000  29.1530000  10.5180000  16.4250000  29.1500000  26.2000000
  20.3690000  29.3920000   7.9090000  18.3470000  28.9960000   8.1180000
  19.2760000  27.8430000   8.6770000  20.5500000  28.8560000   6.4620000
  20.2520000  30.3510000   7.8160000  21.1870000  29.2140000   8.3990000
  21.7820000  29.3860000   5.7520000  19.7270000  29.0380000   5.9820000
  20.6550000  27.8980000   6.5660000  21.9030000  28.8120000   4.3260000
  21.6600000  30.3420000   5.6470000  22.5940000  29.2160000   6.2540000
  21.0840000  28.9770000   3.8330000  22.0270000  27.8570000   4.4370000
  23.0580000  29.4150000   3.5740000  23.2110000  28.8170000   2.1590000
  22.9740000  30.3780000   3.4890000  23.8970000  29.2040000   4.0110000
  22.3970000  29.0750000   1.6990000  24.3900000  29.3360000   1.4010000
  23.2440000  27.8510000   2.2410000  24.3530000  30.2960000   1.3300000
  24.3970000  28.9540000   0.5220000  25.1920000  29.0860000   1.8670000
  13.0330000  29.9120000  70.5530000  14.1970000  29.3320000  69.4080000
  14.0910000  29.3970000  71.8510000  14.2090000  29.3360000  67.9450000
  15.3290000  28.8640000  69.9640000  13.7700000  29.4690000  73.2240000
  15.2970000  28.8920000  71.4130000  13.2470000  29.7570000  67.0170000
  15.3790000  28.7660000  67.5040000  16.4780000  28.2630000  68.8040000
  14.7170000  29.0640000  74.1540000  12.9520000  29.8160000  73.4970000
  16.2340000  28.4320000  72.3640000  13.5260000  29.5620000  65.6600000
  12.4450000  30.1260000  67.3120000  15.6440000  28.5010000  66.1410000
  15.9280000  28.5100000  73.7250000  14.3950000  29.0720000  75.6180000
  17.0310000  28.0480000  72.0780000  14.6960000  28.9070000  65.2290000
  12.9380000  29.9280000  65.0390000  16.4220000  28.0600000  65.8880000
  16.5530000  28.2270000  74.3540000  13.4050000  29.9020000  76.1120000
  15.0230000  28.2420000  76.5140000  14.8750000  28.6000000  63.7370000
  13.0570000  29.9220000  77.4510000  12.9770000  30.5000000  75.5430000
  14.7000000  28.3050000  77.8860000  15.7110000  27.6940000  76.2100000
  16.0430000  29.3130000  63.0970000  14.9850000  27.6370000  63.6970000
  14.0390000  28.8440000  63.3090000  13.7250000  29.1270000  78.3380000
  12.3610000  30.4530000  77.7650000  15.1440000  27.7320000  78.4690000
  16.2620000  28.8030000  61.6410000  15.9050000  30.2700000  63.0140000
  16.8790000  29.1530000  63.5630000  13.5190000  29.1500000  79.2440000
  17.4640000  29.3920000  60.9530000  15.4410000  28.9960000  61.1620000
  16.3710000  27.8430000  61.7220000  17.6440000  28.8560000  59.5060000
  17.3470000  30.3510000  60.8610000  18.2820000  29.2140000  61.4440000
  18.8760000  29.3860000  58.7970000  16.8210000  29.0380000  59.0270000
  17.7500000  27.8980000  59.6100000  18.9970000  28.8120000  57.3710000
  18.7540000  30.3420000  58.6910000  19.6890000  29.2160000  59.2980000
  18.1790000  28.9770000  56.8770000  19.1220000  27.8570000  57.4820000
  20.1520000  29.4150000  56.6190000  20.3060000  28.8170000  55.2040000
  20.0690000  30.3780000  56.5340000  20.9920000  29.2040000  57.0560000
  19.4910000  29.0750000  54.7440000  21.4850000  29.3360000  54.4460000
  20.3390000  27.8510000  55.2860000  21.4480000  30.2960000  54.3750000
  21.4910000  28.9540000  53.5670000  22.2860000  29.0860000  54.9120000
  15.9380000  37.6690000  17.5080000  17.1020000  37.0880000  16.3640000
  16.9960000  37.1540000  18.8070000  17.1150000  37.0930000  14.9000000
  18.2350000  36.6210000  16.9190000  16.6760000  37.2260000  20.1790000
  18.2020000  36.6490000  18.3690000  16.1520000  37.5130000  13.9730000
  18.2840000  36.5230000  14.4590000  19.3830000  36.0190000  15.7600000
  17.6220000  36.8210000  21.1090000  15.8580000  37.5730000  20.4530000
  19.1390000  36.1890000  19.3200000  16.4310000  37.3190000  12.6150000
  15.3510000  37.8830000  14.2670000  18.5490000  36.2580000  13.0960000
  18.8340000  36.2670000  20.6800000  17.3000000  36.8290000  22.5740000
  19.9370000  35.8050000  19.0330000  17.6020000  36.6640000  12.1840000
  15.8430000  37.6840000  11.9940000  19.3280000  35.8160000  12.8430000
  19.4580000  35.9840000  21.3090000  16.3100000  37.6580000  23.0670000
  17.9280000  35.9990000  23.4700000  17.7810000  36.3570000  10.6930000
  15.9620000  37.6790000  24.4060000  15.8830000  38.2570000  22.4990000
  17.6060000  36.0620000  24.8410000  18.6160000  35.4510000  23.1660000
  18.9480000  37.0700000  10.0520000  17.8900000  35.3940000  10.6520000
  16.9450000  36.6000000  10.2650000  16.6300000  36.8840000  25.2930000
  15.2670000  38.2100000  24.7210000  18.0490000  35.4890000  25.4240000
  19.1680000  36.5600000   8.5970000  18.8100000  38.0270000   9.9700000
  19.7840000  36.9100000  10.5180000  16.4250000  36.9070000  26.2000000
  20.3690000  37.1490000   7.9090000  18.3470000  36.7530000   8.1180000
  19.2760000  35.6000000   8.6770000  20.5500000  36.6130000   6.4620000
  20.2520000  38.1080000   7.8160000  21.1870000  36.9700000   8.3990000
  21.7820000  37.1430000   5.7520000  19.7270000  36.7950000   5.9820000
  20.6550000  35.6540000   6.5660000  21.9030000  36.5690000   4.3260000
  21.6600000  38.0990000   5.6470000  22.5940000  36.9730000   6.2540000
  21.0840000  36.7340000   3.8330000  22.0270000  35.6130000   4.4370000
  23.0580000  37.1710000   3.5740000  23.2110000  36.5740000   2.1590000
  22.9740000  38.1340000   3.4890000  23.8970000  36.9610000   4.0110000
  22.3970000  36.8320000   1.6990000  24.3900000  37.0930000   1.4010000
  23.2440000  35.6080000   2.2410000  24.3530000  38.0530000   1.3300000
  24.3970000  36.7110000   0.5220000  25.1920000  36.8420000   1.8670000
  13.0330000  37.6690000  70.5530000  14.1970000  37.0880000  69.4080000
  14.0910000  37.1540000  71.8510000  14.2090000  37.0930000  67.9450000
  15.3290000  36.6210000  69.9640000  13.7700000  37.2260000  73.2240000
  15.2970000  36.6490000  71.4130000  13.2470000  37.5130000  67.0170000
  15.3790000  36.5230000  67.5040000  16.4780000  36.0190000  68.8040000
  14.7170000  36.8210000  74.1540000  12.9520000  37.5730000  73.4970000
  16.2340000  36.1890000  72.3640000  13.5260000  37.3190000  65.6600000
  12.4450000  37.8830000  67.3120000  15.6440000  36.2580000  66.1410000
  15.9280000  36.2670000  73.7250000  14.3950000  36.8290000  75.6180000
  17.0310000  35.8050000  72.0780000  14.6960000  36.6640000  65.2290000
  12.9380000  37.6840000  65.0390000  16.4220000  35.8160000  65.8880000
  16.5530000  35.9840000  74.3540000  13.4050000  37.6580000  76.1120000
  15.0230000  35.9990000  76.5140000  14.8750000  36.3570000  63.7370000
  13.0570000  37.6790000  77.4510000  12.9770000  38.2570000  75.5430000
  14.7000000  36.0620000  77.8860000  15.7110000  35.4510000  76.2100000
  16.0430000  37.0700000  63.0970000  14.9850000  35.3940000  63.6970000
  14.0390000  36.6000000  63.3090000  13.7250000  36.8840000  78.3380000
  12.3610000  38.2100000  77.7650000  15.1440000  35.4890000  78.4690000
  16.2620000  36.5600000  61.6410000  15.9050000  38.0270000  63.0140000
  16.8790000  36.9100000  63.5630000  13.5190000  36.9070000  79.2440000
  17.4640000  37.1490000  60.9530000  15.4410000  36.7530000  61.1620000
  16.3710000  35.6000000  61.7220000  17.6440000  36.6130000  59.5060000
  17.3470000  38.1080000  60.8610000  18.2820000  36.9700000  61.4440000
  18.8760000  37.1430000  58.7970000  16.8210000  36.7950000  59.0270000
  17.7500000  35.6540000  59.6100000  18.9970000  36.5690000  57.3710000
  18.7540000  38.0990000  58.6910000  19.6890000  36.9730000  59.2980000
  18.1790000  36.7340000  56.8770000  19.1220000  35.6130000  57.4820000
  20.1520000  37.1710000  56.6190000  20.3060000  36.5740000  55.2040000
  20.0690000  38.1340000  56.5340000  20.9920000  36.9610000  57.0560000
  19.4910000  36.8320000  54.7440000  21.4850000  37.0930000  54.4460000
  20.3390000  35.6080000  55.2860000  21.4480000  38.0530000  54.3750000
  21.4910000  36.7110000  53.5670000  22.2860000  36.8420000  54.9120000
  15.9380000  45.4250000  17.5080000  17.1020000  44.8450000  16.3640000
  16.9960000  44.9110000  18.8070000  17.1150000  44.8500000  14.9000000
  18.2350000  44.3770000  16.9190000  16.6760000  44.9820000  20.1790000
  18.2020000  44.4050000  18.3690000  16.1520000  45.2700000  13.9730000
  18.2840000  44.2800000  14.4590000  19.3830000  43.7760000  15.7600000
  17.6220000  44.5780000  21.1090000  15.8580000  45.3300000  20.4530000
  19.1390000  43.9450000  19.3200000  16.4310000  45.0760000  12.6150000
  15.3510000  45.6400000  14.2670000  18.5490000  44.0140000  13.0960000
  18.8340000  44.0240000  20.6800000  17.3000000  44.5850000  22.5740000
  19.9370000  43.5620000  19.0330000  17.6020000  44.4210000  12.1840000
  15.8430000  45.4410000  11.9940000  19.3280000  43.5730000  12.8430000
  19.4580000  43.7410000  21.3090000  16.3100000  45.4150000  23.0670000
  17.9280000  43.7550000  23.4700000  17.7810000  44.1140000  10.6930000
  15.9620000  45.4350000  24.4060000  15.8830000  46.0140000  22.4990000
  17.6060000  43.8190000  24.8410000  18.6160000  43.2080000  23.1660000
  18.9480000  44.8270000  10.0520000  17.8900000  43.1510000  10.6520000
  16.9450000  44.3570000  10.2650000  16.6300000  44.6400000  25.2930000
  15.2670000  45.9670000  24.7210000  18.0490000  43.2450000  25.4240000
  19.1680000  44.3170000   8.5970000  18.8100000  45.7830000   9.9700000
  19.7840000  44.6660000  10.5180000  16.4250000  44.6640000  26.2000000
  20.3690000  44.9060000   7.9090000  18.3470000  44.5100000   8.1180000
  19.2760000  43.3570000   8.6770000  20.5500000  44.3700000   6.4620000
  20.2520000  45.8640000   7.8160000  21.1870000  44.7270000   8.3990000
  21.7820000  44.8990000   5.7520000  19.7270000  44.5510000   5.9820000
  20.6550000  43.4110000   6.5660000  21.9030000  44.3250000   4.3260000
  21.6600000  45.8560000   5.6470000  22.5940000  44.7300000   6.2540000
  21.0840000  44.4910000   3.8330000  22.0270000  43.3700000   4.4370000
  23.0580000  44.9280000   3.5740000  23.2110000  44.3310000   2.1590000
  22.9740000  45.8910000   3.4890000  23.8970000  44.7170000   4.0110000
  22.3970000  44.5880000   1.6990000  24.3900000  44.8500000   1.4010000
  23.2440000  43.3650000   2.2410000  24.3530000  45.8100000   1.3300000
  24.3970000  44.4670000   0.5220000  25.1920000  44.5990000   1.8670000
  13.0330000  45.4250000  70.5530000  14.1970000  44.8450000  69.4080000
  14.0910000  44.9110000  71.8510000  14.2090000  44.8500000  67.9450000
  15.3290000  44.3770000  69.9640000  13.7700000  44.9820000  73.2240000
  15.2970000  44.4050000  71.4130000  13.2470000  45.2700000  67.0170000
  15.3790000  44.2800000  67.5040000  16.4780000  43.7760000  68.8040000
  14.7170000  44.5780000  74.1540000  12.9520000  45.3300000  73.4970000
  16.2340000  43.9450000  72.3640000  13.5260000  45.0760000  65.6600000
  12.4450000  45.6400000  67.3120000  15.6440000  44.0140000  66.1410000
  15.9280000  44.0240000  73.7250000  14.3950000  44.5850000  75.6180000
  17.0310000  43.5620000  72.0780000  14.6960000  44.4210000  65.2290000
  12.9380000  45.4410000  65.0390000  16.4220000  43.5730000  65.8880000
  16.5530000  43.7410000  74.3540000  13.4050000  45.4150000  76.1120000
  15.0230000  43.7550000  76.5140000  14.8750000  44.1140000  63.7370000
  13.0570000  45.4350000  77.4510000  12.9770000  46.0140000  75.5430000
  14.7000000  43.8190000  77.8860000  15.7110000  43.2080000  76.2100000
  16.0430000  44.8270000  63.0970000  14.9850000  43.1510000  63.6970000
  14.0390000  44.3570000  63.3090000  13.7250000  44.6400000  78.3380000
  12.3610000  45.9670000  77.7650000  15.1440000  43.2450000  78.4690000
  16.2620000  44.3170000  61.6410000  15.9050000  45.7830000  63.0140000
  16.8790000  44.6660000  63.5630000  13.5190000  44.6640000  79.2440000
  17.4640000  44.9060000  60.9530000  15.4410000  44.5100000  61.1620000
  16.3710000  43.3570000  61.7220000  17.6440000  44.3700000  59.5060000
  17.3470000  45.8640000  60.8610000  18.2820000  44.7270000  61.4440000
  18.8760000  44.8990000  58.7970000  16.8210000  44.5510000  59.0270000
  17.7500000  43.4110000  59.6100000  18.9970000  44.3250000  57.3710000
  18.7540000  45.8560000  58.6910000  19.6890000  44.7300000  59.2980000
  18.1790000  44.4910000  56.8770000  19.1220000  43.3700000  57.4820000
  20.1520000  44.9280000  56.6190000  20.3060000  44.3310000  55.2040000
  20.0690000  45.8910000  56.5340000  20.9920000  44.7170000  57.0560000
  19.4910000  44.5880000  54.7440000  21.4850000  44.8500000  54.4460000
  20.3390000  43.3650000  55.2860000  21.4480000  45.8100000  54.3750000
  21.4910000  44.4670000  53.5670000  22.2860000  44.5990000  54.9120000
   5.3450000   2.7630000  35.5360000   4.1810000   2.1830000  36.6810000
   4.2870000   2.2490000  34.2380000   4.1680000   2.1870000  38.1440000
   3.0480000   1.7150000  36.1250000   4.6070000   2.3200000  32.8650000
   3.0810000   1.7430000  34.6760000   5.1310000   2.6080000  39.0720000
   2.9990000   1.6170000  38.5850000   1.9000000   1.1140000  37.2850000
   3.6610000   1.9150000  31.9350000   5.4260000   2.6670000  32.5920000
   2.1440000   1.2830000  33.7250000   4.8520000   2.4130000  40.4290000
   5.9320000   2.9770000  38.7770000   2.7340000   1.3520000  39.9480000
   2.4490000   1.3610000  32.3640000   3.9830000   1.9230000  30.4710000
   1.3460000   0.8990000  34.0110000   3.6820000   1.7580000  40.8600000
   5.4400000   2.7790000  41.0500000   1.9560000   0.9110000  40.2010000
   1.8250000   1.0780000  31.7350000   4.9730000   2.7530000  29.9770000
   3.3550000   1.0930000  29.5750000   3.5030000   1.4510000  42.3520000
   5.3210000   2.7730000  28.6380000   5.4000000   3.3520000  30.5460000
   3.6780000   1.1570000  28.2030000   2.6670000   0.5450000  29.8790000
   2.3350000   2.1640000  42.9920000   3.3930000   0.4880000  42.3920000
   4.3390000   1.6950000  42.7800000   4.6530000   1.9780000  27.7510000
   6.0160000   3.3050000  28.3240000   3.2340000   0.5830000  27.6200000
   2.1150000   1.6550000  44.4480000   2.4730000   3.1210000  43.0750000
   1.4990000   2.0040000  42.5260000   4.8590000   2.0010000  26.8450000
   0.9140000   2.2430000  45.1360000   2.9360000   1.8470000  44.9270000
   2.0070000   0.6940000  44.3670000   0.7330000   1.7070000  46.5830000
   1.0310000   3.2020000  45.2280000   0.0960000   2.0650000  44.6450000
  -0.4990000   2.2370000  47.2920000   1.5560000   1.8890000  47.0620000
   0.6280000   0.7490000  46.4790000  -0.6200000   1.6630000  48.7180000
  -0.3770000   3.1940000  47.3980000  -1.3110000   2.0670000  46.7910000
   0.1990000   1.8280000  49.2120000  -0.7440000   0.7080000  48.6070000
  -1.7750000   2.2660000  49.4700000  -1.9280000   1.6680000  50.8850000
  -1.6910000   3.2290000  49.5550000  -2.6140000   2.0550000  49.0330000
  -1.1130000   1.9260000  51.3450000  -3.1070000   2.1870000  51.6430000
  -1.9610000   0.7030000  50.8030000  -3.0700000   3.1470000  51.7140000
  -3.1140000   1.8050000  52.5220000  -3.9080000   1.9370000  51.1770000
   2.4400000   2.7630000  88.5810000   1.2750000   2.1830000  89.7250000
   1.3810000   2.2490000  87.2820000   1.2630000   2.1870000  91.1890000
   0.1430000   1.7150000  89.1700000   1.7020000   2.3200000  85.9100000
   0.1760000   1.7430000  87.7200000   2.2260000   2.6080000  92.1160000
   0.0940000   1.6170000  91.6300000  -1.0050000   1.1140000  90.3290000
   0.7560000   1.9150000  84.9800000   2.5200000   2.6670000  85.6360000
  -0.7610000   1.2830000  86.7690000   1.9460000   2.4130000  93.4740000
   3.0270000   2.9770000  91.8220000  -0.1720000   1.3520000  92.9930000
  -0.4560000   1.3610000  85.4090000   1.0770000   1.9230000  83.5150000
  -1.5590000   0.8990000  87.0560000   0.7760000   1.7580000  93.9050000
   2.5340000   2.7790000  94.0950000  -0.9500000   0.9110000  93.2460000
  -1.0800000   1.0780000  84.7800000   2.0680000   2.7530000  83.0220000
   0.4500000   1.0930000  82.6190000   0.5970000   1.4510000  95.3960000
   2.4160000   2.7730000  81.6830000   2.4950000   3.3520000  83.5900000
   0.7720000   1.1570000  81.2480000  -0.2380000   0.5450000  82.9230000
  -0.5700000   2.1640000  96.0370000   0.4880000   0.4880000  95.4370000
   1.4330000   1.6950000  95.8240000   1.7480000   1.9780000  80.7960000
   3.1110000   3.3050000  81.3680000   0.3290000   0.5830000  80.6650000
  -0.7900000   1.6550000  97.4920000  -0.4320000   3.1210000  96.1190000
  -1.4060000   2.0040000  95.5710000   1.9530000   2.0010000  79.8890000
  -1.9920000   2.2430000  98.1800000   0.0310000   1.8470000  97.9710000
  -0.8980000   0.6940000  97.4120000  -2.1720000   1.7070000  99.6270000
  -1.8740000   3.2020000  98.2730000  -2.8090000   2.0650000  97.6900000
  -3.4040000   2.2370000 100.3370000  -1.3490000   1.8890000 100.1070000
  -2.2770000   0.7490000  99.5230000  -3.5250000   1.6630000 101.7630000
  -3.2820000   3.1940000 100.4420000  -4.2160000   2.0670000  99.8350000
  -2.7060000   1.8280000 102.2560000  -3.6490000   0.7080000 101.6520000
  -4.6800000   2.2660000 102.5150000  -4.8340000   1.6680000 103.9300000
  -4.5970000   3.2290000 102.6000000  -5.5200000   2.0550000 102.0780000
  -4.0190000   1.9260000 104.3900000  -6.0120000   2.1870000 104.6880000
  -4.8660000   0.7030000 103.8480000  -5.9750000   3.1470000 104.7590000
  -6.0190000   1.8050000 105.5670000  -6.8140000   1.9370000 104.2220000
   5.3450000  10.5200000  35.5360000   4.1810000   9.9400000  36.6810000
   4.2870000  10.0050000  34.2380000   4.1680000   9.9440000  38.1440000
   3.0480000   9.4720000  36.1250000   4.6070000  10.0770000  32.8650000
   3.0810000   9.5000000  34.6760000   5.1310000  10.3650000  39.0720000
   2.9990000   9.3740000  38.5850000   1.9000000   8.8710000  37.2850000
   3.6610000   9.6720000  31.9350000   5.4260000  10.4240000  32.5920000
   2.1440000   9.0400000  33.7250000   4.8520000  10.1700000  40.4290000
   5.9320000  10.7340000  38.7770000   2.7340000   9.1090000  39.9480000
   2.4490000   9.1180000  32.3640000   3.9830000   9.6800000  30.4710000
   1.3460000   8.6560000  34.0110000   3.6820000   9.5150000  40.8600000
   5.4400000  10.5360000  41.0500000   1.9560000   8.6680000  40.2010000
   1.8250000   8.8350000  31.7350000   4.9730000  10.5100000  29.9770000
   3.3550000   8.8500000  29.5750000   3.5030000   9.2080000  42.3520000
   5.3210000  10.5300000  28.6380000   5.4000000  11.1080000  30.5460000
   3.6780000   8.9130000  28.2030000   2.6670000   8.3020000  29.8790000
   2.3350000   9.9210000  42.9920000   3.3930000   8.2450000  42.3920000
   4.3390000   9.4520000  42.7800000   4.6530000   9.7350000  27.7510000
   6.0160000  11.0610000  28.3240000   3.2340000   8.3400000  27.6200000
   2.1150000   9.4110000  44.4480000   2.4730000  10.8780000  43.0750000
   1.4990000   9.7610000  42.5260000   4.8590000   9.7580000  26.8450000
   0.9140000  10.0000000  45.1360000   2.9360000   9.6040000  44.9270000
   2.0070000   8.4510000  44.3670000   0.7330000   9.4640000  46.5830000
   1.0310000  10.9590000  45.2280000   0.0960000   9.8220000  44.6450000
  -0.4990000   9.9940000  47.2920000   1.5560000   9.6460000  47.0620000
   0.6280000   8.5060000  46.4790000  -0.6200000   9.4200000  48.7180000
  -0.3770000  10.9500000  47.3980000  -1.3110000   9.8240000  46.7910000
   0.1990000   9.5850000  49.2120000  -0.7440000   8.4650000  48.6070000
  -1.7750000  10.0230000  49.4700000  -1.9280000   9.4250000  50.8850000
  -1.6910000  10.9860000  49.5550000  -2.6140000   9.8120000  49.0330000
  -1.1130000   9.6830000  51.3450000  -3.1070000   9.9440000  51.6430000
  -1.9610000   8.4590000  50.8030000  -3.0700000  10.9040000  51.7140000
  -3.1140000   9.5620000  52.5220000  -3.9080000   9.6940000  51.1770000
   2.4400000  10.5200000  88.5810000   1.2750000   9.9400000  89.7250000
   1.3810000  10.0050000  87.2820000   1.2630000   9.9440000  91.1890000
   0.1430000   9.4720000  89.1700000   1.7020000  10.0770000  85.9100000
   0.1760000   9.5000000  87.7200000   2.2260000  10.3650000  92.1160000
   0.0940000   9.3740000  91.6300000  -1.0050000   8.8710000  90.3290000
   0.7560000   9.6720000  84.9800000   2.5200000  10.4240000  85.6360000
  -0.7610000   9.0400000  86.7690000   1.9460000  10.1700000  93.4740000
   3.0270000  10.7340000  91.8220000  -0.1720000   9.1090000  92.9930000
  -0.4560000   9.1180000  85.4090000   1.0770000   9.6800000  83.5150000
  -1.5590000   8.6560000  87.0560000   0.7760000   9.5150000  93.9050000
   2.5340000  10.5360000  94.0950000  -0.9500000   8.6680000  93.2460000
  -1.0800000   8.8350000  84.7800000   2.0680000  10.5100000  83.0220000
   0.4500000   8.8500000  82.6190000   0.5970000   9.2080000  95.3960000
   2.4160000  10.5300000  81.6830000   2.4950000  11.1080000  83.5900000
   0.7720000   8.9130000  81.2480000  -0.2380000   8.3020000  82.9230000
  -0.5700000   9.9210000  96.0370000   0.4880000   8.2450000  95.4370000
   1.4330000   9.4520000  95.8240000   1.7480000   9.7350000  80.7960000
   3.1110000  11.0610000  81.3680000   0.3290000   8.3400000  80.6650000
  -0.7900000   9.4110000  97.4920000  -0.4320000  10.8780000  96.1190000
  -1.4060000   9.7610000  95.5710000   1.9530000   9.7580000  79.8890000
  -1.9920000  10.0000000  98.1800000   0.0310000   9.6040000  97.9710000
  -0.8980000   8.4510000  97.4120000  -2.1720000   9.4640000  99.6270000
  -1.8740000  10.9590000  98.2730000  -2.8090000   9.8220000  97.6900000
  -3.4040000   9.9940000 100.3370000  -1.3490000   9.6460000 100.1070000
  -2.2770000   8.5060000  99.5230000  -3.5250000   9.4200000 101.7630000
  -3.2820000  10.9500000 100.4420000  -4.2160000   9.8240000  99.8350000
  -2.7060000   9.5850000 102.2560000  -3.6490000   8.4650000 101.6520000
  -4.6800000  10.0230000 102.5150000  -4.8340000   9.4250000 103.9300000
  -4.5970000  10.9860000 102.6000000  -5.5200000   9.8120000 102.0780000
  -4.0190000   9.6830000 104.3900000  -6.0120000   9.9440000 104.6880000
  -4.8660000   8.4590000 103.8480000  -5.9750000  10.9040000 104.7590000
  -6.0190000   9.5620000 105.5670000  -6.8140000   9.6940000 104.2220000
   5.3450000  18.2770000  35.5360000   4.1810000  17.6960000  36.6810000
   4.2870000  17.7620000  34.2380000   4.1680000  17.7010000  38.1440000
   3.0480000  17.2290000  36.1250000   4.6070000  17.8340000  32.8650000
   3.0810000  17.2570000  34.6760000   5.1310000  18.1210000  39.0720000
   2.9990000  17.1310000  38.5850000   1.9000000  16.6270000  37.2850000
   3.6610000  17.4290000  31.9350000   5.4260000  18.1810000  32.5920000
   2.1440000  16.7970000  33.7250000   4.8520000  17.9270000  40.4290000
   5.9320000  18.4910000  38.7770000   2.7340000  16.8660000  39.9480000
   2.4490000  16.8750000  32.3640000   3.9830000  17.4370000  30.4710000
   1.3460000  16.4130000  34.0110000   3.6820000  17.2720000  40.8600000
   5.4400000  18.2920000  41.0500000   1.9560000  16.4240000  40.2010000
   1.8250000  16.5920000  31.7350000   4.9730000  18.2660000  29.9770000
   3.3550000  16.6070000  29.5750000   3.5030000  16.9650000  42.3520000
   5.3210000  18.2870000  28.6380000   5.4000000  18.8650000  30.5460000
   3.6780000  16.6700000  28.2030000   2.6670000  16.0590000  29.8790000
   2.3350000  17.6780000  42.9920000   3.3930000  16.0020000  42.3920000
   4.3390000  17.2080000  42.7800000   4.6530000  17.4920000  27.7510000
   6.0160000  18.8180000  28.3240000   3.2340000  16.0970000  27.6200000
   2.1150000  17.1680000  44.4480000   2.4730000  18.6350000  43.0750000
   1.4990000  17.5180000  42.5260000   4.8590000  17.5150000  26.8450000
   0.9140000  17.7570000  45.1360000   2.9360000  17.3610000  44.9270000
   2.0070000  16.2080000  44.3670000   0.7330000  17.2210000  46.5830000
   1.0310000  18.7160000  45.2280000   0.0960000  17.5780000  44.6450000
  -0.4990000  17.7510000  47.2920000   1.5560000  17.4030000  47.0620000
   0.6280000  16.2620000  46.4790000  -0.6200000  17.1770000  48.7180000
  -0.3770000  18.7070000  47.3980000  -1.3110000  17.5810000  46.7910000
   0.1990000  17.3420000  49.2120000  -0.7440000  16.2210000  48.6070000
  -1.7750000  17.7790000  49.4700000  -1.9280000  17.1820000  50.8850000
  -1.6910000  18.7420000  49.5550000  -2.6140000  17.5690000  49.0330000
  -1.1130000  17.4400000  51.3450000  -3.1070000  17.7010000  51.6430000
  -1.9610000  16.2160000  50.8030000  -3.0700000  18.6610000  51.7140000
  -3.1140000  17.3190000  52.5220000  -3.9080000  17.4500000  51.1770000
   2.4400000  18.2770000  88.5810000   1.2750000  17.6960000  89.7250000
   1.3810000  17.7620000  87.2820000   1.2630000  17.7010000  91.1890000
   0.1430000  17.2290000  89.1700000   1.7020000  17.8340000  85.9100000
   0.1760000  17.2570000  87.7200000   2.2260000  18.1210000  92.1160000
   0.0940000  17.1310000  91.6300000  -1.0050000  16.6270000  90.3290000
   0.7560000  17.4290000  84.9800000   2.5200000  18.1810000  85.6360000
  -0.7610000  16.7970000  86.7690000   1.9460000  17.9270000  93.4740000
   3.0270000  18.4910000  91.8220000  -0.1720000  16.8660000  92.9930000
  -0.4560000  16.8750000  85.4090000   1.0770000  17.4370000  83.5150000
  -1.5590000  16.4130000  87.0560000   0.7760000  17.2720000  93.9050000
   2.5340000  18.2920000  94.0950000  -0.9500000  16.4240000  93.2460000
  -1.0800000  16.5920000  84.7800000   2.0680000  18.2660000  83.0220000
   0.4500000  16.6070000  82.6190000   0.5970000  16.9650000  95.3960000
   2.4160000  18.2870000  81.6830000   2.4950000  18.8650000  83.5900000
   0.7720000  16.6700000  81.2480000  -0.2380000  16.0590000  82.9230000
  -0.5700000  17.6780000  96.0370000   0.4880000  16.0020000  95.4370000
   1.4330000  17.2080000  95.8240000   1.7480000  17.4920000  80.7960000
   3.1110000  18.8180000  81.3680000   0.3290000  16.0970000  80.6650000
  -0.7900000  17.1680000  97.4920000  -0.4320000  18.6350000  96.1190000
  -1.4060000  17.5180000  95.5710000   1.9530000  17.5150000  79.8890000
  -1.9920000  17.7570000  98.1800000   0.0310000  17.3610000  97.9710000
  -0.8980000  16.2080000  97.4120000  -2.1720000  17.2210000  99.6270000
  -1.8740000  18.7160000  98.2730000  -2.8090000  17.5780000  97.6900000
  -3.4040000  17.7510000 100.3370000  -1.3490000  17.4030000 100.1070000
  -2.2770000  16.2620000  99.5230000  -3.5250000  17.1770000 101.7630000
  -3.2820000  18.7070000 100.4420000  -4.2160000  17.5810000  99.8350000
  -2.7060000  17.3420000 102.2560000  -3.6490000  16.2210000 101.6520000
  -4.6800000  17.7790000 102.5150000  -4.8340000  17.1820000 103.9300000
  -4.5970000  18.7420000 102.6000000  -5.5200000  17.5690000 102.0780000
  -4.0190000  17.4400000 104.3900000  -6.0120000  17.7010000 104.6880000
  -4.8660000  16.2160000 103.8480000  -5.9750000  18.6610000 104.7590000
  -6.0190000  17.3190000 105.5670000  -6.8140000  17.4500000 104.2220000
   5.3450000  26.0330000  35.5360000   4.1810000  25.4530000  36.6810000
   4.2870000  25.5190000  34.2380000   4.1680000  25.4580000  38.1440000
   3.0480000  24.9850000  36.1250000   4.6070000  25.5900000  32.8650000
   3.0810000  25.0130000  34.6760000   5.1310000  25.8780000  39.0720000
   2.9990000  24.8880000  38.5850000   1.9000000  24.3840000  37.2850000
   3.6610000  25.1860000  31.9350000   5.4260000  25.9380000  32.5920000
   2.1440000  24.5530000  33.7250000   4.8520000  25.6840000  40.4290000
   5.9320000  26.2480000  38.7770000   2.7340000  24.6220000  39.9480000
   2.4490000  24.6320000  32.3640000   3.9830000  25.1930000  30.4710000
   1.3460000  24.1700000  34.0110000   3.6820000  25.0290000  40.8600000
   5.4400000  26.0490000  41.0500000   1.9560000  24.1810000  40.2010000
   1.8250000  24.3490000  31.7350000   4.9730000  26.0230000  29.9770000
   3.3550000  24.3630000  29.5750000   3.5030000  24.7220000  42.3520000
   5.3210000  26.0430000  28.6380000   5.4000000  26.6220000  30.5460000
   3.6780000  24.4270000  28.2030000   2.6670000  23.8160000  29.8790000
   2.3350000  25.4350000  42.9920000   3.3930000  23.7590000  42.3920000
   4.3390000  24.9650000  42.7800000   4.6530000  25.2480000  27.7510000
   6.0160000  26.5750000  28.3240000   3.2340000  23.8530000  27.6200000
   2.1150000  24.9250000  44.4480000   2.4730000  26.3910000  43.0750000
   1.4990000  25.2740000  42.5260000   4.8590000  25.2720000  26.8450000
   0.9140000  25.5140000  45.1360000   2.9360000  25.1180000  44.9270000
   2.0070000  23.9650000  44.3670000   0.7330000  24.9780000  46.5830000
   1.0310000  26.4720000  45.2280000   0.0960000  25.3350000  44.6450000
  -0.4990000  25.5070000  47.2920000   1.5560000  25.1590000  47.0620000
   0.6280000  24.0190000  46.4790000  -0.6200000  24.9330000  48.7180000
  -0.3770000  26.4640000  47.3980000  -1.3110000  25.3380000  46.7910000
   0.1990000  25.0990000  49.2120000  -0.7440000  23.9780000  48.6070000
  -1.7750000  25.5360000  49.4700000  -1.9280000  24.9390000  50.8850000
  -1.6910000  26.4990000  49.5550000  -2.6140000  25.3250000  49.0330000
  -1.1130000  25.1960000  51.3450000  -3.1070000  25.4580000  51.6430000
  -1.9610000  23.9730000  50.8030000  -3.0700000  26.4180000  51.7140000
  -3.1140000  25.0750000  52.5220000  -3.9080000  25.2070000  51.1770000
   2.4400000  26.0330000  88.5810000   1.2750000  25.4530000  89.7250000
   1.3810000  25.5190000  87.2820000   1.2630000  25.4580000  91.1890000
   0.1430000  24.9850000  89.1700000   1.7020000  25.5900000  85.9100000
   0.1760000  25.0130000  87.7200000   2.2260000  25.8780000  92.1160000
   0.0940000  24.8880000  91.6300000  -1.0050000  24.3840000  90.3290000
   0.7560000  25.1860000  84.9800000   2.5200000  25.9380000  85.6360000
  -0.7610000  24.5530000  86.7690000   1.9460000  25.6840000  93.4740000
   3.0270000  26.2480000  91.8220000  -0.1720000  24.6220000  92.9930000
  -0.4560000  24.6320000  85.4090000   1.0770000  25.1930000  83.5150000
  -1.5590000  24.1700000  87.0560000   0.7760000  25.0290000  93.9050000
   2.5340000  26.0490000  94.0950000  -0.9500000  24.1810000  93.2460000
  -1.0800000  24.3490000  84.7800000   2.0680000  26.0230000  83.0220000
   0.4500000  24.3630000  82.6190000   0.5970000  24.7220000  95.3960000
   2.4160000  26.0430000  81.6830000   2.4950000  26.6220000  83.5900000
   0.7720000  24.4270000  81.2480000  -0.2380000  23.8160000  82.9230000
  -0.5700000  25.4350000  96.0370000   0.4880000  23.7590000  95.4370000
   1.4330000  24.9650000  95.8240000   1.7480000  25.2480000  80.7960000
   3.1110000  26.5750000  81.3680000   0.3290000  23.8530000  80.6650000
  -0.7900000  24.9250000  97.4920000  -0.4320000  26.3910000  96.1190000
  -1.4060000  25.2740000  95.5710000   1.9530000  25.2720000  79.8890000
  -1.9920000  25.5140000  98.1800000   0.0310000  25.1180000  97.9710000
  -0.8980000  23.9650000  97.4120000  -2.1720000  24.9780000  99.6270000
  -1.8740000  26.4720000  98.2730000  -2.8090000  25.3350000  97.6900000
  -3.4040000  25.5070000 100.3370000  -1.3490000  25.1590000 100.1070000
  -2.2770000  24.0190000  99.5230000  -3.5250000  24.9330000 101.7630000
  -3.2820000  26.4640000 100.4420000  -4.2160000  25.3380000  99.8350000
  -2.7060000  25.0990000 102.2560000  -3.6490000  23.9780000 101.6520000
  -4.6800000  25.5360000 102.5150000  -4.8340000  24.9390000 103.9300000
  -4.5970000  26.4990000 102.6000000  -5.5200000  25.3250000 102.0780000
  -4.0190000  25.1960000 104.3900000  -6.0120000  25.4580000 104.6880000
  -4.8660000  23.9730000 103.8480000  -5.9750000  26.4180000 104.7590000
  -6.0190000  25.0750000 105.5670000  -6.8140000  25.2070000 104.2220000
   5.3450000  33.7900000  35.5360000   4.1810000  33.2100000  36.6810000
   4.2870000  33.2760000  34.2380000   4.1680000  33.2150000  38.1440000
   3.0480000  32.7420000  36.1250000   4.6070000  33.3470000  32.8650000
   3.0810000  32.7700000  34.6760000   5.1310000  33.6350000  39.0720000
   2.9990000  32.6440000  38.5850000   1.9000000  32.1410000  37.2850000
   3.6610000  32.9420000  31.9350000   5.4260000  33.6950000  32.5920000
   2.1440000  32.3100000  33.7250000   4.8520000  33.4400000  40.4290000
   5.9320000  34.0040000  38.7770000   2.7340000  32.3790000  39.9480000
   2.4490000  32.3890000  32.3640000   3.9830000  32.9500000  30.4710000
   1.3460000  31.9270000  34.0110000   3.6820000  32.7860000  40.8600000
   5.4400000  33.8060000  41.0500000   1.9560000  31.9380000  40.2010000
   1.8250000  32.1050000  31.7350000   4.9730000  33.7800000  29.9770000
   3.3550000  32.1200000  29.5750000   3.5030000  32.4780000  42.3520000
   5.3210000  33.8000000  28.6380000   5.4000000  34.3790000  30.5460000
   3.6780000  32.1840000  28.2030000   2.6670000  31.5720000  29.8790000
   2.3350000  33.1910000  42.9920000   3.3930000  31.5150000  42.3920000
   4.3390000  32.7220000  42.7800000   4.6530000  33.0050000  27.7510000
   6.0160000  34.3320000  28.3240000   3.2340000  31.6100000  27.6200000
   2.1150000  32.6820000  44.4480000   2.4730000  34.1480000  43.0750000
   1.4990000  33.0310000  42.5260000   4.8590000  33.0290000  26.8450000
   0.9140000  33.2700000  45.1360000   2.9360000  32.8740000  44.9270000
   2.0070000  31.7210000  44.3670000   0.7330000  32.7340000  46.5830000
   1.0310000  34.2290000  45.2280000   0.0960000  33.0920000  44.6450000
  -0.4990000  33.2640000  47.2920000   1.5560000  32.9160000  47.0620000
   0.6280000  31.7760000  46.4790000  -0.6200000  32.6900000  48.7180000
  -0.3770000  34.2210000  47.3980000  -1.3110000  33.0950000  46.7910000
   0.1990000  32.8550000  49.2120000  -0.7440000  31.7350000  48.6070000
  -1.7750000  33.2930000  49.4700000  -1.9280000  32.6960000  50.8850000
  -1.6910000  34.2560000  49.5550000  -2.6140000  33.0820000  49.0330000
  -1.1130000  32.9530000  51.3450000  -3.1070000  33.2150000  51.6430000
  -1.9610000  31.7300000  50.8030000  -3.0700000  34.1750000  51.7140000
  -3.1140000  32.8320000  52.5220000  -3.9080000  32.9640000  51.1770000
   2.4400000  33.7900000  88.5810000   1.2750000  33.2100000  89.7250000
   1.3810000  33.2760000  87.2820000   1.2630000  33.2150000  91.1890000
   0.1430000  32.7420000  89.1700000   1.7020000  33.3470000  85.9100000
   0.1760000  32.7700000  87.7200000   2.2260000  33.6350000  92.1160000
   0.0940000  32.6440000  91.6300000  -1.0050000  32.1410000  90.3290000
   0.7560000  32.9420000  84.9800000   2.5200000  33.6950000  85.6360000
  -0.7610000  32.3100000  86.7690000   1.9460000  33.4400000  93.4740000
   3.0270000  34.0040000  91.8220000  -0.1720000  32.3790000  92.9930000
  -0.4560000  32.3890000  85.4090000   1.0770000  32.9500000  83.5150000
  -1.5590000  31.9270000  87.0560000   0.7760000  32.7860000  93.9050000
   2.5340000  33.8060000  94.0950000  -0.9500000  31.9380000  93.2460000
  -1.0800000  32.1050000  84.7800000   2.0680000  33.7800000  83.0220000
   0.4500000  32.1200000  82.6190000   0.5970000  32.4780000  95.3960000
   2.4160000  33.8000000  81.6830000   2.4950000  34.3790000  83.5900000
   0.7720000  32.1840000  81.2480000  -0.2380000  31.5720000  82.9230000
  -0.5700000  33.1910000  96.0370000   0.4880000  31.5150000  95.4370000
   1.4330000  32.7220000  95.8240000   1.7480000  33.0050000  80.7960000
   3.1110000  34.3320000  81.3680000   0.3290000  31.6100000  80.6650000
  -0.7900000  32.6820000  97.4920000  -0.4320000  34.1480000  96.1190000
  -1.4060000  33.0310000  95.5710000   1.9530000  33.0290000  79.8890000
  -1.9920000  33.2700000  98.1800000   0.0310000  32.8740000  97.9710000
  -0.8980000  31.7210000  97.4120000  -2.1720000  32.7340000  99.6270000
  -1.8740000  34.2290000  98.2730000  -2.8090000  33.0920000  97.6900000
  -3.4040000  33.2640000 100.3370000  -1.3490000  32.9160000 100.1070000
  -2.2770000  31.7760000  99.5230000  -3.5250000  32.6900000 101.7630000
  -3.2820000  34.2210000 100.4420000  -4.2160000  33.0950000  99.8350000
  -2.7060000  32.8550000 102.2560000  -3.6490000  31.7350000 101.6520000
  -4.6800000  33.2930000 102.5150000  -4.8340000  32.6960000 103.9300000
  -4.5970000  34.2560000 102.6000000  -5.5200000  33.0820000 102.0780000
  -4.0190000  32.9530000 104.3900000  -6.0120000  33.2150000 104.6880000
  -4.8660000  31.7300000 103.8480000  -5.9750000  34.1750000 104.7590000
  -6.0190000  32.8320000 105.5670000  -6.8140000  32.9640000 104.2220000
   5.3450000  41.5470000  35.5360000   4.1810000  40.9670000  36.6810000
   4.2870000  41.0330000  34.2380000   4.1680000  40.9710000  38.1440000
   3.0480000  40.4990000  36.1250000   4.6070000  41.1040000  32.8650000
   3.0810000  40.5270000  34.6760000   5.1310000  41.3920000  39.0720000
   2.9990000  40.4010000  38.5850000   1.9000000  39.8980000  37.2850000
   3.6610000  40.6990000  31.9350000   5.4260000  41.4510000  32.5920000
   2.1440000  40.0670000  33.7250000   4.8520000  41.1970000  40.4290000
   5.9320000  41.7610000  38.7770000   2.7340000  40.1360000  39.9480000
   2.4490000  40.1450000  32.3640000   3.9830000  40.7070000  30.4710000
   1.3460000  39.6830000  34.0110000   3.6820000  40.5420000  40.8600000
   5.4400000  41.5630000  41.0500000   1.9560000  39.6950000  40.2010000
   1.8250000  39.8620000  31.7350000   4.9730000  41.5370000  29.9770000
   3.3550000  39.8770000  29.5750000   3.5030000  40.2350000  42.3520000
   5.3210000  41.5570000  28.6380000   5.4000000  42.1360000  30.5460000
   3.6780000  39.9410000  28.2030000   2.6670000  39.3290000  29.8790000
   2.3350000  40.9480000  42.9920000   3.3930000  39.2720000  42.3920000
   4.3390000  40.4790000  42.7800000   4.6530000  40.7620000  27.7510000
   6.0160000  42.0890000  28.3240000   3.2340000  39.3670000  27.6200000
   2.1150000  40.4390000  44.4480000   2.4730000  41.9050000  43.0750000
   1.4990000  40.7880000  42.5260000   4.8590000  40.7850000  26.8450000
   0.9140000  41.0270000  45.1360000   2.9360000  40.6310000  44.9270000
   2.0070000  39.4780000  44.3670000   0.7330000  40.4910000  46.5830000
   1.0310000  41.9860000  45.2280000   0.0960000  40.8490000  44.6450000
  -0.4990000  41.0210000  47.2920000   1.5560000  40.6730000  47.0620000
   0.6280000  39.5330000  46.4790000  -0.6200000  40.4470000  48.7180000
  -0.3770000  41.9780000  47.3980000  -1.3110000  40.8510000  46.7910000
   0.1990000  40.6120000  49.2120000  -0.7440000  39.4920000  48.6070000
  -1.7750000  41.0500000  49.4700000  -1.9280000  40.4520000  50.8850000
  -1.6910000  42.0130000  49.5550000  -2.6140000  40.8390000  49.0330000
  -1.1130000  40.7100000  51.3450000  -3.1070000  40.9710000  51.6430000
  -1.9610000  39.4870000  50.8030000  -3.0700000  41.9310000  51.7140000
  -3.1140000  40.5890000  52.5220000  -3.9080000  40.7210000  51.1770000
   2.4400000  41.5470000  88.5810000   1.2750000  40.9670000  89.7250000
   1.3810000  41.0330000  87.2820000   1.2630000  40.9710000  91.1890000
   0.1430000  40.4990000  89.1700000   1.7020000  41.1040000  85.9100000
   0.1760000  40.5270000  87.7200000   2.2260000  41.3920000  92.1160000
   0.0940000  40.4010000  91.6300000  -1.0050000  39.8980000  90.3290000
   0.7560000  40.6990000  84.9800000   2.5200000  41.4510000  85.6360000
  -0.7610000  40.0670000  86.7690000   1.9460000  41.1970000  93.4740000
   3.0270000  41.7610000  91.8220000  -0.1720000  40.1360000  92.9930000
  -0.4560000  40.1450000  85.4090000   1.0770000  40.7070000  83.5150000
  -1.5590000  39.6830000  87.0560000   0.7760000  40.5420000  93.9050000
   2.5340000  41.5630000  94.0950000  -0.9500000  39.6950000  93.2460000
  -1.0800000  39.8620000  84.7800000   2.0680000  41.5370000  83.0220000
   0.4500000  39.8770000  82.6190000   0.5970000  40.2350000  95.3960000
   2.4160000  41.5570000  81.6830000   2.4950000  42.1360000  83.5900000
   0.7720000  39.9410000  81.2480000  -0.2380000  39.3290000  82.9230000
  -0.5700000  40.9480000  96.0370000   0.4880000  39.2720000  95.4370000
   1.4330000  40.4790000  95.8240000   1.7480000  40.7620000  80.7960000
   3.1110000  42.0890000  81.3680000   0.3290000  39.3670000  80.6650000
  -0.7900000  40.4390000  97.4920000  -0.4320000  41.9050000  96.1190000
  -1.4060000  40.7880000  95.5710000   1.9530000  40.7850000  79.8890000
  -1.9920000  41.0270000  98.1800000   0.0310000  40.6310000  97.9710000
  -0.8980000  39.4780000  97.4120000  -2.1720000  40.4910000  99.6270000
  -1.8740000  41.9860000  98.2730000  -2.8090000  40.8490000  97.6900000
  -3.4040000  41.0210000 100.3370000  -1.3490000  40.6730000 100.1070000
  -2.2770000  39.5330000  99.5230000  -3.5250000  40.4470000 101.7630000
  -3.2820000  41.9780000 100.4420000  -4.2160000  40.8510000  99.8350000
  -2.7060000  40.6120000 102.2560000  -3.6490000  39.4920000 101.6520000
  -4.6800000  41.0500000 102.5150000  -4.8340000  40.4520000 103.9300000
  -4.5970000  42.0130000 102.6000000  -5.5200000  40.8390000 102.0780000
  -4.0190000  40.7100000 104.3900000  -6.0120000  40.9710000 104.6880000
  -4.8660000  39.4870000 103.8480000  -5.9750000  41.9310000 104.7590000
  -6.0190000  40.5890000 105.5670000  -6.8140000  40.7210000 104.2220000
  23.4870000  10.5200000  35.5360000  22.3220000   9.9400000  36.6810000
  22.4280000  10.0050000  34.2380000  22.3100000   9.9440000  38.1440000
  21.1900000   9.4720000  36.1250000  22.7490000  10.0770000  32.8650000
  21.2220000   9.5000000  34.6760000  23.2720000  10.3650000  39.0720000
  21.1400000   9.3740000  38.5850000  20.0410000   8.8710000  37.2850000
  21.8030000   9.6720000  31.9350000  23.5670000  10.4240000  32.5920000
  20.2850000   9.0400000  33.7250000  22.9930000  10.1700000  40.4290000
  24.0740000  10.7340000  38.7770000  20.8750000   9.1090000  39.9480000
  20.5910000   9.1180000  32.3640000  22.1240000   9.6800000  30.4710000
  19.4880000   8.6560000  34.0110000  21.8230000   9.5150000  40.8600000
  23.5810000  10.5360000  41.0500000  20.0970000   8.6680000  40.2010000
  19.9660000   8.8350000  31.7350000  23.1140000  10.5100000  29.9770000
  21.4960000   8.8500000  29.5750000  21.6440000   9.2080000  42.3520000
  23.4620000  10.5300000  28.6380000  23.5420000  11.1080000  30.5460000
  21.8190000   8.9130000  28.2030000  20.8090000   8.3020000  29.8790000
  20.4760000   9.9210000  42.9920000  21.5350000   8.2450000  42.3920000
  22.4800000   9.4520000  42.7800000  22.7940000   9.7350000  27.7510000
  24.1580000  11.0610000  28.3240000  21.3760000   8.3400000  27.6200000
  20.2570000   9.4110000  44.4480000  20.6140000  10.8780000  43.0750000
  19.6410000   9.7610000  42.5260000  23.0000000   9.7580000  26.8450000
  19.0550000  10.0000000  45.1360000  21.0780000   9.6040000  44.9270000
  20.1480000   8.4510000  44.3670000  18.8750000   9.4640000  46.5830000
  19.1720000  10.9590000  45.2280000  18.2370000   9.8220000  44.6450000
  17.6430000   9.9940000  47.2920000  19.6980000   9.6460000  47.0620000
  18.7690000   8.5060000  46.4790000  17.5220000   9.4200000  48.7180000
  17.7650000  10.9500000  47.3980000  16.8300000   9.8240000  46.7910000
  18.3400000   9.5850000  49.2120000  17.3970000   8.4650000  48.6070000
  16.3670000  10.0230000  49.4700000  16.2130000   9.4250000  50.8850000
  16.4500000  10.9860000  49.5550000  15.5270000   9.8120000  49.0330000
  17.0280000   9.6830000  51.3450000  15.0350000   9.9440000  51.6430000
  16.1810000   8.4590000  50.8030000  15.0710000  10.9040000  51.7140000
  15.0280000   9.5620000  52.5220000  14.2330000   9.6940000  51.1770000
  20.5810000  10.5200000  88.5810000  19.4170000   9.9400000  89.7250000
  19.5230000  10.0050000  87.2820000  19.4040000   9.9440000  91.1890000
  18.2840000   9.4720000  89.1700000  19.8430000  10.0770000  85.9100000
  18.3170000   9.5000000  87.7200000  20.3670000  10.3650000  92.1160000
  18.2350000   9.3740000  91.6300000  17.1360000   8.8710000  90.3290000
  18.8970000   9.6720000  84.9800000  20.6620000  10.4240000  85.6360000
  17.3800000   9.0400000  86.7690000  20.0880000  10.1700000  93.4740000
  21.1680000  10.7340000  91.8220000  17.9700000   9.1090000  92.9930000
  17.6850000   9.1180000  85.4090000  19.2190000   9.6800000  83.5150000
  16.5820000   8.6560000  87.0560000  18.9180000   9.5150000  93.9050000
  20.6760000  10.5360000  94.0950000  17.1920000   8.6680000  93.2460000
  17.0610000   8.8350000  84.7800000  20.2090000  10.5100000  83.0220000
  18.5910000   8.8500000  82.6190000  18.7390000   9.2080000  95.3960000
  20.5570000  10.5300000  81.6830000  20.6360000  11.1080000  83.5900000
  18.9140000   8.9130000  81.2480000  17.9030000   8.3020000  82.9230000
  17.5710000   9.9210000  96.0370000  18.6290000   8.2450000  95.4370000
  19.5750000   9.4520000  95.8240000  19.8890000   9.7350000  80.7960000
  21.2520000  11.0610000  81.3680000  18.4700000   8.3400000  80.6650000
  17.3510000   9.4110000  97.4920000  17.7090000  10.8780000  96.1190000
  16.7350000   9.7610000  95.5710000  20.0950000   9.7580000  79.8890000
  16.1500000  10.0000000  98.1800000  18.1720000   9.6040000  97.9710000
  17.2430000   8.4510000  97.4120000  15.9690000   9.4640000  99.6270000
  16.2670000  10.9590000  98.2730000  15.3320000   9.8220000  97.6900000
  14.7370000   9.9940000 100.3370000  16.7920000   9.6460000 100.1070000
  15.8640000   8.5060000  99.5230000  14.6160000   9.4200000 101.7630000
  14.8590000  10.9500000 100.4420000  13.9250000   9.8240000  99.8350000
  15.4350000   9.5850000 102.2560000  14.4920000   8.4650000 101.6520000
  13.4610000  10.0230000 102.5150000  13.3080000   9.4250000 103.9300000
  13.5450000  10.9860000 102.6000000  12.6220000   9.8120000 102.0780000
  14.1230000   9.6830000 104.3900000  12.1290000   9.9440000 104.6880000
  13.2750000   8.4590000 103.8480000  12.1660000  10.9040000 104.7590000
  12.1220000   9.5620000 105.5670000  11.3280000   9.6940000 104.2220000
  23.4870000  18.2770000  35.5360000  22.3220000  17.6960000  36.6810000
  22.4280000  17.7620000  34.2380000  22.3100000  17.7010000  38.1440000
  21.1900000  17.2290000  36.1250000  22.7490000  17.8340000  32.8650000
  21.2220000  17.2570000  34.6760000  23.2720000  18.1210000  39.0720000
  21.1400000  17.1310000  38.5850000  20.0410000  16.6270000  37.2850000
  21.8030000  17.4290000  31.9350000  23.5670000  18.1810000  32.5920000
  20.2850000  16.7970000  33.7250000  22.9930000  17.9270000  40.4290000
  24.0740000  18.4910000  38.7770000  20.8750000  16.8660000  39.9480000
  20.5910000  16.8750000  32.3640000  22.1240000  17.4370000  30.4710000
  19.4880000  16.4130000  34.0110000  21.8230000  17.2720000  40.8600000
  23.5810000  18.2920000  41.0500000  20.0970000  16.4240000  40.2010000
  19.9660000  16.5920000  31.7350000  23.1140000  18.2660000  29.9770000
  21.4960000  16.6070000  29.5750000  21.6440000  16.9650000  42.3520000
  23.4620000  18.2870000  28.6380000  23.5420000  18.8650000  30.5460000
  21.8190000  16.6700000  28.2030000  20.8090000  16.0590000  29.8790000
  20.4760000  17.6780000  42.9920000  21.5350000  16.0020000  42.3920000
  22.4800000  17.2080000  42.7800000  22.7940000  17.4920000  27.7510000
  24.1580000  18.8180000  28.3240000  21.3760000  16.0970000  27.6200000
  20.2570000  17.1680000  44.4480000  20.6140000  18.6350000  43.0750000
  19.6410000  17.5180000  42.5260000  23.0000000  17.5150000  26.8450000
  19.0550000  17.7570000  45.1360000  21.0780000  17.3610000  44.9270000
  20.1480000  16.2080000  44.3670000  18.8750000  17.2210000  46.5830000
  19.1720000  18.7160000  45.2280000  18.2370000  17.5780000  44.6450000
  17.6430000  17.7510000  47.2920000  19.6980000  17.4030000  47.0620000
  18.7690000  16.2620000  46.4790000  17.5220000  17.1770000  48.7180000
  17.7650000  18.7070000  47.3980000  16.8300000  17.5810000  46.7910000
  18.3400000  17.3420000  49.2120000  17.3970000  16.2210000  48.6070000
  16.3670000  17.7790000  49.4700000  16.2130000  17.1820000  50.8850000
  16.4500000  18.7420000  49.5550000  15.5270000  17.5690000  49.0330000
  17.0280000  17.4400000  51.3450000  15.0350000  17.7010000  51.6430000
  16.1810000  16.2160000  50.8030000  15.0710000  18.6610000  51.7140000
  15.0280000  17.3190000  52.5220000  14.2330000  17.4500000  51.1770000
  20.5810000  18.2770000  88.5810000  19.4170000  17.6960000  89.7250000
  19.5230000  17.7620000  87.2820000  19.4040000  17.7010000  91.1890000
  18.2840000  17.2290000  89.1700000  19.8430000  17.8340000  85.9100000
  18.3170000  17.2570000  87.7200000  20.3670000  18.1210000  92.1160000
  18.2350000  17.1310000  91.6300000  17.1360000  16.6270000  90.3290000
  18.8970000  17.4290000  84.9800000  20.6620000  18.1810000  85.6360000
  17.3800000  16.7970000  86.7690000  20.0880000  17.9270000  93.4740000
  21.1680000  18.4910000  91.8220000  17.9700000  16.8660000  92.9930000
  17.6850000  16.8750000  85.4090000  19.2190000  17.4370000  83.5150000
  16.5820000  16.4130000  87.0560000  18.9180000  17.2720000  93.9050000
  20.6760000  18.2920000  94.0950000  17.1920000  16.4240000  93.2460000
  17.0610000  16.5920000  84.7800000  20.2090000  18.2660000  83.0220000
  18.5910000  16.6070000  82.6190000  18.7390000  16.9650000  95.3960000
  20.5570000  18.2870000  81.6830000  20.6360000  18.8650000  83.5900000
  18.9140000  16.6700000  81.2480000  17.9030000  16.0590000  82.9230000
  17.5710000  17.6780000  96.0370000  18.6290000  16.0020000  95.4370000
  19.5750000  17.2080000  95.8240000  19.8890000  17.4920000  80.7960000
  21.2520000  18.8180000  81.3680000  18.4700000  16.0970000  80.6650000
  17.3510000  17.1680000  97.4920000  17.7090000  18.6350000  96.1190000
  16.7350000  17.5180000  95.5710000  20.0950000  17.5150000  79.8890000
  16.1500000  17.7570000  98.1800000  18.1720000  17.3610000  97.9710000
  17.2430000  16.2080000  97.4120000  15.9690000  17.2210000  99.6270000
  16.2670000  18.7160000  98.2730000  15.3320000  17.5780000  97.6900000
  14.7370000  17.7510000 100.3370000  16.7920000  17.4030000 100.1070000
  15.8640000  16.2620000  99.5230000  14.6160000  17.1770000 101.7630000
  14.8590000  18.7070000 100.4420000  13.9250000  17.5810000  99.8350000
  15.4350000  17.3420000 102.2560000  14.4920000  16.2210000 101.6520000
  13.4610000  17.7790000 102.5150000  13.3080000  17.1820000 103.9300000
  13.5450000  18.7420000 102.6000000  12.6220000  17.5690000 102.0780000
  14.1230000  17.4400000 104.3900000  12.1290000  17.7010000 104.6880000
  13.2750000  16.2160000 103.8480000  12.1660000  18.6610000 104.7590000
  12.1220000  17.3190000 105.5670000  11.3280000  17.4500000 104.2220000
  23.4870000  26.0330000  35.5360000  22.3220000  25.4530000  36.6810000
  22.4280000  25.5190000  34.2380000  22.3100000  25.4580000  38.1440000
  21.1900000  24.9850000  36.1250000  22.7490000  25.5900000  32.8650000
  21.2220000  25.0130000  34.6760000  23.2720000  25.8780000  39.0720000
  21.1400000  24.8880000  38.5850000  20.0410000  24.3840000  37.2850000
  21.8030000  25.1860000  31.9350000  23.5670000  25.9380000  32.5920000
  20.2850000  24.5530000  33.7250000  22.9930000  25.6840000  40.4290000
  24.0740000  26.2480000  38.7770000  20.8750000  24.6220000  39.9480000
  20.5910000  24.6320000  32.3640000  22.1240000  25.1930000  30.4710000
  19.4880000  24.1700000  34.0110000  21.8230000  25.0290000  40.8600000
  23.5810000  26.0490000  41.0500000  20.0970000  24.1810000  40.2010000
  19.9660000  24.3490000  31.7350000  23.1140000  26.0230000  29.9770000
  21.4960000  24.3630000  29.5750000  21.6440000  24.7220000  42.3520000
  23.4620000  26.0430000  28.6380000  23.5420000  26.6220000  30.5460000
  21.8190000  24.4270000  28.2030000  20.8090000  23.8160000  29.8790000
  20.4760000  25.4350000  42.9920000  21.5350000  23.7590000  42.3920000
  22.4800000  24.9650000  42.7800000  22.7940000  25.2480000  27.7510000
  24.1580000  26.5750000  28.3240000  21.3760000  23.8530000  27.6200000
  20.2570000  24.9250000  44.4480000  20.6140000  26.3910000  43.0750000
  19.6410000  25.2740000  42.5260000  23.0000000  25.2720000  26.8450000
  19.0550000  25.5140000  45.1360000  21.0780000  25.1180000  44.9270000
  20.1480000  23.9650000  44.3670000  18.8750000  24.9780000  46.5830000
  19.1720000  26.4720000  45.2280000  18.2370000  25.3350000  44.6450000
  17.6430000  25.5070000  47.2920000  19.6980000  25.1590000  47.0620000
  18.7690000  24.0190000  46.4790000  17.5220000  24.9330000  48.7180000
  17.7650000  26.4640000  47.3980000  16.8300000  25.3380000  46.7910000
  18.3400000  25.0990000  49.2120000  17.3970000  23.9780000  48.6070000
  16.3670000  25.5360000  49.4700000  16.2130000  24.9390000  50.8850000
  16.4500000  26.4990000  49.5550000  15.5270000  25.3250000  49.0330000
  17.0280000  25.1960000  51.3450000  15.0350000  25.4580000  51.6430000
  16.1810000  23.9730000  50.8030000  15.0710000  26.4180000  51.7140000
  15.0280000  25.0750000  52.5220000  14.2330000  25.2070000  51.1770000
  20.5810000  26.0330000  88.5810000  19.4170000  25.4530000  89.7250000
  19.5230000  25.5190000  87.2820000  19.4040000  25.4580000  91.1890000
  18.2840000  24.9850000  89.1700000  19.8430000  25.5900000  85.9100000
  18.3170000  25.0130000  87.7200000  20.3670000  25.8780000  92.1160000
  18.2350000  24.8880000  91.6300000  17.1360000  24.3840000  90.3290000
  18.8970000  25.1860000  84.9800000  20.6620000  25.9380000  85.6360000
  17.3800000  24.5530000  86.7690000  20.0880000  25.6840000  93.4740000
  21.1680000  26.2480000  91.8220000  17.9700000  24.6220000  92.9930000
  17.6850000  24.6320000  85.4090000  19.2190000  25.1930000  83.5150000
  16.5820000  24.1700000  87.0560000  18.9180000  25.0290000  93.9050000
  20.6760000  26.0490000  94.0950000  17.1920000  24.1810000  93.2460000
  17.0610000  24.3490000  84.7800000  20.2090000  26.0230000  83.0220000
  18.5910000  24.3630000  82.6190000  18.7390000  24.7220000  95.3960000
  20.5570000  26.0430000  81.6830000  20.6360000  26.6220000  83.5900000
  18.9140000  24.4270000  81.2480000  17.9030000  23.8160000  82.9230000
  17.5710000  25.4350000  96.0370000  18.6290000  23.7590000  95.4370000
  19.5750000  24.9650000  95.8240000  19.8890000  25.2480000  80.7960000
  21.2520000  26.5750000  81.3680000  18.4700000  23.8530000  80.6650000
  17.3510000  24.9250000  97.4920000  17.7090000  26.3910000  96.1190000
  16.7350000  25.2740000  95.5710000  20.0950000  25.2720000  79.8890000
  16.1500000  25.5140000  98.1800000  18.1720000  25.1180000  97.9710000
  17.2430000  23.9650000  97.4120000  15.9690000  24.9780000  99.6270000
  16.2670000  26.4720000  98.2730000  15.3320000  25.3350000  97.6900000
  14.7370000  25.5070000 100.3370000  16.7920000  25.1590000 100.1070000
  15.8640000  24.0190000  99.5230000  14.6160000  24.9330000 101.7630000
  14.8590000  26.4640000 100.4420000  13.9250000  25.3380000  99.8350000
  15.4350000  25.0990000 102.2560000  14.4920000  23.9780000 101.6520000
  13.4610000  25.5360000 102.5150000  13.3080000  24.9390000 103.9300000
  13.5450000  26.4990000 102.6000000  12.6220000  25.3250000 102.0780000
  14.1230000  25.1960000 104.3900000  12.1290000  25.4580000 104.6880000
  13.2750000  23.9730000 103.8480000  12.1660000  26.4180000 104.7590000
  12.1220000  25.0750000 105.5670000  11.3280000  25.2070000 104.2220000
  23.4870000  33.7900000  35.5360000  22.3220000  33.2100000  36.6810000
  22.4280000  33.2760000  34.2380000  22.3100000  33.2150000  38.1440000
  21.1900000  32.7420000  36.1250000  22.7490000  33.3470000  32.8650000
  21.2220000  32.7700000  34.6760000  23.2720000  33.6350000  39.0720000
  21.1400000  32.6440000  38.5850000  20.0410000  32.1410000  37.2850000
  21.8030000  32.9420000  31.9350000  23.5670000  33.6950000  32.5920000
  20.2850000  32.3100000  33.7250000  22.9930000  33.4400000  40.4290000
  24.0740000  34.0040000  38.7770000  20.8750000  32.3790000  39.9480000
  20.5910000  32.3890000  32.3640000  22.1240000  32.9500000  30.4710000
  19.4880000  31.9270000  34.0110000  21.8230000  32.7860000  40.8600000
  23.5810000  33.8060000  41.0500000  20.0970000  31.9380000  40.2010000
  19.9660000  32.1050000  31.7350000  23.1140000  33.7800000  29.9770000
  21.4960000  32.1200000  29.5750000  21.6440000  32.4780000  42.3520000
  23.4620000  33.8000000  28.6380000  23.5420000  34.3790000  30.5460000
  21.8190000  32.1840000  28.2030000  20.8090000  31.5720000  29.8790000
  20.4760000  33.1910000  42.9920000  21.5350000  31.5150000  42.3920000
  22.4800000  32.7220000  42.7800000  22.7940000  33.0050000  27.7510000
  24.1580000  34.3320000  28.3240000  21.3760000  31.6100000  27.6200000
  20.2570000  32.6820000  44.4480000  20.6140000  34.1480000  43.0750000
  19.6410000  33.0310000  42.5260000  23.0000000  33.0290000  26.8450000
  19.0550000  33.2700000  45.1360000  21.0780000  32.8740000  44.9270000
  20.1480000  31.7210000  44.3670000  18.8750000  32.7340000  46.5830000
  19.1720000  34.2290000  45.2280000  18.2370000  33.0920000  44.6450000
  17.6430000  33.2640000  47.2920000  19.6980000  32.9160000  47.0620000
  18.7690000  31.7760000  46.4790000  17.5220000  32.6900000  48.7180000
  17.7650000  34.2210000  47.3980000  16.8300000  33.0950000  46.7910000
  18.3400000  32.8550000  49.2120000  17.3970000  31.7350000  48.6070000
  16.3670000  33.2930000  49.4700000  16.2130000  32.6960000  50.8850000
  16.4500000  34.2560000  49.5550000  15.5270000  33.0820000  49.0330000
  17.0280000  32.9530000  51.3450000  15.0350000  33.2150000  51.6430000
  16.1810000  31.7300000  50.8030000  15.0710000  34.1750000  51.7140000
  15.0280000  32.8320000  52.5220000  14.2330000  32.9640000  51.1770000
  20.5810000  33.7900000  88.5810000  19.4170000  33.2100000  89.7250000
  19.5230000  33.2760000  87.2820000  19.4040000  33.2150000  91.1890000
  18.2840000  32.7420000  89.1700000  19.8430000  33.3470000  85.9100000
  18.3170000  32.7700000  87.7200000  20.3670000  33.6350000  92.1160000
  18.2350000  32.6440000  91.6300000  17.1360000  32.1410000  90.3290000
  18.8970000  32.9420000  84.9800000  20.6620000  33.6950000  85.6360000
  17.3800000  32.3100000  86.7690000  20.0880000  33.4400000  93.4740000
  21.1680000  34.0040000  91.8220000  17.9700000  32.3790000  92.9930000
  17.6850000  32.3890000  85.4090000  19.2190000  32.9500000  83.5150000
  16.5820000  31.9270000  87.0560000  18.9180000  32.7860000  93.9050000
  20.6760000  33.8060000  94.0950000  17.1920000  31.9380000  93.2460000
  17.0610000  32.1050000  84.7800000  20.2090000  33.7800000  83.0220000
  18.5910000  32.1200000  82.6190000  18.7390000  32.4780000  95.3960000
  20.5570000  33.8000000  81.6830000  20.6360000  34.3790000  83.5900000
  18.9140000  32.1840000  81.2480000  17.9030000  31.5720000  82.9230000
  17.5710000  33.1910000  96.0370000  18.6290000  31.5150000  95.4370000
  19.5750000  32.7220000  95.8240000  19.8890000  33.0050000  80.7960000
  21.2520000  34.3320000  81.3680000  18.4700000  31.6100000  80.6650000
  17.3510000  32.6820000  97.4920000  17.7090000  34.1480000  96.1190000
  16.7350000  33.0310000  95.5710000  20.0950000  33.0290000  79.8890000
  16.1500000  33.2700000  98.1800000  18.1720000  32.8740000  97.9710000
  17.2430000  31.7210000  97.4120000  15.9690000  32.7340000  99.6270000
  16.2670000  34.2290000  98.2730000  15.3320000  33.0920000  97.6900000
  14.7370000  33.2640000 100.3370000  16.7920000  32.9160000 100.1070000
  15.8640000  31.7760000  99.5230000  14.6160000  32.6900000 101.7630000
  14.8590000  34.2210000 100.4420000  13.9250000  33.0950000  99.8350000
  15.4350000  32.8550000 102.2560000  14.4920000  31.7350000 101.6520000
  13.4610000  33.2930000 102.5150000  13.3080000  32.6960000 103.9300000
  13.5450000  34.2560000 102.6000000  12.6220000  33.0820000 102.0780000
  14.1230000  32.9530000 104.3900000  12.1290000  33.2150000 104.6880000
  13.2750000  31.7300000 103.8480000  12.1660000  34.1750000 104.7590000
  12.1220000  32.8320000 105.5670000  11.3280000  32.9640000 104.2220000
  23.4870000  41.5470000  35.5360000  22.3220000  40.9670000  36.6810000
  22.4280000  41.0330000  34.2380000  22.3100000  40.9710000  38.1440000
  21.1900000  40.4990000  36.1250000  22.7490000  41.1040000  32.8650000
  21.2220000  40.5270000  34.6760000  23.2720000  41.3920000  39.0720000
  21.1400000  40.4010000  38.5850000  20.0410000  39.8980000  37.2850000
  21.8030000  40.6990000  31.9350000  23.5670000  41.4510000  32.5920000
  20.2850000  40.0670000  33.7250000  22.9930000  41.1970000  40.4290000
  24.0740000  41.7610000  38.7770000  20.8750000  40.1360000  39.9480000
  20.5910000  40.1450000  32.3640000  22.1240000  40.7070000  30.4710000
  19.4880000  39.6830000  34.0110000  21.8230000  40.5420000  40.8600000
  23.5810000  41.5630000  41.0500000  20.0970000  39.6950000  40.2010000
  19.9660000  39.8620000  31.7350000  23.1140000  41.5370000  29.9770000
  21.4960000  39.8770000  29.5750000  21.6440000  40.2350000  42.3520000
  23.4620000  41.5570000  28.6380000  23.5420000  42.1360000  30.5460000
  21.8190000  39.9410000  28.2030000  20.8090000  39.3290000  29.8790000
  20.4760000  40.9480000  42.9920000  21.5350000  39.2720000  42.3920000
  22.4800000  40.4790000  42.7800000  22.7940000  40.7620000  27.7510000
  24.1580000  42.0890000  28.3240000  21.3760000  39.3670000  27.6200000
  20.2570000  40.4390000  44.4480000  20.6140000  41.9050000  43.0750000
  19.6410000  40.7880000  42.5260000  23.0000000  40.7850000  26.8450000
  19.0550000  41.0270000  45.1360000  21.0780000  40.6310000  44.9270000
  20.1480000  39.4780000  44.3670000  18.8750000  40.4910000  46.5830000
  19.1720000  41.9860000  45.2280000  18.2370000  40.8490000  44.6450000
  17.6430000  41.0210000  47.2920000  19.6980000  40.6730000  47.0620000
  18.7690000  39.5330000  46.4790000  17.5220000  40.4470000  48.7180000
  17.7650000  41.9780000  47.3980000  16.8300000  40.8510000  46.7910000
  18.3400000  40.6120000  49.2120000  17.3970000  39.4920000  48.6070000
  16.3670000  41.0500000  49.4700000  16.2130000  40.4520000  50.8850000
  16.4500000  42.0130000  49.5550000  15.5270000  40.8390000  49.0330000
  17.0280000  40.7100000  51.3450000  15.0350000  40.9710000  51.6430000
  16.1810000  39.4870000  50.8030000  15.0710000  41.9310000  51.7140000
  15.0280000  40.5890000  52.5220000  14.2330000  40.7210000  51.1770000
  20.5810000  41.5470000  88.5810000  19.4170000  40.9670000  89.7250000
  19.5230000  41.0330000  87.2820000  19.4040000  40.9710000  91.1890000
  18.2840000  40.4990000  89.1700000  19.8430000  41.1040000  85.9100000
  18.3170000  40.5270000  87.7200000  20.3670000  41.3920000  92.1160000
  18.2350000  40.4010000  91.6300000  17.1360000  39.8980000  90.3290000
  18.8970000  40.6990000  84.9800000  20.6620000  41.4510000  85.6360000
  17.3800000  40.0670000  86.7690000  20.0880000  41.1970000  93.4740000
  21.1680000  41.7610000  91.8220000  17.9700000  40.1360000  92.9930000
  17.6850000  40.1450000  85.4090000  19.2190000  40.7070000  83.5150000
  16.5820000  39.6830000  87.0560000  18.9180000  40.5420000  93.9050000
  20.6760000  41.5630000  94.0950000  17.1920000  39.6950000  93.2460000
  17.0610000  39.8620000  84.7800000  20.2090000  41.5370000  83.0220000
  18.5910000  39.8770000  82.6190000  18.7390000  40.2350000  95.3960000
  20.5570000  41.5570000  81.6830000  20.6360000  42.1360000  83.5900000
  18.9140000  39.9410000  81.2480000  17.9030000  39.3290000  82.9230000
  17.5710000  40.9480000  96.0370000  18.6290000  39.2720000  95.4370000
  19.5750000  40.4790000  95.8240000  19.8890000  40.7620000  80.7960000
  21.2520000  42.0890000  81.3680000  18.4700000  39.3670000  80.6650000
  17.3510000  40.4390000  97.4920000  17.7090000  41.9050000  96.1190000
  16.7350000  40.7880000  95.5710000  20.0950000  40.7850000  79.8890000
  16.1500000  41.0270000  98.1800000  18.1720000  40.6310000  97.9710000
  17.2430000  39.4780000  97.4120000  15.9690000  40.4910000  99.6270000
  16.2670000  41.9860000  98.2730000  15.3320000  40.8490000  97.6900000
  14.7370000  41.0210000 100.3370000  16.7920000  40.6730000 100.1070000
  15.8640000  39.5330000  99.5230000  14.6160000  40.4470000 101.7630000
  14.8590000  41.9780000 100.4420000  13.9250000  40.8510000  99.8350000
  15.4350000  40.6120000 102.2560000  14.4920000  39.4920000 101.6520000
  13.4610000  41.0500000 102.5150000  13.3080000  40.4520000 103.9300000
  13.5450000  42.0130000 102.6000000  12.6220000  40.8390000 102.0780000
  14.1230000  40.7100000 104.3900000  12.1290000  40.9710000 104.6880000
  13.2750000  39.4870000 103.8480000  12.1660000  41.9310000 104.7590000
  12.1220000  40.5890000 105.5670000  11.3280000  40.7210000 104.2220000
  23.4870000   2.7630000  35.5360000  22.3220000   2.1830000  36.6810000
  22.4280000   2.2490000  34.2380000  22.3100000   2.1870000  38.1440000
  21.1900000   1.7150000  36.1250000  22.7490000   2.3200000  32.8650000
  21.2220000   1.7430000  34.6760000  23.2720000   2.6080000  39.0720000
  21.1400000   1.6170000  38.5850000  20.0410000   1.1140000  37.2850000
  21.8030000   1.9150000  31.9350000  23.5670000   2.6670000  32.5920000
  20.2850000   1.2830000  33.7250000  22.9930000   2.4130000  40.4290000
  24.0740000   2.9770000  38.7770000  20.8750000   1.3520000  39.9480000
  20.5910000   1.3610000  32.3640000  22.1240000   1.9230000  30.4710000
  19.4880000   0.8990000  34.0110000  21.8230000   1.7580000  40.8600000
  23.5810000   2.7790000  41.0500000  20.0970000   0.9110000  40.2010000
  19.9660000   1.0780000  31.7350000  23.1140000   2.7530000  29.9770000
  21.4960000   1.0930000  29.5750000  21.6440000   1.4510000  42.3520000
  23.4620000   2.7730000  28.6380000  23.5420000   3.3520000  30.5460000
  21.8190000   1.1570000  28.2030000  20.8090000   0.5450000  29.8790000
  20.4760000   2.1640000  42.9920000  21.5350000   0.4880000  42.3920000
  22.4800000   1.6950000  42.7800000  22.7940000   1.9780000  27.7510000
  24.1580000   3.3050000  28.3240000  21.3760000   0.5830000  27.6200000
  20.2570000   1.6550000  44.4480000  20.6140000   3.1210000  43.0750000
  19.6410000   2.0040000  42.5260000  23.0000000   2.0010000  26.8450000
  19.0550000   2.2430000  45.1360000  21.0780000   1.8470000  44.9270000
  20.1480000   0.6940000  44.3670000  18.8750000   1.7070000  46.5830000
  19.1720000   3.2020000  45.2280000  18.2370000   2.0650000  44.6450000
  17.6430000   2.2370000  47.2920000  19.6980000   1.8890000  47.0620000
  18.7690000   0.7490000  46.4790000  17.5220000   1.6630000  48.7180000
  17.7650000   3.1940000  47.3980000  16.8300000   2.0670000  46.7910000
  18.3400000   1.8280000  49.2120000  17.3970000   0.7080000  48.6070000
  16.3670000   2.2660000  49.4700000  16.2130000   1.6680000  50.8850000
  16.4500000   3.2290000  49.5550000  15.5270000   2.0550000  49.0330000
  17.0280000   1.9260000  51.3450000  15.0350000   2.1870000  51.6430000
  16.1810000   0.7030000  50.8030000  15.0710000   3.1470000  51.7140000
  15.0280000   1.8050000  52.5220000  14.2330000   1.9370000  51.1770000
  20.5810000   2.7630000  88.5810000  19.4170000   2.1830000  89.7250000
  19.5230000   2.2490000  87.2820000  19.4040000   2.1870000  91.1890000
  18.2840000   1.7150000  89.1700000  19.8430000   2.3200000  85.9100000
  18.3170000   1.7430000  87.7200000  20.3670000   2.6080000  92.1160000
  18.2350000   1.6170000  91.6300000  17.1360000   1.1140000  90.3290000
  18.8970000   1.9150000  84.9800000  20.6620000   2.6670000  85.6360000
  17.3800000   1.2830000  86.7690000  20.0880000   2.4130000  93.4740000
  21.1680000   2.9770000  91.8220000  17.9700000   1.3520000  92.9930000
  17.6850000   1.3610000  85.4090000  19.2190000   1.9230000  83.5150000
  16.5820000   0.8990000  87.0560000  18.9180000   1.7580000  93.9050000
  20.6760000   2.7790000  94.0950000  17.1920000   0.9110000  93.2460000
  17.0610000   1.0780000  84.7800000  20.2090000   2.7530000  83.0220000
  18.5910000   1.0930000  82.6190000  18.7390000   1.4510000  95.3960000
  20.5570000   2.7730000  81.6830000  20.6360000   3.3520000  83.5900000
  18.9140000   1.1570000  81.2480000  17.9030000   0.5450000  82.9230000
  17.5710000   2.1640000  96.0370000  18.6290000   0.4880000  95.4370000
  19.5750000   1.6950000  95.8240000  19.8890000   1.9780000  80.7960000
  21.2520000   3.3050000  81.3680000  18.4700000   0.5830000  80.6650000
  17.3510000   1.6550000  97.4920000  17.7090000   3.1210000  96.1190000
  16.7350000   2.0040000  95.5710000  20.0950000   2.0010000  79.8890000
  16.1500000   2.2430000  98.1800000  18.1720000   1.8470000  97.9710000
  17.2430000   0.6940000  97.4120000  15.9690000   1.7070000  99.6270000
  16.2670000   3.2020000  98.2730000  15.3320000   2.0650000  97.6900000
  14.7370000   2.2370000 100.3370000  16.7920000   1.8890000 100.1070000
  15.8640000   0.7490000  99.5230000  14.6160000   1.6630000 101.7630000
  14.8590000   3.1940000 100.4420000  13.9250000   2.0670000  99.8350000
  15.4350000   1.8280000 102.2560000  14.4920000   0.7080000 101.6520000
  13.4610000   2.2660000 102.5150000  13.3080000   1.6680000 103.9300000
  13.5450000   3.2290000 102.6000000  12.6220000   2.0550000 102.0780000
  14.1230000   1.9260000 104.3900000  12.1290000   2.1870000 104.6880000
  13.2750000   0.7030000 103.8480000  12.1660000   3.1470000 104.7590000
  12.1220000   1.8050000 105.5670000  11.3280000   1.9370000 104.2220000
  18.9610000   8.8720000  17.5080000  20.1260000   9.4520000  16.3640000
  20.0200000   9.3870000  18.8070000  20.1380000   9.4480000  14.9000000
  21.2580000   9.9200000  16.9190000  19.6990000   9.3150000  20.1790000
  21.2250000   9.8920000  18.3690000  19.1760000   9.0270000  13.9730000
  21.3080000  10.0180000  14.4590000  22.4070000  10.5210000  15.7600000
  20.6450000   9.7200000  21.1090000  18.8810000   8.9680000  20.4530000
  22.1630000  10.3520000  19.3200000  19.4550000   9.2220000  12.6150000
  18.3740000   8.6580000  14.2670000  21.5730000  10.2830000  13.0960000
  21.8570000  10.2740000  20.6800000  20.3240000   9.7120000  22.5740000
  22.9600000  10.7360000  19.0330000  20.6250000   9.8770000  12.1840000
  18.8670000   8.8560000  11.9940000  22.3510000  10.7240000  12.8430000
  22.4820000  10.5570000  21.3090000  19.3340000   8.8820000  23.0670000
  20.9520000  10.5420000  23.4700000  20.8040000  10.1840000  10.6930000
  18.9860000   8.8620000  24.4060000  18.9060000   8.2840000  22.4990000
  20.6290000  10.4790000  24.8410000  21.6390000  11.0900000  23.1660000
  21.9720000   9.4710000  10.0520000  20.9130000  11.1470000  10.6520000
  19.9680000   9.9400000  10.2650000  19.6540000   9.6570000  25.2930000
  18.2900000   8.3310000  24.7210000  21.0720000  11.0520000  25.4240000
  22.1910000   9.9810000   8.5970000  21.8340000   8.5140000   9.9700000
  22.8070000   9.6310000  10.5180000  19.4480000   9.6340000  26.2000000
  23.3930000   9.3920000   7.9090000  21.3700000   9.7880000   8.1180000
  22.3000000  10.9410000   8.6770000  23.5730000   9.9280000   6.4620000
  23.2760000   8.4330000   7.8160000  24.2110000   9.5700000   8.3990000
  24.8050000   9.3980000   5.7520000  22.7500000   9.7460000   5.9820000
  23.6790000  10.8860000   6.5660000  24.9260000   9.9720000   4.3260000
  24.6830000   8.4420000   5.6470000  25.6180000   9.5680000   6.2540000
  24.1080000   9.8070000   3.8330000  25.0510000  10.9270000   4.4370000
  26.0810000   9.3690000   3.5740000  26.2350000   9.9670000   2.1590000
  25.9980000   8.4060000   3.4890000  26.9210000   9.5800000   4.0110000
  25.4200000   9.7090000   1.6990000  27.4130000   9.4480000   1.4010000
  26.2670000  10.9330000   2.2410000  27.3770000   8.4880000   1.3300000
  27.4200000   9.8300000   0.5220000  28.2150000   9.6980000   1.8670000
  16.0560000   8.8720000  70.5530000  17.2210000   9.4520000  69.4080000
  17.1150000   9.3870000  71.8510000  17.2330000   9.4480000  67.9450000
  18.3530000   9.9200000  69.9640000  16.7940000   9.3150000  73.2240000
  18.3200000   9.8920000  71.4130000  16.2700000   9.0270000  67.0170000
  18.4020000  10.0180000  67.5040000  19.5020000  10.5210000  68.8040000
  17.7400000   9.7200000  74.1540000  15.9760000   8.9680000  73.4970000
  19.2570000  10.3520000  72.3640000  16.5500000   9.2220000  65.6600000
  15.4690000   8.6580000  67.3120000  18.6680000  10.2830000  66.1410000
  18.9520000  10.2740000  73.7250000  17.4190000   9.7120000  75.6180000
  20.0550000  10.7360000  72.0780000  17.7200000   9.8770000  65.2290000
  15.9620000   8.8560000  65.0390000  19.4460000  10.7240000  65.8880000
  19.5760000  10.5570000  74.3540000  16.4280000   8.8820000  76.1120000
  18.0460000  10.5420000  76.5140000  17.8990000  10.1840000  63.7370000
  16.0800000   8.8620000  77.4510000  16.0010000   8.2840000  75.5430000
  17.7240000  10.4790000  77.8860000  18.7340000  11.0900000  76.2100000
  19.0670000   9.4710000  63.0970000  18.0080000  11.1470000  63.6970000
  17.0630000   9.9400000  63.3090000  16.7480000   9.6570000  78.3380000
  15.3850000   8.3310000  77.7650000  18.1670000  11.0520000  78.4690000
  19.2860000   9.9810000  61.6410000  18.9280000   8.5140000  63.0140000
  19.9020000   9.6310000  63.5630000  16.5430000   9.6340000  79.2440000
  20.4880000   9.3920000  60.9530000  18.4650000   9.7880000  61.1620000
  19.3940000  10.9410000  61.7220000  20.6680000   9.9280000  59.5060000
  20.3710000   8.4330000  60.8610000  21.3060000   9.5700000  61.4440000
  21.9000000   9.3980000  58.7970000  19.8450000   9.7460000  59.0270000
  20.7730000  10.8860000  59.6100000  22.0210000   9.9720000  57.3710000
  21.7780000   8.4420000  58.6910000  22.7130000   9.5680000  59.2980000
  21.2020000   9.8070000  56.8770000  22.1450000  10.9270000  57.4820000
  23.1760000   9.3690000  56.6190000  23.3300000   9.9670000  55.2040000
  23.0930000   8.4060000  56.5340000  24.0160000   9.5800000  57.0560000
  22.5150000   9.7090000  54.7440000  24.5080000   9.4480000  54.4460000
  23.3620000  10.9330000  55.2860000  24.4710000   8.4880000  54.3750000
  24.5150000   9.8300000  53.5670000  25.3100000   9.6980000  54.9120000
  18.9610000  16.6290000  17.5080000  20.1260000  17.2090000  16.3640000
  20.0200000  17.1430000  18.8070000  20.1380000  17.2050000  14.9000000
  21.2580000  17.6770000  16.9190000  19.6990000  17.0720000  20.1790000
  21.2250000  17.6490000  18.3690000  19.1760000  16.7840000  13.9730000
  21.3080000  17.7750000  14.4590000  22.4070000  18.2780000  15.7600000
  20.6450000  17.4770000  21.1090000  18.8810000  16.7250000  20.4530000
  22.1630000  18.1090000  19.3200000  19.4550000  16.9790000  12.6150000
  18.3740000  16.4150000  14.2670000  21.5730000  18.0400000  13.0960000
  21.8570000  18.0310000  20.6800000  20.3240000  17.4690000  22.5740000
  22.9600000  18.4930000  19.0330000  20.6250000  17.6340000  12.1840000
  18.8670000  16.6130000  11.9940000  22.3510000  18.4810000  12.8430000
  22.4820000  18.3140000  21.3090000  19.3340000  16.6390000  23.0670000
  20.9520000  18.2990000  23.4700000  20.8040000  17.9410000  10.6930000
  18.9860000  16.6190000  24.4060000  18.9060000  16.0400000  22.4990000
  20.6290000  18.2350000  24.8410000  21.6390000  18.8470000  23.1660000
  21.9720000  17.2280000  10.0520000  20.9130000  18.9040000  10.6520000
  19.9680000  17.6970000  10.2650000  19.6540000  17.4140000  25.2930000
  18.2900000  16.0870000  24.7210000  21.0720000  18.8090000  25.4240000
  22.1910000  17.7370000   8.5970000  21.8340000  16.2710000   9.9700000
  22.8070000  17.3880000  10.5180000  19.4480000  17.3910000  26.2000000
  23.3930000  17.1490000   7.9090000  21.3700000  17.5450000   8.1180000
  22.3000000  18.6980000   8.6770000  23.5730000  17.6850000   6.4620000
  23.2760000  16.1900000   7.8160000  24.2110000  17.3270000   8.3990000
  24.8050000  17.1550000   5.7520000  22.7500000  17.5030000   5.9820000
  23.6790000  18.6430000   6.5660000  24.9260000  17.7290000   4.3260000
  24.6830000  16.1980000   5.6470000  25.6180000  17.3250000   6.2540000
  24.1080000  17.5640000   3.8330000  25.0510000  18.6840000   4.4370000
  26.0810000  17.1260000   3.5740000  26.2350000  17.7240000   2.1590000
  25.9980000  16.1630000   3.4890000  26.9210000  17.3370000   4.0110000
  25.4200000  17.4660000   1.6990000  27.4130000  17.2050000   1.4010000
  26.2670000  18.6890000   2.2410000  27.3770000  16.2450000   1.3300000
  27.4200000  17.5870000   0.5220000  28.2150000  17.4550000   1.8670000
  16.0560000  16.6290000  70.5530000  17.2210000  17.2090000  69.4080000
  17.1150000  17.1430000  71.8510000  17.2330000  17.2050000  67.9450000
  18.3530000  17.6770000  69.9640000  16.7940000  17.0720000  73.2240000
  18.3200000  17.6490000  71.4130000  16.2700000  16.7840000  67.0170000
  18.4020000  17.7750000  67.5040000  19.5020000  18.2780000  68.8040000
  17.7400000  17.4770000  74.1540000  15.9760000  16.7250000  73.4970000
  19.2570000  18.1090000  72.3640000  16.5500000  16.9790000  65.6600000
  15.4690000  16.4150000  67.3120000  18.6680000  18.0400000  66.1410000
  18.9520000  18.0310000  73.7250000  17.4190000  17.4690000  75.6180000
  20.0550000  18.4930000  72.0780000  17.7200000  17.6340000  65.2290000
  15.9620000  16.6130000  65.0390000  19.4460000  18.4810000  65.8880000
  19.5760000  18.3140000  74.3540000  16.4280000  16.6390000  76.1120000
  18.0460000  18.2990000  76.5140000  17.8990000  17.9410000  63.7370000
  16.0800000  16.6190000  77.4510000  16.0010000  16.0400000  75.5430000
  17.7240000  18.2350000  77.8860000  18.7340000  18.8470000  76.2100000
  19.0670000  17.2280000  63.0970000  18.0080000  18.9040000  63.6970000
  17.0630000  17.6970000  63.3090000  16.7480000  17.4140000  78.3380000
  15.3850000  16.0870000  77.7650000  18.1670000  18.8090000  78.4690000
  19.2860000  17.7370000  61.6410000  18.9280000  16.2710000  63.0140000
  19.9020000  17.3880000  63.5630000  16.5430000  17.3910000  79.2440000
  20.4880000  17.1490000  60.9530000  18.4650000  17.5450000  61.1620000
  19.3940000  18.6980000  61.7220000  20.6680000  17.6850000  59.5060000
  20.3710000  16.1900000  60.8610000  21.3060000  17.3270000  61.4440000
  21.9000000  17.1550000  58.7970000  19.8450000  17.5030000  59.0270000
  20.7730000  18.6430000  59.6100000  22.0210000  17.7290000  57.3710000
  21.7780000  16.1980000  58.6910000  22.7130000  17.3250000  59.2980000
  21.2020000  17.5640000  56.8770000  22.1450000  18.6840000  57.4820000
  23.1760000  17.1260000  56.6190000  23.3300000  17.7240000  55.2040000
  23.0930000  16.1630000  56.5340000  24.0160000  17.3370000  57.0560000
  22.5150000  17.4660000  54.7440000  24.5080000  17.2050000  54.4460000
  23.3620000  18.6890000  55.2860000  24.4710000  16.2450000  54.3750000
  24.5150000  17.5870000  53.5670000  25.3100000  17.4550000  54.9120000
  18.9610000   1.1150000  17.5080000  20.1260000   1.6960000  16.3640000
  20.0200000   1.6300000  18.8070000  20.1380000   1.6910000  14.9000000
  21.2580000   2.1630000  16.9190000  19.6990000   1.5580000  20.1790000
  21.2250000   2.1350000  18.3690000  19.1760000   1.2710000  13.9730000
  21.3080000   2.2610000  14.4590000  22.4070000   2.7650000  15.7600000
  20.6450000   1.9630000  21.1090000  18.8810000   1.2110000  20.4530000
  22.1630000   2.5950000  19.3200000  19.4550000   1.4650000  12.6150000
  18.3740000   0.9010000  14.2670000  21.5730000   2.5260000  13.0960000
  21.8570000   2.5170000  20.6800000  20.3240000   1.9550000  22.5740000
  22.9600000   2.9790000  19.0330000  20.6250000   2.1200000  12.1840000
  18.8670000   1.1000000  11.9940000  22.3510000   2.9680000  12.8430000
  22.4820000   2.8000000  21.3090000  19.3340000   1.1260000  23.0670000
  20.9520000   2.7850000  23.4700000  20.8040000   2.4270000  10.6930000
  18.9860000   1.1050000  24.4060000  18.9060000   0.5270000  22.4990000
  20.6290000   2.7220000  24.8410000  21.6390000   3.3330000  23.1660000
  21.9720000   1.7140000  10.0520000  20.9130000   3.3900000  10.6520000
  19.9680000   2.1840000  10.2650000  19.6540000   1.9000000  25.2930000
  18.2900000   0.5740000  24.7210000  21.0720000   3.2950000  25.4240000
  22.1910000   2.2240000   8.5970000  21.8340000   0.7570000   9.9700000
  22.8070000   1.8740000  10.5180000  19.4480000   1.8770000  26.2000000
  23.3930000   1.6350000   7.9090000  21.3700000   2.0310000   8.1180000
  22.3000000   3.1840000   8.6770000  23.5730000   2.1710000   6.4620000
  23.2760000   0.6760000   7.8160000  24.2110000   1.8140000   8.3990000
  24.8050000   1.6410000   5.7520000  22.7500000   1.9890000   5.9820000
  23.6790000   3.1300000   6.5660000  24.9260000   2.2150000   4.3260000
  24.6830000   0.6850000   5.6470000  25.6180000   1.8110000   6.2540000
  24.1080000   2.0500000   3.8330000  25.0510000   3.1710000   4.4370000
  26.0810000   1.6130000   3.5740000  26.2350000   2.2100000   2.1590000
  25.9980000   0.6500000   3.4890000  26.9210000   1.8230000   4.0110000
  25.4200000   1.9520000   1.6990000  27.4130000   1.6910000   1.4010000
  26.2670000   3.1760000   2.2410000  27.3770000   0.7310000   1.3300000
  27.4200000   2.0730000   0.5220000  28.2150000   1.9420000   1.8670000
  16.0560000   1.1150000  70.5530000  17.2210000   1.6960000  69.4080000
  17.1150000   1.6300000  71.8510000  17.2330000   1.6910000  67.9450000
  18.3530000   2.1630000  69.9640000  16.7940000   1.5580000  73.2240000
  18.3200000   2.1350000  71.4130000  16.2700000   1.2710000  67.0170000
  18.4020000   2.2610000  67.5040000  19.5020000   2.7650000  68.8040000
  17.7400000   1.9630000  74.1540000  15.9760000   1.2110000  73.4970000
  19.2570000   2.5950000  72.3640000  16.5500000   1.4650000  65.6600000
  15.4690000   0.9010000  67.3120000  18.6680000   2.5260000  66.1410000
  18.9520000   2.5170000  73.7250000  17.4190000   1.9550000  75.6180000
  20.0550000   2.9790000  72.0780000  17.7200000   2.1200000  65.2290000
  15.9620000   1.1000000  65.0390000  19.4460000   2.9680000  65.8880000
  19.5760000   2.8000000  74.3540000  16.4280000   1.1260000  76.1120000
  18.0460000   2.7850000  76.5140000  17.8990000   2.4270000  63.7370000
  16.0800000   1.1050000  77.4510000  16.0010000   0.5270000  75.5430000
  17.7240000   2.7220000  77.8860000  18.7340000   3.3330000  76.2100000
  19.0670000   1.7140000  63.0970000  18.0080000   3.3900000  63.6970000
  17.0630000   2.1840000  63.3090000  16.7480000   1.9000000  78.3380000
  15.3850000   0.5740000  77.7650000  18.1670000   3.2950000  78.4690000
  19.2860000   2.2240000  61.6410000  18.9280000   0.7570000  63.0140000
  19.9020000   1.8740000  63.5630000  16.5430000   1.8770000  79.2440000
  20.4880000   1.6350000  60.9530000  18.4650000   2.0310000  61.1620000
  19.3940000   3.1840000  61.7220000  20.6680000   2.1710000  59.5060000
  20.3710000   0.6760000  60.8610000  21.3060000   1.8140000  61.4440000
  21.9000000   1.6410000  58.7970000  19.8450000   1.9890000  59.0270000
  20.7730000   3.1300000  59.6100000  22.0210000   2.2150000  57.3710000
  21.7780000   0.6850000  58.6910000  22.7130000   1.8110000  59.2980000
  21.2020000   2.0500000  56.8770000  22.1450000   3.1710000  57.4820000
  23.1760000   1.6130000  56.6190000  23.3300000   2.2100000  55.2040000
  23.0930000   0.6500000  56.5340000  24.0160000   1.8230000  57.0560000
  22.5150000   1.9520000  54.7440000  24.5080000   1.6910000  54.4460000
  23.3620000   3.1760000  55.2860000  24.4710000   0.7310000  54.3750000
  24.5150000   2.0730000  53.5670000  25.3100000   1.9420000  54.9120000
  18.9610000  24.3860000  17.5080000  20.1260000  24.9660000  16.3640000
  20.0200000  24.9000000  18.8070000  20.1380000  24.9610000  14.9000000
  21.2580000  25.4340000  16.9190000  19.6990000  24.8290000  20.1790000
  21.2250000  25.4060000  18.3690000  19.1760000  24.5410000  13.9730000
  21.3080000  25.5320000  14.4590000  22.4070000  26.0350000  15.7600000
  20.6450000  25.2340000  21.1090000  18.8810000  24.4810000  20.4530000
  22.1630000  25.8660000  19.3200000  19.4550000  24.7360000  12.6150000
  18.3740000  24.1720000  14.2670000  21.5730000  25.7970000  13.0960000
  21.8570000  25.7870000  20.6800000  20.3240000  25.2260000  22.5740000
  22.9600000  26.2490000  19.0330000  20.6250000  25.3900000  12.1840000
  18.8670000  24.3700000  11.9940000  22.3510000  26.2380000  12.8430000
  22.4820000  26.0710000  21.3090000  19.3340000  24.3960000  23.0670000
  20.9520000  26.0560000  23.4700000  20.8040000  25.6980000  10.6930000
  18.9860000  24.3760000  24.4060000  18.9060000  23.7970000  22.4990000
  20.6290000  25.9920000  24.8410000  21.6390000  26.6040000  23.1660000
  21.9720000  24.9850000  10.0520000  20.9130000  26.6610000  10.6520000
  19.9680000  25.4540000  10.2650000  19.6540000  25.1710000  25.2930000
  18.2900000  23.8440000  24.7210000  21.0720000  26.5660000  25.4240000
  22.1910000  25.4940000   8.5970000  21.8340000  24.0280000   9.9700000
  22.8070000  25.1450000  10.5180000  19.4480000  25.1470000  26.2000000
  23.3930000  24.9060000   7.9090000  21.3700000  25.3020000   8.1180000
  22.3000000  26.4550000   8.6770000  23.5730000  25.4420000   6.4620000
  23.2760000  23.9470000   7.8160000  24.2110000  25.0840000   8.3990000
  24.8050000  24.9120000   5.7520000  22.7500000  25.2600000   5.9820000
  23.6790000  26.4000000   6.5660000  24.9260000  25.4860000   4.3260000
  24.6830000  23.9550000   5.6470000  25.6180000  25.0810000   6.2540000
  24.1080000  25.3210000   3.8330000  25.0510000  26.4410000   4.4370000
  26.0810000  24.8830000   3.5740000  26.2350000  25.4800000   2.1590000
  25.9980000  23.9200000   3.4890000  26.9210000  25.0940000   4.0110000
  25.4200000  25.2230000   1.6990000  27.4130000  24.9610000   1.4010000
  26.2670000  26.4460000   2.2410000  27.3770000  24.0010000   1.3300000
  27.4200000  25.3440000   0.5220000  28.2150000  25.2120000   1.8670000
  16.0560000  24.3860000  70.5530000  17.2210000  24.9660000  69.4080000
  17.1150000  24.9000000  71.8510000  17.2330000  24.9610000  67.9450000
  18.3530000  25.4340000  69.9640000  16.7940000  24.8290000  73.2240000
  18.3200000  25.4060000  71.4130000  16.2700000  24.5410000  67.0170000
  18.4020000  25.5320000  67.5040000  19.5020000  26.0350000  68.8040000
  17.7400000  25.2340000  74.1540000  15.9760000  24.4810000  73.4970000
  19.2570000  25.8660000  72.3640000  16.5500000  24.7360000  65.6600000
  15.4690000  24.1720000  67.3120000  18.6680000  25.7970000  66.1410000
  18.9520000  25.7870000  73.7250000  17.4190000  25.2260000  75.6180000
  20.0550000  26.2490000  72.0780000  17.7200000  25.3900000  65.2290000
  15.9620000  24.3700000  65.0390000  19.4460000  26.2380000  65.8880000
  19.5760000  26.0710000  74.3540000  16.4280000  24.3960000  76.1120000
  18.0460000  26.0560000  76.5140000  17.8990000  25.6980000  63.7370000
  16.0800000  24.3760000  77.4510000  16.0010000  23.7970000  75.5430000
  17.7240000  25.9920000  77.8860000  18.7340000  26.6040000  76.2100000
  19.0670000  24.9850000  63.0970000  18.0080000  26.6610000  63.6970000
  17.0630000  25.4540000  63.3090000  16.7480000  25.1710000  78.3380000
  15.3850000  23.8440000  77.7650000  18.1670000  26.5660000  78.4690000
  19.2860000  25.4940000  61.6410000  18.9280000  24.0280000  63.0140000
  19.9020000  25.1450000  63.5630000  16.5430000  25.1470000  79.2440000
  20.4880000  24.9060000  60.9530000  18.4650000  25.3020000  61.1620000
  19.3940000  26.4550000  61.7220000  20.6680000  25.4420000  59.5060000
  20.3710000  23.9470000  60.8610000  21.3060000  25.0840000  61.4440000
  21.9000000  24.9120000  58.7970000  19.8450000  25.2600000  59.0270000
  20.7730000  26.4000000  59.6100000  22.0210000  25.4860000  57.3710000
  21.7780000  23.9550000  58.6910000  22.7130000  25.0810000  59.2980000
  21.2020000  25.3210000  56.8770000  22.1450000  26.4410000  57.4820000
  23.1760000  24.8830000  56.6190000  23.3300000  25.4800000  55.2040000
  23.0930000  23.9200000  56.5340000  24.0160000  25.0940000  57.0560000
  22.5150000  25.2230000  54.7440000  24.5080000  24.9610000  54.4460000
  23.3620000  26.4460000  55.2860000  24.4710000  24.0010000  54.3750000
  24.5150000  25.3440000  53.5670000  25.3100000  25.2120000  54.9120000
  18.9610000  32.1430000  17.5080000  20.1260000  32.7230000  16.3640000
  20.0200000  32.6570000  18.8070000  20.1380000  32.7180000  14.9000000
  21.2580000  33.1910000  16.9190000  19.6990000  32.5860000  20.1790000
  21.2250000  33.1630000  18.3690000  19.1760000  32.2980000  13.9730000
  21.3080000  33.2880000  14.4590000  22.4070000  33.7920000  15.7600000
  20.6450000  32.9900000  21.1090000  18.8810000  32.2380000  20.4530000
  22.1630000  33.6230000  19.3200000  19.4550000  32.4920000  12.6150000
  18.3740000  31.9280000  14.2670000  21.5730000  33.5540000  13.0960000
  21.8570000  33.5440000  20.6800000  20.3240000  32.9830000  22.5740000
  22.9600000  34.0060000  19.0330000  20.6250000  33.1470000  12.1840000
  18.8670000  32.1270000  11.9940000  22.3510000  33.9950000  12.8430000
  22.4820000  33.8270000  21.3090000  19.3340000  32.1530000  23.0670000
  20.9520000  33.8130000  23.4700000  20.8040000  33.4540000  10.6930000
  18.9860000  32.1330000  24.4060000  18.9060000  31.5540000  22.4990000
  20.6290000  33.7490000  24.8410000  21.6390000  34.3600000  23.1660000
  21.9720000  32.7410000  10.0520000  20.9130000  34.4170000  10.6520000
  19.9680000  33.2110000  10.2650000  19.6540000  32.9280000  25.2930000
  18.2900000  31.6010000  24.7210000  21.0720000  34.3230000  25.4240000
  22.1910000  33.2510000   8.5970000  21.8340000  31.7850000   9.9700000
  22.8070000  32.9020000  10.5180000  19.4480000  32.9040000  26.2000000
  23.3930000  32.6620000   7.9090000  21.3700000  33.0580000   8.1180000
  22.3000000  34.2110000   8.6770000  23.5730000  33.1980000   6.4620000
  23.2760000  31.7040000   7.8160000  24.2110000  32.8410000   8.3990000
  24.8050000  32.6690000   5.7520000  22.7500000  33.0170000   5.9820000
  23.6790000  34.1570000   6.5660000  24.9260000  33.2430000   4.3260000
  24.6830000  31.7120000   5.6470000  25.6180000  32.8380000   6.2540000
  24.1080000  33.0770000   3.8330000  25.0510000  34.1980000   4.4370000
  26.0810000  32.6400000   3.5740000  26.2350000  33.2370000   2.1590000
  25.9980000  31.6770000   3.4890000  26.9210000  32.8510000   4.0110000
  25.4200000  32.9800000   1.6990000  27.4130000  32.7180000   1.4010000
  26.2670000  34.2030000   2.2410000  27.3770000  31.7580000   1.3300000
  27.4200000  33.1010000   0.5220000  28.2150000  32.9690000   1.8670000
  16.0560000  32.1430000  70.5530000  17.2210000  32.7230000  69.4080000
  17.1150000  32.6570000  71.8510000  17.2330000  32.7180000  67.9450000
  18.3530000  33.1910000  69.9640000  16.7940000  32.5860000  73.2240000
  18.3200000  33.1630000  71.4130000  16.2700000  32.2980000  67.0170000
  18.4020000  33.2880000  67.5040000  19.5020000  33.7920000  68.8040000
  17.7400000  32.9900000  74.1540000  15.9760000  32.2380000  73.4970000
  19.2570000  33.6230000  72.3640000  16.5500000  32.4920000  65.6600000
  15.4690000  31.9280000  67.3120000  18.6680000  33.5540000  66.1410000
  18.9520000  33.5440000  73.7250000  17.4190000  32.9830000  75.6180000
  20.0550000  34.0060000  72.0780000  17.7200000  33.1470000  65.2290000
  15.9620000  32.1270000  65.0390000  19.4460000  33.9950000  65.8880000
  19.5760000  33.8270000  74.3540000  16.4280000  32.1530000  76.1120000
  18.0460000  33.8130000  76.5140000  17.8990000  33.4540000  63.7370000
  16.0800000  32.1330000  77.4510000  16.0010000  31.5540000  75.5430000
  17.7240000  33.7490000  77.8860000  18.7340000  34.3600000  76.2100000
  19.0670000  32.7410000  63.0970000  18.0080000  34.4170000  63.6970000
  17.0630000  33.2110000  63.3090000  16.7480000  32.9280000  78.3380000
  15.3850000  31.6010000  77.7650000  18.1670000  34.3230000  78.4690000
  19.2860000  33.2510000  61.6410000  18.9280000  31.7850000  63.0140000
  19.9020000  32.9020000  63.5630000  16.5430000  32.9040000  79.2440000
  20.4880000  32.6620000  60.9530000  18.4650000  33.0580000  61.1620000
  19.3940000  34.2110000  61.7220000  20.6680000  33.1980000  59.5060000
  20.3710000  31.7040000  60.8610000  21.3060000  32.8410000  61.4440000
  21.9000000  32.6690000  58.7970000  19.8450000  33.0170000  59.0270000
  20.7730000  34.1570000  59.6100000  22.0210000  33.2430000  57.3710000
  21.7780000  31.7120000  58.6910000  22.7130000  32.8380000  59.2980000
  21.2020000  33.0770000  56.8770000  22.1450000  34.1980000  57.4820000
  23.1760000  32.6400000  56.6190000  23.3300000  33.2370000  55.2040000
  23.0930000  31.6770000  56.5340000  24.0160000  32.8510000  57.0560000
  22.5150000  32.9800000  54.7440000  24.5080000  32.7180000  54.4460000
  23.3620000  34.2030000  55.2860000  24.4710000  31.7580000  54.3750000
  24.5150000  33.1010000  53.5670000  25.3100000  32.9690000  54.9120000
  18.9610000  39.8990000  17.5080000  20.1260000  40.4800000  16.3640000
  20.0200000  40.4140000  18.8070000  20.1380000  40.4750000  14.9000000
  21.2580000  40.9470000  16.9190000  19.6990000  40.3420000  20.1790000
  21.2250000  40.9190000  18.3690000  19.1760000  40.0550000  13.9730000
  21.3080000  41.0450000  14.4590000  22.4070000  41.5490000  15.7600000
  20.6450000  40.7470000  21.1090000  18.8810000  39.9950000  20.4530000
  22.1630000  41.3790000  19.3200000  19.4550000  40.2490000  12.6150000
  18.3740000  39.6850000  14.2670000  21.5730000  41.3100000  13.0960000
  21.8570000  41.3010000  20.6800000  20.3240000  40.7390000  22.5740000
  22.9600000  41.7630000  19.0330000  20.6250000  40.9040000  12.1840000
  18.8670000  39.8840000  11.9940000  22.3510000  41.7520000  12.8430000
  22.4820000  41.5840000  21.3090000  19.3340000  39.9100000  23.0670000
  20.9520000  41.5690000  23.4700000  20.8040000  41.2110000  10.6930000
  18.9860000  39.8890000  24.4060000  18.9060000  39.3110000  22.4990000
  20.6290000  41.5060000  24.8410000  21.6390000  42.1170000  23.1660000
  21.9720000  40.4980000  10.0520000  20.9130000  42.1740000  10.6520000
  19.9680000  40.9680000  10.2650000  19.6540000  40.6840000  25.2930000
  18.2900000  39.3580000  24.7210000  21.0720000  42.0790000  25.4240000
  22.1910000  41.0080000   8.5970000  21.8340000  39.5410000   9.9700000
  22.8070000  40.6580000  10.5180000  19.4480000  40.6610000  26.2000000
  23.3930000  40.4190000   7.9090000  21.3700000  40.8150000   8.1180000
  22.3000000  41.9680000   8.6770000  23.5730000  40.9550000   6.4620000
  23.2760000  39.4600000   7.8160000  24.2110000  40.5980000   8.3990000
  24.8050000  40.4250000   5.7520000  22.7500000  40.7730000   5.9820000
  23.6790000  41.9140000   6.5660000  24.9260000  40.9990000   4.3260000
  24.6830000  39.4690000   5.6470000  25.6180000  40.5950000   6.2540000
  24.1080000  40.8340000   3.8330000  25.0510000  41.9550000   4.4370000
  26.0810000  40.3970000   3.5740000  26.2350000  40.9940000   2.1590000
  25.9980000  39.4340000   3.4890000  26.9210000  40.6070000   4.0110000
  25.4200000  40.7360000   1.6990000  27.4130000  40.4750000   1.4010000
  26.2670000  41.9600000   2.2410000  27.3770000  39.5150000   1.3300000
  27.4200000  40.8570000   0.5220000  28.2150000  40.7260000   1.8670000
  16.0560000  39.8990000  70.5530000  17.2210000  40.4800000  69.4080000
  17.1150000  40.4140000  71.8510000  17.2330000  40.4750000  67.9450000
  18.3530000  40.9470000  69.9640000  16.7940000  40.3420000  73.2240000
  18.3200000  40.9190000  71.4130000  16.2700000  40.0550000  67.0170000
  18.4020000  41.0450000  67.5040000  19.5020000  41.5490000  68.8040000
  17.7400000  40.7470000  74.1540000  15.9760000  39.9950000  73.4970000
  19.2570000  41.3790000  72.3640000  16.5500000  40.2490000  65.6600000
  15.4690000  39.6850000  67.3120000  18.6680000  41.3100000  66.1410000
  18.9520000  41.3010000  73.7250000  17.4190000  40.7390000  75.6180000
  20.0550000  41.7630000  72.0780000  17.7200000  40.9040000  65.2290000
  15.9620000  39.8840000  65.0390000  19.4460000  41.7520000  65.8880000
  19.5760000  41.5840000  74.3540000  16.4280000  39.9100000  76.1120000
  18.0460000  41.5690000  76.5140000  17.8990000  41.2110000  63.7370000
  16.0800000  39.8890000  77.4510000  16.0010000  39.3110000  75.5430000
  17.7240000  41.5060000  77.8860000  18.7340000  42.1170000  76.2100000
  19.0670000  40.4980000  63.0970000  18.0080000  42.1740000  63.6970000
  17.0630000  40.9680000  63.3090000  16.7480000  40.6840000  78.3380000
  15.3850000  39.3580000  77.7650000  18.1670000  42.0790000  78.4690000
  19.2860000  41.0080000  61.6410000  18.9280000  39.5410000  63.0140000
  19.9020000  40.6580000  63.5630000  16.5430000  40.6610000  79.2440000
  20.4880000  40.4190000  60.9530000  18.4650000  40.8150000  61.1620000
  19.3940000  41.9680000  61.7220000  20.6680000  40.9550000  59.5060000
  20.3710000  39.4600000  60.8610000  21.3060000  40.5980000  61.4440000
  21.9000000  40.4250000  58.7970000  19.8450000  40.7730000  59.0270000
  20.7730000  41.9140000  59.6100000  22.0210000  40.9990000  57.3710000
  21.7780000  39.4690000  58.6910000  22.7130000  40.5950000  59.2980000
  21.2020000  40.8340000  56.8770000  22.1450000  41.9550000  57.4820000
  23.1760000  40.3970000  56.6190000  23.3300000  40.9940000  55.2040000
  23.0930000  39.4340000  56.5340000  24.0160000  40.6070000  57.0560000
  22.5150000  40.7360000  54.7440000  24.5080000  40.4750000  54.4460000
  23.3620000  41.9600000  55.2860000  24.4710000  39.5150000  54.3750000
  24.5150000  40.8570000  53.5670000  25.3100000  40.7260000  54.9120000
   0.8200000   8.8720000  17.5080000   1.9850000   9.4520000  16.3640000
   1.8790000   9.3870000  18.8070000   1.9970000   9.4480000  14.9000000
   3.1170000   9.9200000  16.9190000   1.5580000   9.3150000  20.1790000
   3.0840000   9.8920000  18.3690000   1.0340000   9.0270000  13.9730000
   3.1660000  10.0180000  14.4590000   4.2660000  10.5210000  15.7600000
   2.5040000   9.7200000  21.1090000   0.7400000   8.9680000  20.4530000
   4.0210000  10.3520000  19.3200000   1.3140000   9.2220000  12.6150000
   0.2330000   8.6580000  14.2670000   3.4320000  10.2830000  13.0960000
   3.7160000  10.2740000  20.6800000   2.1830000   9.7120000  22.5740000
   4.8190000  10.7360000  19.0330000   2.4840000   9.8770000  12.1840000
   0.7260000   8.8560000  11.9940000   4.2100000  10.7240000  12.8430000
   4.3400000  10.5570000  21.3090000   1.1920000   8.8820000  23.0670000
   2.8100000  10.5420000  23.4700000   2.6630000  10.1840000  10.6930000
   0.8440000   8.8620000  24.4060000   0.7650000   8.2840000  22.4990000
   2.4880000  10.4790000  24.8410000   3.4980000  11.0900000  23.1660000
   3.8310000   9.4710000  10.0520000   2.7720000  11.1470000  10.6520000
   1.8270000   9.9400000  10.2650000   1.5120000   9.6570000  25.2930000
   0.1490000   8.3310000  24.7210000   2.9310000  11.0520000  25.4240000
   4.0500000   9.9810000   8.5970000   3.6920000   8.5140000   9.9700000
   4.6660000   9.6310000  10.5180000   1.3070000   9.6340000  26.2000000
   5.2520000   9.3920000   7.9090000   3.2290000   9.7880000   8.1180000
   4.1580000  10.9410000   8.6770000   5.4320000   9.9280000   6.4620000
   5.1350000   8.4330000   7.8160000   6.0700000   9.5700000   8.3990000
   6.6640000   9.3980000   5.7520000   4.6090000   9.7460000   5.9820000
   5.5370000  10.8860000   6.5660000   6.7850000   9.9720000   4.3260000
   6.5420000   8.4420000   5.6470000   7.4760000   9.5680000   6.2540000
   5.9660000   9.8070000   3.8330000   6.9090000  10.9270000   4.4370000
   7.9400000   9.3690000   3.5740000   8.0940000   9.9670000   2.1590000
   7.8570000   8.4060000   3.4890000   8.7800000   9.5800000   4.0110000
   7.2790000   9.7090000   1.6990000   9.2720000   9.4480000   1.4010000
   8.1260000  10.9330000   2.2410000   9.2350000   8.4880000   1.3300000
   9.2790000   9.8300000   0.5220000  10.0740000   9.6980000   1.8670000
  -2.0850000   8.8720000  70.5530000  -0.9210000   9.4520000  69.4080000
  -1.0270000   9.3870000  71.8510000  -0.9080000   9.4480000  67.9450000
   0.2120000   9.9200000  69.9640000  -1.3470000   9.3150000  73.2240000
   0.1790000   9.8920000  71.4130000  -1.8710000   9.0270000  67.0170000
   0.2610000  10.0180000  67.5040000   1.3600000  10.5210000  68.8040000
  -0.4010000   9.7200000  74.1540000  -2.1650000   8.9680000  73.4970000
   1.1160000  10.3520000  72.3640000  -1.5920000   9.2220000  65.6600000
  -2.6720000   8.6580000  67.3120000   0.5260000  10.2830000  66.1410000
   0.8110000  10.2740000  73.7250000  -0.7230000   9.7120000  75.6180000
   1.9140000  10.7360000  72.0780000  -0.4210000   9.8770000  65.2290000
  -2.1800000   8.8560000  65.0390000   1.3040000  10.7240000  65.8880000
   1.4350000  10.5570000  74.3540000  -1.7130000   8.8820000  76.1120000
  -0.0950000  10.5420000  76.5140000  -0.2420000  10.1840000  63.7370000
  -2.0610000   8.8620000  77.4510000  -2.1400000   8.2840000  75.5430000
  -0.4170000  10.4790000  77.8860000   0.5930000  11.0900000  76.2100000
   0.9250000   9.4710000  63.0970000  -0.1330000  11.1470000  63.6970000
  -1.0780000   9.9400000  63.3090000  -1.3930000   9.6570000  78.3380000
  -2.7560000   8.3310000  77.7650000   0.0260000  11.0520000  78.4690000
   1.1450000   9.9810000  61.6410000   0.7870000   8.5140000  63.0140000
   1.7610000   9.6310000  63.5630000  -1.5990000   9.6340000  79.2440000
   2.3460000   9.3920000  60.9530000   0.3240000   9.7880000  61.1620000
   1.2530000  10.9410000  61.7220000   2.5270000   9.9280000  59.5060000
   2.2290000   8.4330000  60.8610000   3.1640000   9.5700000  61.4440000
   3.7590000   9.3980000  58.7970000   1.7040000   9.7460000  59.0270000
   2.6320000  10.8860000  59.6100000   3.8800000   9.9720000  57.3710000
   3.6370000   8.4420000  58.6910000   4.5710000   9.5680000  59.2980000
   3.0610000   9.8070000  56.8770000   4.0040000  10.9270000  57.4820000
   5.0350000   9.3690000  56.6190000   5.1880000   9.9670000  55.2040000
   4.9510000   8.4060000  56.5340000   5.8740000   9.5800000  57.0560000
   4.3730000   9.7090000  54.7440000   6.3670000   9.4480000  54.4460000
   5.2210000  10.9330000  55.2860000   6.3300000   8.4880000  54.3750000
   6.3740000   9.8300000  53.5670000   7.1690000   9.6980000  54.9120000
   0.8200000  16.6290000  17.5080000   1.9850000  17.2090000  16.3640000
   1.8790000  17.1430000  18.8070000   1.9970000  17.2050000  14.9000000
   3.1170000  17.6770000  16.9190000   1.5580000  17.0720000  20.1790000
   3.0840000  17.6490000  18.3690000   1.0340000  16.7840000  13.9730000
   3.1660000  17.7750000  14.4590000   4.2660000  18.2780000  15.7600000
   2.5040000  17.4770000  21.1090000   0.7400000  16.7250000  20.4530000
   4.0210000  18.1090000  19.3200000   1.3140000  16.9790000  12.6150000
   0.2330000  16.4150000  14.2670000   3.4320000  18.0400000  13.0960000
   3.7160000  18.0310000  20.6800000   2.1830000  17.4690000  22.5740000
   4.8190000  18.4930000  19.0330000   2.4840000  17.6340000  12.1840000
   0.7260000  16.6130000  11.9940000   4.2100000  18.4810000  12.8430000
   4.3400000  18.3140000  21.3090000   1.1920000  16.6390000  23.0670000
   2.8100000  18.2990000  23.4700000   2.6630000  17.9410000  10.6930000
   0.8440000  16.6190000  24.4060000   0.7650000  16.0400000  22.4990000
   2.4880000  18.2350000  24.8410000   3.4980000  18.8470000  23.1660000
   3.8310000  17.2280000  10.0520000   2.7720000  18.9040000  10.6520000
   1.8270000  17.6970000  10.2650000   1.5120000  17.4140000  25.2930000
   0.1490000  16.0870000  24.7210000   2.9310000  18.8090000  25.4240000
   4.0500000  17.7370000   8.5970000   3.6920000  16.2710000   9.9700000
   4.6660000  17.3880000  10.5180000   1.3070000  17.3910000  26.2000000
   5.2520000  17.1490000   7.9090000   3.2290000  17.5450000   8.1180000
   4.1580000  18.6980000   8.6770000   5.4320000  17.6850000   6.4620000
   5.1350000  16.1900000   7.8160000   6.0700000  17.3270000   8.3990000
   6.6640000  17.1550000   5.7520000   4.6090000  17.5030000   5.9820000
   5.5370000  18.6430000   6.5660000   6.7850000  17.7290000   4.3260000
   6.5420000  16.1980000   5.6470000   7.4760000  17.3250000   6.2540000
   5.9660000  17.5640000   3.8330000   6.9090000  18.6840000   4.4370000
   7.9400000  17.1260000   3.5740000   8.0940000  17.7240000   2.1590000
   7.8570000  16.1630000   3.4890000   8.7800000  17.3370000   4.0110000
   7.2790000  17.4660000   1.6990000   9.2720000  17.2050000   1.4010000
   8.1260000  18.6890000   2.2410000   9.2350000  16.2450000   1.3300000
   9.2790000  17.5870000   0.5220000  10.0740000  17.4550000   1.8670000
  -2.0850000  16.6290000  70.5530000  -0.9210000  17.2090000  69.4080000
  -1.0270000  17.1430000  71.8510000  -0.9080000  17.2050000  67.9450000
   0.2120000  17.6770000  69.9640000  -1.3470000  17.0720000  73.2240000
   0.1790000  17.6490000  71.4130000  -1.8710000  16.7840000  67.0170000
   0.2610000  17.7750000  67.5040000   1.3600000  18.2780000  68.8040000
  -0.4010000  17.4770000  74.1540000  -2.1650000  16.7250000  73.4970000
   1.1160000  18.1090000  72.3640000  -1.5920000  16.9790000  65.6600000
  -2.6720000  16.4150000  67.3120000   0.5260000  18.0400000  66.1410000
   0.8110000  18.0310000  73.7250000  -0.7230000  17.4690000  75.6180000
   1.9140000  18.4930000  72.0780000  -0.4210000  17.6340000  65.2290000
  -2.1800000  16.6130000  65.0390000   1.3040000  18.4810000  65.8880000
   1.4350000  18.3140000  74.3540000  -1.7130000  16.6390000  76.1120000
  -0.0950000  18.2990000  76.5140000  -0.2420000  17.9410000  63.7370000
  -2.0610000  16.6190000  77.4510000  -2.1400000  16.0400000  75.5430000
  -0.4170000  18.2350000  77.8860000   0.5930000  18.8470000  76.2100000
   0.9250000  17.2280000  63.0970000  -0.1330000  18.9040000  63.6970000
  -1.0780000  17.6970000  63.3090000  -1.3930000  17.4140000  78.3380000
  -2.7560000  16.0870000  77.7650000   0.0260000  18.8090000  78.4690000
   1.1450000  17.7370000  61.6410000   0.7870000  16.2710000  63.0140000
   1.7610000  17.3880000  63.5630000  -1.5990000  17.3910000  79.2440000
   2.3460000  17.1490000  60.9530000   0.3240000  17.5450000  61.1620000
   1.2530000  18.6980000  61.7220000   2.5270000  17.6850000  59.5060000
   2.2290000  16.1900000  60.8610000   3.1640000  17.3270000  61.4440000
   3.7590000  17.1550000  58.7970000   1.7040000  17.5030000  59.0270000
   2.6320000  18.6430000  59.6100000   3.8800000  17.7290000  57.3710000
   3.6370000  16.1980000  58.6910000   4.5710000  17.3250000  59.2980000
   3.0610000  17.5640000  56.8770000   4.0040000  18.6840000  57.4820000
   5.0350000  17.1260000  56.6190000   5.1880000  17.7240000  55.2040000
   4.9510000  16.1630000  56.5340000   5.8740000  17.3370000  57.0560000
   4.3730000  17.4660000  54.7440000   6.3670000  17.2050000  54.4460000
   5.2210000  18.6890000  55.2860000   6.3300000  16.2450000  54.3750000
   6.3740000  17.5870000  53.5670000   7.1690000  17.4550000  54.9120000
   0.8200000  24.3860000  17.5080000   1.9850000  24.9660000  16.3640000
   1.8790000  24.9000000  18.8070000   1.9970000  24.9610000  14.9000000
   3.1170000  25.4340000  16.9190000   1.5580000  24.8290000  20.1790000
   3.0840000  25.4060000  18.3690000   1.0340000  24.5410000  13.9730000
   3.1660000  25.5320000  14.4590000   4.2660000  26.0350000  15.7600000
   2.5040000  25.2340000  21.1090000   0.7400000  24.4810000  20.4530000
   4.0210000  25.8660000  19.3200000   1.3140000  24.7360000  12.6150000
   0.2330000  24.1720000  14.2670000   3.4320000  25.7970000  13.0960000
   3.7160000  25.7870000  20.6800000   2.1830000  25.2260000  22.5740000
   4.8190000  26.2490000  19.0330000   2.4840000  25.3900000  12.1840000
   0.7260000  24.3700000  11.9940000   4.2100000  26.2380000  12.8430000
   4.3400000  26.0710000  21.3090000   1.1920000  24.3960000  23.0670000
   2.8100000  26.0560000  23.4700000   2.6630000  25.6980000  10.6930000
   0.8440000  24.3760000  24.4060000   0.7650000  23.7970000  22.4990000
   2.4880000  25.9920000  24.8410000   3.4980000  26.6040000  23.1660000
   3.8310000  24.9850000  10.0520000   2.7720000  26.6610000  10.6520000
   1.8270000  25.4540000  10.2650000   1.5120000  25.1710000  25.2930000
   0.1490000  23.8440000  24.7210000   2.9310000  26.5660000  25.4240000
   4.0500000  25.4940000   8.5970000   3.6920000  24.0280000   9.9700000
   4.6660000  25.1450000  10.5180000   1.3070000  25.1470000  26.2000000
   5.2520000  24.9060000   7.9090000   3.2290000  25.3020000   8.1180000
   4.1580000  26.4550000   8.6770000   5.4320000  25.4420000   6.4620000
   5.1350000  23.9470000   7.8160000   6.0700000  25.0840000   8.3990000
   6.6640000  24.9120000   5.7520000   4.6090000  25.2600000   5.9820000
   5.5370000  26.4000000   6.5660000   6.7850000  25.4860000   4.3260000
   6.5420000  23.9550000   5.6470000   7.4760000  25.0810000   6.2540000
   5.9660000  25.3210000   3.8330000   6.9090000  26.4410000   4.4370000
   7.9400000  24.8830000   3.5740000   8.0940000  25.4800000   2.1590000
   7.8570000  23.9200000   3.4890000   8.7800000  25.0940000   4.0110000
   7.2790000  25.2230000   1.6990000   9.2720000  24.9610000   1.4010000
   8.1260000  26.4460000   2.2410000   9.2350000  24.0010000   1.3300000
   9.2790000  25.3440000   0.5220000  10.0740000  25.2120000   1.8670000
  -2.0850000  24.3860000  70.5530000  -0.9210000  24.9660000  69.4080000
  -1.0270000  24.9000000  71.8510000  -0.9080000  24.9610000  67.9450000
   0.2120000  25.4340000  69.9640000  -1.3470000  24.8290000  73.2240000
   0.1790000  25.4060000  71.4130000  -1.8710000  24.5410000  67.0170000
   0.2610000  25.5320000  67.5040000   1.3600000  26.0350000  68.8040000
  -0.4010000  25.2340000  74.1540000  -2.1650000  24.4810000  73.4970000
   1.1160000  25.8660000  72.3640000  -1.5920000  24.7360000  65.6600000
  -2.6720000  24.1720000  67.3120000   0.5260000  25.7970000  66.1410000
   0.8110000  25.7870000  73.7250000  -0.7230000  25.2260000  75.6180000
   1.9140000  26.2490000  72.0780000  -0.4210000  25.3900000  65.2290000
  -2.1800000  24.3700000  65.0390000   1.3040000  26.2380000  65.8880000
   1.4350000  26.0710000  74.3540000  -1.7130000  24.3960000  76.1120000
  -0.0950000  26.0560000  76.5140000  -0.2420000  25.6980000  63.7370000
  -2.0610000  24.3760000  77.4510000  -2.1400000  23.7970000  75.5430000
  -0.4170000  25.9920000  77.8860000   0.5930000  26.6040000  76.2100000
   0.9250000  24.9850000  63.0970000  -0.1330000  26.6610000  63.6970000
  -1.0780000  25.4540000  63.3090000  -1.3930000  25.1710000  78.3380000
  -2.7560000  23.8440000  77.7650000   0.0260000  26.5660000  78.4690000
   1.1450000  25.4940000  61.6410000   0.7870000  24.0280000  63.0140000
   1.7610000  25.1450000  63.5630000  -1.5990000  25.1470000  79.2440000
   2.3460000  24.9060000  60.9530000   0.3240000  25.3020000  61.1620000
   1.2530000  26.4550000  61.7220000   2.5270000  25.4420000  59.5060000
   2.2290000  23.9470000  60.8610000   3.1640000  25.0840000  61.4440000
   3.7590000  24.9120000  58.7970000   1.7040000  25.2600000  59.0270000
   2.6320000  26.4000000  59.6100000   3.8800000  25.4860000  57.3710000
   3.6370000  23.9550000  58.6910000   4.5710000  25.0810000  59.2980000
   3.0610000  25.3210000  56.8770000   4.0040000  26.4410000  57.4820000
   5.0350000  24.8830000  56.6190000   5.1880000  25.4800000  55.2040000
   4.9510000  23.9200000  56.5340000   5.8740000  25.0940000  57.0560000
   4.3730000  25.2230000  54.7440000   6.3670000  24.9610000  54.4460000
   5.2210000  26.4460000  55.2860000   6.3300000  24.0010000  54.3750000
   6.3740000  25.3440000  53.5670000   7.1690000  25.2120000  54.9120000
   0.8200000  32.1430000  17.5080000   1.9850000  32.7230000  16.3640000
   1.8790000  32.6570000  18.8070000   1.9970000  32.7180000  14.9000000
   3.1170000  33.1910000  16.9190000   1.5580000  32.5860000  20.1790000
   3.0840000  33.1630000  18.3690000   1.0340000  32.2980000  13.9730000
   3.1660000  33.2880000  14.4590000   4.2660000  33.7920000  15.7600000
   2.5040000  32.9900000  21.1090000   0.7400000  32.2380000  20.4530000
   4.0210000  33.6230000  19.3200000   1.3140000  32.4920000  12.6150000
   0.2330000  31.9280000  14.2670000   3.4320000  33.5540000  13.0960000
   3.7160000  33.5440000  20.6800000   2.1830000  32.9830000  22.5740000
   4.8190000  34.0060000  19.0330000   2.4840000  33.1470000  12.1840000
   0.7260000  32.1270000  11.9940000   4.2100000  33.9950000  12.8430000
   4.3400000  33.8270000  21.3090000   1.1920000  32.1530000  23.0670000
   2.8100000  33.8130000  23.4700000   2.6630000  33.4540000  10.6930000
   0.8440000  32.1330000  24.4060000   0.7650000  31.5540000  22.4990000
   2.4880000  33.7490000  24.8410000   3.4980000  34.3600000  23.1660000
   3.8310000  32.7410000  10.0520000   2.7720000  34.4170000  10.6520000
   1.8270000  33.2110000  10.2650000   1.5120000  32.9280000  25.2930000
   0.1490000  31.6010000  24.7210000   2.9310000  34.3230000  25.4240000
   4.0500000  33.2510000   8.5970000   3.6920000  31.7850000   9.9700000
   4.6660000  32.9020000  10.5180000   1.3070000  32.9040000  26.2000000
   5.2520000  32.6620000   7.9090000   3.2290000  33.0580000   8.1180000
   4.1580000  34.2110000   8.6770000   5.4320000  33.1980000   6.4620000
   5.1350000  31.7040000   7.8160000   6.0700000  32.8410000   8.3990000
   6.6640000  32.6690000   5.7520000   4.6090000  33.0170000   5.9820000
   5.5370000  34.1570000   6.5660000   6.7850000  33.2430000   4.3260000
   6.5420000  31.7120000   5.6470000   7.4760000  32.8380000   6.2540000
   5.9660000  33.0770000   3.8330000   6.9090000  34.1980000   4.4370000
   7.9400000  32.6400000   3.5740000   8.0940000  33.2370000   2.1590000
   7.8570000  31.6770000   3.4890000   8.7800000  32.8510000   4.0110000
   7.2790000  32.9800000   1.6990000   9.2720000  32.7180000   1.4010000
   8.1260000  34.2030000   2.2410000   9.2350000  31.7580000   1.3300000
   9.2790000  33.1010000   0.5220000  10.0740000  32.9690000   1.8670000
  -2.0850000  32.1430000  70.5530000  -0.9210000  32.7230000  69.4080000
  -1.0270000  32.6570000  71.8510000  -0.9080000  32.7180000  67.9450000
   0.2120000  33.1910000  69.9640000  -1.3470000  32.5860000  73.2240000
   0.1790000  33.1630000  71.4130000  -1.8710000  32.2980000  67.0170000
   0.2610000  33.2880000  67.5040000   1.3600000  33.7920000  68.8040000
  -0.4010000  32.9900000  74.1540000  -2.1650000  32.2380000  73.4970000
   1.1160000  33.6230000  72.3640000  -1.5920000  32.4920000  65.6600000
  -2.6720000  31.9280000  67.3120000   0.5260000  33.5540000  66.1410000
   0.8110000  33.5440000  73.7250000  -0.7230000  32.9830000  75.6180000
   1.9140000  34.0060000  72.0780000  -0.4210000  33.1470000  65.2290000
  -2.1800000  32.1270000  65.0390000   1.3040000  33.9950000  65.8880000
   1.4350000  33.8270000  74.3540000  -1.7130000  32.1530000  76.1120000
  -0.0950000  33.8130000  76.5140000  -0.2420000  33.4540000  63.7370000
  -2.0610000  32.1330000  77.4510000  -2.1400000  31.5540000  75.5430000
  -0.4170000  33.7490000  77.8860000   0.5930000  34.3600000  76.2100000
   0.9250000  32.7410000  63.0970000  -0.1330000  34.4170000  63.6970000
  -1.0780000  33.2110000  63.3090000  -1.3930000  32.9280000  78.3380000
  -2.7560000  31.6010000  77.7650000   0.0260000  34.3230000  78.4690000
   1.1450000  33.2510000  61.6410000   0.7870000  31.7850000  63.0140000
   1.7610000  32.9020000  63.5630000  -1.5990000  32.9040000  79.2440000
   2.3460000  32.6620000  60.9530000   0.3240000  33.0580000  61.1620000
   1.2530000  34.2110000  61.7220000   2.5270000  33.1980000  59.5060000
   2.2290000  31.7040000  60.8610000   3.1640000  32.8410000  61.4440000
   3.7590000  32.6690000  58.7970000   1.7040000  33.0170000  59.0270000
   2.6320000  34.1570000  59.6100000   3.8800000  33.2430000  57.3710000
   3.6370000  31.7120000  58.6910000   4.5710000  32.8380000  59.2980000
   3.0610000  33.0770000  56.8770000   4.0040000  34.1980000  57.4820000
   5.0350000  32.6400000  56.6190000   5.1880000  33.2370000  55.2040000
   4.9510000  31.6770000  56.5340000   5.8740000  32.8510000  57.0560000
   4.3730000  32.9800000  54.7440000   6.3670000  32.7180000  54.4460000
   5.2210000  34.2030000  55.2860000   6.3300000  31.7580000  54.3750000
   6.3740000  33.1010000  53.5670000   7.1690000  32.9690000  54.9120000
   0.8200000  39.8990000  17.5080000   1.9850000  40.4800000  16.3640000
   1.8790000  40.4140000  18.8070000   1.9970000  40.4750000  14.9000000
   3.1170000  40.9470000  16.9190000   1.5580000  40.3420000  20.1790000
   3.0840000  40.9190000  18.3690000   1.0340000  40.0550000  13.9730000
   3.1660000  41.0450000  14.4590000   4.2660000  41.5490000  15.7600000
   2.5040000  40.7470000  21.1090000   0.7400000  39.9950000  20.4530000
   4.0210000  41.3790000  19.3200000   1.3140000  40.2490000  12.6150000
   0.2330000  39.6850000  14.2670000   3.4320000  41.3100000  13.0960000
   3.7160000  41.3010000  20.6800000   2.1830000  40.7390000  22.5740000
   4.8190000  41.7630000  19.0330000   2.4840000  40.9040000  12.1840000
   0.7260000  39.8840000  11.9940000   4.2100000  41.7520000  12.8430000
   4.3400000  41.5840000  21.3090000   1.1920000  39.9100000  23.0670000
   2.8100000  41.5690000  23.4700000   2.6630000  41.2110000  10.6930000
   0.8440000  39.8890000  24.4060000   0.7650000  39.3110000  22.4990000
   2.4880000  41.5060000  24.8410000   3.4980000  42.1170000  23.1660000
   3.8310000  40.4980000  10.0520000   2.7720000  42.1740000  10.6520000
   1.8270000  40.9680000  10.2650000   1.5120000  40.6840000  25.2930000
   0.1490000  39.3580000  24.7210000   2.9310000  42.0790000  25.4240000
   4.0500000  41.0080000   8.5970000   3.6920000  39.5410000   9.9700000
   4.6660000  40.6580000  10.5180000   1.3070000  40.6610000  26.2000000
   5.2520000  40.4190000   7.9090000   3.2290000  40.8150000   8.1180000
   4.1580000  41.9680000   8.6770000   5.4320000  40.9550000   6.4620000
   5.1350000  39.4600000   7.8160000   6.0700000  40.5980000   8.3990000
   6.6640000  40.4250000   5.7520000   4.6090000  40.7730000   5.9820000
   5.5370000  41.9140000   6.5660000   6.7850000  40.9990000   4.3260000
   6.5420000  39.4690000   5.6470000   7.4760000  40.5950000   6.2540000
   5.9660000  40.8340000   3.8330000   6.9090000  41.9550000   4.4370000
   7.9400000  40.3970000   3.5740000   8.0940000  40.9940000   2.1590000
   7.8570000  39.4340000   3.4890000   8.7800000  40.6070000   4.0110000
   7.2790000  40.7360000   1.6990000   9.2720000  40.4750000   1.4010000
   8.1260000  41.9600000   2.2410000   9.2350000  39.5150000   1.3300000
   9.2790000  40.8570000   0.5220000  10.0740000  40.7260000   1.8670000
  -2.0850000  39.8990000  70.5530000  -0.9210000  40.4800000  69.4080000
  -1.0270000  40.4140000  71.8510000  -0.9080000  40.4750000  67.9450000
   0.2120000  40.9470000  69.9640000  -1.3470000  40.3420000  73.2240000
   0.1790000  40.9190000  71.4130000  -1.8710000  40.0550000  67.0170000
   0.2610000  41.0450000  67.5040000   1.3600000  41.5490000  68.8040000
  -0.4010000  40.7470000  74.1540000  -2.1650000  39.9950000  73.4970000
   1.1160000  41.3790000  72.3640000  -1.5920000  40.2490000  65.6600000
  -2.6720000  39.6850000  67.3120000   0.5260000  41.3100000  66.1410000
   0.8110000  41.3010000  73.7250000  -0.7230000  40.7390000  75.6180000
   1.9140000  41.7630000  72.0780000  -0.4210000  40.9040000  65.2290000
  -2.1800000  39.8840000  65.0390000   1.3040000  41.7520000  65.8880000
   1.4350000  41.5840000  74.3540000  -1.7130000  39.9100000  76.1120000
  -0.0950000  41.5690000  76.5140000  -0.2420000  41.2110000  63.7370000
  -2.0610000  39.8890000  77.4510000  -2.1400000  39.3110000  75.5430000
  -0.4170000  41.5060000  77.8860000   0.5930000  42.1170000  76.2100000
   0.9250000  40.4980000  63.0970000  -0.1330000  42.1740000  63.6970000
  -1.0780000  40.9680000  63.3090000  -1.3930000  40.6840000  78.3380000
  -2.7560000  39.3580000  77.7650000   0.0260000  42.0790000  78.4690000
   1.1450000  41.0080000  61.6410000   0.7870000  39.5410000  63.0140000
   1.7610000  40.6580000  63.5630000  -1.5990000  40.6610000  79.2440000
   2.3460000  40.4190000  60.9530000   0.3240000  40.8150000  61.1620000
   1.2530000  41.9680000  61.7220000   2.5270000  40.9550000  59.5060000
   2.2290000  39.4600000  60.8610000   3.1640000  40.5980000  61.4440000
   3.7590000  40.4250000  58.7970000   1.7040000  40.7730000  59.0270000
   2.6320000  41.9140000  59.6100000   3.8800000  40.9990000  57.3710000
   3.6370000  39.4690000  58.6910000   4.5710000  40.5950000  59.2980000
   3.0610000  40.8340000  56.8770000   4.0040000  41.9550000  57.4820000
   5.0350000  40.3970000  56.6190000   5.1880000  40.9940000  55.2040000
   4.9510000  39.4340000  56.5340000   5.8740000  40.6070000  57.0560000
   4.3730000  40.7360000  54.7440000   6.3670000  40.4750000  54.4460000
   5.2210000  41.9600000  55.2860000   6.3300000  39.5150000  54.3750000
   6.3740000  40.8570000  53.5670000   7.1690000  40.7260000  54.9120000
  -2.0850000   1.1150000  70.5530000  -0.9210000   1.6960000  69.4080000
  -1.0270000   1.6300000  71.8510000  -0.9080000   1.6910000  67.9450000
   0.2120000   2.1630000  69.9640000  -1.3470000   1.5580000  73.2240000
   0.1790000   2.1350000  71.4130000  -1.8710000   1.2710000  67.0170000
   0.2610000   2.2610000  67.5040000   1.3600000   2.7650000  68.8040000
  -0.4010000   1.9630000  74.1540000  -2.1650000   1.2110000  73.4970000
   1.1160000   2.5950000  72.3640000  -1.5920000   1.4650000  65.6600000
  -2.6720000   0.9010000  67.3120000   0.5260000   2.5260000  66.1410000
   0.8110000   2.5170000  73.7250000  -0.7230000   1.9550000  75.6180000
   1.9140000   2.9790000  72.0780000  -0.4210000   2.1200000  65.2290000
  -2.1800000   1.1000000  65.0390000   1.3040000   2.9680000  65.8880000
   1.4350000   2.8000000  74.3540000  -1.7130000   1.1260000  76.1120000
  -0.0950000   2.7850000  76.5140000  -0.2420000   2.4270000  63.7370000
  -2.0610000   1.1050000  77.4510000  -2.1400000   0.5270000  75.5430000
  -0.4170000   2.7220000  77.8860000   0.5930000   3.3330000  76.2100000
   0.9250000   1.7140000  63.0970000  -0.1330000   3.3900000  63.6970000
  -1.0780000   2.1840000  63.3090000  -1.3930000   1.9000000  78.3380000
  -2.7560000   0.5740000  77.7650000   0.0260000   3.2950000  78.4690000
   1.1450000   2.2240000  61.6410000   0.7870000   0.7570000  63.0140000
   1.7610000   1.8740000  63.5630000  -1.5990000   1.8770000  79.2440000
   2.3460000   1.6350000  60.9530000   0.3240000   2.0310000  61.1620000
   1.2530000   3.1840000  61.7220000   2.5270000   2.1710000  59.5060000
   2.2290000   0.6760000  60.8610000   3.1640000   1.8140000  61.4440000
   3.7590000   1.6410000  58.7970000   1.7040000   1.9890000  59.0270000
   2.6320000   3.1300000  59.6100000   3.8800000   2.2150000  57.3710000
   3.6370000   0.6850000  58.6910000   4.5710000   1.8110000  59.2980000
   3.0610000   2.0500000  56.8770000   4.0040000   3.1710000  57.4820000
   5.0350000   1.6130000  56.6190000   5.1880000   2.2100000  55.2040000
   4.9510000   0.6500000  56.5340000   5.8740000   1.8230000  57.0560000
   4.3730000   1.9520000  54.7440000   6.3670000   1.6910000  54.4460000
   5.2210000   3.1760000  55.2860000   6.3300000   0.7310000  54.3750000
   6.3740000   2.0730000  53.5670000   7.1690000   1.9420000  54.9120000
   0.8200000   1.1150000  17.5080000   1.9850000   1.6960000  16.3640000
   1.8790000   1.6300000  18.8070000   1.9970000   1.6910000  14.9000000
   3.1170000   2.1630000  16.9190000   1.5580000   1.5580000  20.1790000
   3.0840000   2.1350000  18.3690000   1.0340000   1.2710000  13.9730000
   3.1660000   2.2610000  14.4590000   4.2660000   2.7650000  15.7600000
   2.5040000   1.9630000  21.1090000   0.7400000   1.2110000  20.4530000
   4.0210000   2.5950000  19.3200000   1.3140000   1.4650000  12.6150000
   0.2330000   0.9010000  14.2670000   3.4320000   2.5260000  13.0960000
   3.7160000   2.5170000  20.6800000   2.1830000   1.9550000  22.5740000
   4.8190000   2.9790000  19.0330000   2.4840000   2.1200000  12.1840000
   0.7260000   1.1000000  11.9940000   4.2100000   2.9680000  12.8430000
   4.3400000   2.8000000  21.3090000   1.1920000   1.1260000  23.0670000
   2.8100000   2.7850000  23.4700000   2.6630000   2.4270000  10.6930000
   0.8440000   1.1050000  24.4060000   0.7650000   0.5270000  22.4990000
   2.4880000   2.7220000  24.8410000   3.4980000   3.3330000  23.1660000
   3.8310000   1.7140000  10.0520000   2.7720000   3.3900000  10.6520000
   1.8270000   2.1840000  10.2650000   1.5120000   1.9000000  25.2930000
   0.1490000   0.5740000  24.7210000   2.9310000   3.2950000  25.4240000
   4.0500000   2.2240000   8.5970000   3.6920000   0.7570000   9.9700000
   4.6660000   1.8740000  10.5180000   1.3070000   1.8770000  26.2000000
   5.2520000   1.6350000   7.9090000   3.2290000   2.0310000   8.1180000
   4.1580000   3.1840000   8.6770000   5.4320000   2.1710000   6.4620000
   5.1350000   0.6760000   7.8160000   6.0700000   1.8140000   8.3990000
   6.6640000   1.6410000   5.7520000   4.6090000   1.9890000   5.9820000
   5.5370000   3.1300000   6.5660000   6.7850000   2.2150000   4.3260000
   6.5420000   0.6850000   5.6470000   7.4760000   1.8110000   6.2540000
   5.9660000   2.0500000   3.8330000   6.9090000   3.1710000   4.4370000
   7.9400000   1.6130000   3.5740000   8.0940000   2.2100000   2.1590000
   7.8570000   0.6500000   3.4890000   8.7800000   1.8230000   4.0110000
   7.2790000   1.9520000   1.6990000   9.2720000   1.6910000   1.4010000
   8.1260000   3.1760000   2.2410000   9.2350000   0.7310000   1.3300000
   9.2790000   2.0730000   0.5220000  10.0740000   1.9420000   1.8670000
  26.5100000   4.9940000  35.5360000  25.3460000   5.5740000  36.6810000
  25.4520000   5.5080000  34.2380000  25.3330000   5.5690000  38.1440000
  24.2130000   6.0420000  36.1250000  25.7720000   5.4370000  32.8650000
  24.2460000   6.0140000  34.6760000  26.2960000   5.1490000  39.0720000
  24.1640000   6.1400000  38.5850000  23.0650000   6.6430000  37.2850000
  24.8260000   5.8420000  31.9350000  26.5900000   5.0890000  32.5920000
  23.3090000   6.4740000  33.7250000  26.0170000   5.3440000  40.4290000
  27.0970000   4.7800000  38.7770000  23.8990000   6.4050000  39.9480000
  23.6140000   6.3950000  32.3640000  25.1480000   5.8340000  30.4710000
  22.5110000   6.8570000  34.0110000  24.8460000   5.9980000  40.8600000
  26.6050000   4.9780000  41.0500000  23.1200000   6.8460000  40.2010000
  22.9900000   6.6790000  31.7350000  26.1380000   5.0040000  29.9770000
  24.5200000   6.6640000  29.5750000  24.6670000   6.3060000  42.3520000
  26.4860000   4.9840000  28.6380000  26.5650000   4.4050000  30.5460000
  24.8420000   6.6000000  28.2030000  23.8320000   7.2120000  29.8790000
  23.5000000   5.5930000  42.9920000  24.5580000   7.2690000  42.3920000
  25.5030000   6.0620000  42.7800000  25.8180000   5.7790000  27.7510000
  27.1810000   4.4520000  28.3240000  24.3990000   7.1740000  27.6200000
  23.2800000   6.1020000  44.4480000  23.6380000   4.6360000  43.0750000
  22.6640000   5.7530000  42.5260000  26.0230000   5.7550000  26.8450000
  22.0790000   5.5140000  45.1360000  24.1010000   5.9100000  44.9270000
  23.1720000   7.0630000  44.3670000  21.8980000   6.0500000  46.5830000
  22.1960000   4.5550000  45.2280000  21.2610000   5.6920000  44.6450000
  20.6660000   5.5200000  47.2920000  22.7210000   5.8680000  47.0620000
  21.7930000   7.0080000  46.4790000  20.5450000   6.0940000  48.7180000
  20.7880000   4.5630000  47.3980000  19.8540000   5.6890000  46.7910000
  21.3640000   5.9290000  49.2120000  20.4210000   7.0490000  48.6070000
  19.3900000   5.4910000  49.4700000  19.2370000   6.0880000  50.8850000
  19.4740000   4.5280000  49.5550000  18.5510000   5.7020000  49.0330000
  20.0510000   5.8310000  51.3450000  18.0580000   5.5690000  51.6430000
  19.2040000   7.0540000  50.8030000  18.0950000   4.6090000  51.7140000
  18.0510000   5.9520000  52.5220000  17.2560000   5.8200000  51.1770000
  23.6050000   4.9940000  88.5810000  22.4400000   5.5740000  89.7250000
  22.5460000   5.5080000  87.2820000  22.4280000   5.5690000  91.1890000
  21.3080000   6.0420000  89.1700000  22.8670000   5.4370000  85.9100000
  21.3410000   6.0140000  87.7200000  23.3910000   5.1490000  92.1160000
  21.2580000   6.1400000  91.6300000  20.1590000   6.6430000  90.3290000
  21.9210000   5.8420000  84.9800000  23.6850000   5.0890000  85.6360000
  20.4040000   6.4740000  86.7690000  23.1110000   5.3440000  93.4740000
  24.1920000   4.7800000  91.8220000  20.9930000   6.4050000  92.9930000
  20.7090000   6.3950000  85.4090000  22.2420000   5.8340000  83.5150000
  19.6060000   6.8570000  87.0560000  21.9410000   5.9980000  93.9050000
  23.6990000   4.9780000  94.0950000  20.2150000   6.8460000  93.2460000
  20.0850000   6.6790000  84.7800000  23.2330000   5.0040000  83.0220000
  21.6150000   6.6640000  82.6190000  21.7620000   6.3060000  95.3960000
  23.5800000   4.9840000  81.6830000  23.6600000   4.4050000  83.5900000
  21.9370000   6.6000000  81.2480000  20.9270000   7.2120000  82.9230000
  20.5940000   5.5930000  96.0370000  21.6530000   7.2690000  95.4370000
  22.5980000   6.0620000  95.8240000  22.9120000   5.7790000  80.7960000
  24.2760000   4.4520000  81.3680000  21.4940000   7.1740000  80.6650000
  20.3750000   6.1020000  97.4920000  20.7330000   4.6360000  96.1190000
  19.7590000   5.7530000  95.5710000  23.1180000   5.7550000  79.8890000
  19.1730000   5.5140000  98.1800000  21.1960000   5.9100000  97.9710000
  20.2670000   7.0630000  97.4120000  18.9930000   6.0500000  99.6270000
  19.2900000   4.5550000  98.2730000  18.3550000   5.6920000  97.6900000
  17.7610000   5.5200000 100.3370000  19.8160000   5.8680000 100.1070000
  18.8880000   7.0080000  99.5230000  17.6400000   6.0940000 101.7630000
  17.8830000   4.5630000 100.4420000  16.9480000   5.6890000  99.8350000
  18.4590000   5.9290000 102.2560000  17.5160000   7.0490000 101.6520000
  16.4850000   5.4910000 102.5150000  16.3310000   6.0880000 103.9300000
  16.5680000   4.5280000 102.6000000  15.6450000   5.7020000 102.0780000
  17.1460000   5.8310000 104.3900000  15.1530000   5.5690000 104.6880000
  16.2990000   7.0540000 103.8480000  15.1900000   4.6090000 104.7590000
  15.1460000   5.9520000 105.5670000  14.3510000   5.8200000 104.2220000
  26.5100000  12.7510000  35.5360000  25.3460000  13.3310000  36.6810000
  25.4520000  13.2650000  34.2380000  25.3330000  13.3260000  38.1440000
  24.2130000  13.7990000  36.1250000  25.7720000  13.1940000  32.8650000
  24.2460000  13.7710000  34.6760000  26.2960000  12.9060000  39.0720000
  24.1640000  13.8960000  38.5850000  23.0650000  14.4000000  37.2850000
  24.8260000  13.5980000  31.9350000  26.5900000  12.8460000  32.5920000
  23.3090000  14.2310000  33.7250000  26.0170000  13.1000000  40.4290000
  27.0970000  12.5360000  38.7770000  23.8990000  14.1620000  39.9480000
  23.6140000  14.1520000  32.3640000  25.1480000  13.5910000  30.4710000
  22.5110000  14.6140000  34.0110000  24.8460000  13.7550000  40.8600000
  26.6050000  12.7350000  41.0500000  23.1200000  14.6030000  40.2010000
  22.9900000  14.4350000  31.7350000  26.1380000  12.7610000  29.9770000
  24.5200000  14.4210000  29.5750000  24.6670000  14.0620000  42.3520000
  26.4860000  12.7410000  28.6380000  26.5650000  12.1620000  30.5460000
  24.8420000  14.3570000  28.2030000  23.8320000  14.9680000  29.8790000
  23.5000000  13.3490000  42.9920000  24.5580000  15.0250000  42.3920000
  25.5030000  13.8190000  42.7800000  25.8180000  13.5360000  27.7510000
  27.1810000  12.2090000  28.3240000  24.3990000  14.9310000  27.6200000
  23.2800000  13.8590000  44.4480000  23.6380000  12.3930000  43.0750000
  22.6640000  13.5100000  42.5260000  26.0230000  13.5120000  26.8450000
  22.0790000  13.2700000  45.1360000  24.1010000  13.6660000  44.9270000
  23.1720000  14.8190000  44.3670000  21.8980000  13.8060000  46.5830000
  22.1960000  12.3120000  45.2280000  21.2610000  13.4490000  44.6450000
  20.6660000  13.2770000  47.2920000  22.7210000  13.6250000  47.0620000
  21.7930000  14.7650000  46.4790000  20.5450000  13.8510000  48.7180000
  20.7880000  12.3200000  47.3980000  19.8540000  13.4460000  46.7910000
  21.3640000  13.6850000  49.2120000  20.4210000  14.8060000  48.6070000
  19.3900000  13.2480000  49.4700000  19.2370000  13.8450000  50.8850000
  19.4740000  12.2850000  49.5550000  18.5510000  13.4590000  49.0330000
  20.0510000  13.5880000  51.3450000  18.0580000  13.3260000  51.6430000
  19.2040000  14.8110000  50.8030000  18.0950000  12.3660000  51.7140000
  18.0510000  13.7090000  52.5220000  17.2560000  13.5770000  51.1770000
  23.6050000  12.7510000  88.5810000  22.4400000  13.3310000  89.7250000
  22.5460000  13.2650000  87.2820000  22.4280000  13.3260000  91.1890000
  21.3080000  13.7990000  89.1700000  22.8670000  13.1940000  85.9100000
  21.3410000  13.7710000  87.7200000  23.3910000  12.9060000  92.1160000
  21.2580000  13.8960000  91.6300000  20.1590000  14.4000000  90.3290000
  21.9210000  13.5980000  84.9800000  23.6850000  12.8460000  85.6360000
  20.4040000  14.2310000  86.7690000  23.1110000  13.1000000  93.4740000
  24.1920000  12.5360000  91.8220000  20.9930000  14.1620000  92.9930000
  20.7090000  14.1520000  85.4090000  22.2420000  13.5910000  83.5150000
  19.6060000  14.6140000  87.0560000  21.9410000  13.7550000  93.9050000
  23.6990000  12.7350000  94.0950000  20.2150000  14.6030000  93.2460000
  20.0850000  14.4350000  84.7800000  23.2330000  12.7610000  83.0220000
  21.6150000  14.4210000  82.6190000  21.7620000  14.0620000  95.3960000
  23.5800000  12.7410000  81.6830000  23.6600000  12.1620000  83.5900000
  21.9370000  14.3570000  81.2480000  20.9270000  14.9680000  82.9230000
  20.5940000  13.3490000  96.0370000  21.6530000  15.0250000  95.4370000
  22.5980000  13.8190000  95.8240000  22.9120000  13.5360000  80.7960000
  24.2760000  12.2090000  81.3680000  21.4940000  14.9310000  80.6650000
  20.3750000  13.8590000  97.4920000  20.7330000  12.3930000  96.1190000
  19.7590000  13.5100000  95.5710000  23.1180000  13.5120000  79.8890000
  19.1730000  13.2700000  98.1800000  21.1960000  13.6660000  97.9710000
  20.2670000  14.8190000  97.4120000  18.9930000  13.8060000  99.6270000
  19.2900000  12.3120000  98.2730000  18.3550000  13.4490000  97.6900000
  17.7610000  13.2770000 100.3370000  19.8160000  13.6250000 100.1070000
  18.8880000  14.7650000  99.5230000  17.6400000  13.8510000 101.7630000
  17.8830000  12.3200000 100.4420000  16.9480000  13.4460000  99.8350000
  18.4590000  13.6850000 102.2560000  17.5160000  14.8060000 101.6520000
  16.4850000  13.2480000 102.5150000  16.3310000  13.8450000 103.9300000
  16.5680000  12.2850000 102.6000000  15.6450000  13.4590000 102.0780000
  17.1460000  13.5880000 104.3900000  15.1530000  13.3260000 104.6880000
  16.2990000  14.8110000 103.8480000  15.1900000  12.3660000 104.7590000
  15.1460000  13.7090000 105.5670000  14.3510000  13.5770000 104.2220000
  26.5100000  20.5070000  35.5360000  25.3460000  21.0880000  36.6810000
  25.4520000  21.0220000  34.2380000  25.3330000  21.0830000  38.1440000
  24.2130000  21.5550000  36.1250000  25.7720000  20.9500000  32.8650000
  24.2460000  21.5270000  34.6760000  26.2960000  20.6630000  39.0720000
  24.1640000  21.6530000  38.5850000  23.0650000  22.1570000  37.2850000
  24.8260000  21.3550000  31.9350000  26.5900000  20.6030000  32.5920000
  23.3090000  21.9870000  33.7250000  26.0170000  20.8570000  40.4290000
  27.0970000  20.2930000  38.7770000  23.8990000  21.9180000  39.9480000
  23.6140000  21.9090000  32.3640000  25.1480000  21.3470000  30.4710000
  22.5110000  22.3710000  34.0110000  24.8460000  21.5120000  40.8600000
  26.6050000  20.4920000  41.0500000  23.1200000  22.3600000  40.2010000
  22.9900000  22.1920000  31.7350000  26.1380000  20.5180000  29.9770000
  24.5200000  22.1770000  29.5750000  24.6670000  21.8190000  42.3520000
  26.4860000  20.4970000  28.6380000  26.5650000  19.9190000  30.5460000
  24.8420000  22.1140000  28.2030000  23.8320000  22.7250000  29.8790000
  23.5000000  21.1060000  42.9920000  24.5580000  22.7820000  42.3920000
  25.5030000  21.5760000  42.7800000  25.8180000  21.2920000  27.7510000
  27.1810000  19.9660000  28.3240000  24.3990000  22.6870000  27.6200000
  23.2800000  21.6160000  44.4480000  23.6380000  20.1490000  43.0750000
  22.6640000  21.2660000  42.5260000  26.0230000  21.2690000  26.8450000
  22.0790000  21.0270000  45.1360000  24.1010000  21.4230000  44.9270000
  23.1720000  22.5760000  44.3670000  21.8980000  21.5630000  46.5830000
  22.1960000  20.0680000  45.2280000  21.2610000  21.2060000  44.6450000
  20.6660000  21.0330000  47.2920000  22.7210000  21.3810000  47.0620000
  21.7930000  22.5220000  46.4790000  20.5450000  21.6070000  48.7180000
  20.7880000  20.0770000  47.3980000  19.8540000  21.2030000  46.7910000
  21.3640000  21.4420000  49.2120000  20.4210000  22.5630000  48.6070000
  19.3900000  21.0050000  49.4700000  19.2370000  21.6020000  50.8850000
  19.4740000  20.0420000  49.5550000  18.5510000  21.2150000  49.0330000
  20.0510000  21.3440000  51.3450000  18.0580000  21.0830000  51.6430000
  19.2040000  22.5680000  50.8030000  18.0950000  20.1230000  51.7140000
  18.0510000  21.4650000  52.5220000  17.2560000  21.3340000  51.1770000
  23.6050000  20.5070000  88.5810000  22.4400000  21.0880000  89.7250000
  22.5460000  21.0220000  87.2820000  22.4280000  21.0830000  91.1890000
  21.3080000  21.5550000  89.1700000  22.8670000  20.9500000  85.9100000
  21.3410000  21.5270000  87.7200000  23.3910000  20.6630000  92.1160000
  21.2580000  21.6530000  91.6300000  20.1590000  22.1570000  90.3290000
  21.9210000  21.3550000  84.9800000  23.6850000  20.6030000  85.6360000
  20.4040000  21.9870000  86.7690000  23.1110000  20.8570000  93.4740000
  24.1920000  20.2930000  91.8220000  20.9930000  21.9180000  92.9930000
  20.7090000  21.9090000  85.4090000  22.2420000  21.3470000  83.5150000
  19.6060000  22.3710000  87.0560000  21.9410000  21.5120000  93.9050000
  23.6990000  20.4920000  94.0950000  20.2150000  22.3600000  93.2460000
  20.0850000  22.1920000  84.7800000  23.2330000  20.5180000  83.0220000
  21.6150000  22.1770000  82.6190000  21.7620000  21.8190000  95.3960000
  23.5800000  20.4970000  81.6830000  23.6600000  19.9190000  83.5900000
  21.9370000  22.1140000  81.2480000  20.9270000  22.7250000  82.9230000
  20.5940000  21.1060000  96.0370000  21.6530000  22.7820000  95.4370000
  22.5980000  21.5760000  95.8240000  22.9120000  21.2920000  80.7960000
  24.2760000  19.9660000  81.3680000  21.4940000  22.6870000  80.6650000
  20.3750000  21.6160000  97.4920000  20.7330000  20.1490000  96.1190000
  19.7590000  21.2660000  95.5710000  23.1180000  21.2690000  79.8890000
  19.1730000  21.0270000  98.1800000  21.1960000  21.4230000  97.9710000
  20.2670000  22.5760000  97.4120000  18.9930000  21.5630000  99.6270000
  19.2900000  20.0680000  98.2730000  18.3550000  21.2060000  97.6900000
  17.7610000  21.0330000 100.3370000  19.8160000  21.3810000 100.1070000
  18.8880000  22.5220000  99.5230000  17.6400000  21.6070000 101.7630000
  17.8830000  20.0770000 100.4420000  16.9480000  21.2030000  99.8350000
  18.4590000  21.4420000 102.2560000  17.5160000  22.5630000 101.6520000
  16.4850000  21.0050000 102.5150000  16.3310000  21.6020000 103.9300000
  16.5680000  20.0420000 102.6000000  15.6450000  21.2150000 102.0780000
  17.1460000  21.3440000 104.3900000  15.1530000  21.0830000 104.6880000
  16.2990000  22.5680000 103.8480000  15.1900000  20.1230000 104.7590000
  15.1460000  21.4650000 105.5670000  14.3510000  21.3340000 104.2220000
  26.5100000  28.2640000  35.5360000  25.3460000  28.8440000  36.6810000
  25.4520000  28.7790000  34.2380000  25.3330000  28.8400000  38.1440000
  24.2130000  29.3120000  36.1250000  25.7720000  28.7070000  32.8650000
  24.2460000  29.2840000  34.6760000  26.2960000  28.4190000  39.0720000
  24.1640000  29.4100000  38.5850000  23.0650000  29.9130000  37.2850000
  24.8260000  29.1120000  31.9350000  26.5900000  28.3600000  32.5920000
  23.3090000  29.7440000  33.7250000  26.0170000  28.6140000  40.4290000
  27.0970000  28.0500000  38.7770000  23.8990000  29.6750000  39.9480000
  23.6140000  29.6660000  32.3640000  25.1480000  29.1040000  30.4710000
  22.5110000  30.1280000  34.0110000  24.8460000  29.2690000  40.8600000
  26.6050000  28.2480000  41.0500000  23.1200000  30.1160000  40.2010000
  22.9900000  29.9490000  31.7350000  26.1380000  28.2740000  29.9770000
  24.5200000  29.9340000  29.5750000  24.6670000  29.5760000  42.3520000
  26.4860000  28.2540000  28.6380000  26.5650000  27.6760000  30.5460000
  24.8420000  29.8710000  28.2030000  23.8320000  30.4820000  29.8790000
  23.5000000  28.8630000  42.9920000  24.5580000  30.5390000  42.3920000
  25.5030000  29.3320000  42.7800000  25.8180000  29.0490000  27.7510000
  27.1810000  27.7230000  28.3240000  24.3990000  30.4440000  27.6200000
  23.2800000  29.3730000  44.4480000  23.6380000  27.9060000  43.0750000
  22.6640000  29.0230000  42.5260000  26.0230000  29.0260000  26.8450000
  22.0790000  28.7840000  45.1360000  24.1010000  29.1800000  44.9270000
  23.1720000  30.3330000  44.3670000  21.8980000  29.3200000  46.5830000
  22.1960000  27.8250000  45.2280000  21.2610000  28.9620000  44.6450000
  20.6660000  28.7900000  47.2920000  22.7210000  29.1380000  47.0620000
  21.7930000  30.2780000  46.4790000  20.5450000  29.3640000  48.7180000
  20.7880000  27.8340000  47.3980000  19.8540000  28.9600000  46.7910000
  21.3640000  29.1990000  49.2120000  20.4210000  30.3190000  48.6070000
  19.3900000  28.7610000  49.4700000  19.2370000  29.3590000  50.8850000
  19.4740000  27.7980000  49.5550000  18.5510000  28.9720000  49.0330000
  20.0510000  29.1010000  51.3450000  18.0580000  28.8400000  51.6430000
  19.2040000  30.3250000  50.8030000  18.0950000  27.8800000  51.7140000
  18.0510000  29.2220000  52.5220000  17.2560000  29.0900000  51.1770000
  23.6050000  28.2640000  88.5810000  22.4400000  28.8440000  89.7250000
  22.5460000  28.7790000  87.2820000  22.4280000  28.8400000  91.1890000
  21.3080000  29.3120000  89.1700000  22.8670000  28.7070000  85.9100000
  21.3410000  29.2840000  87.7200000  23.3910000  28.4190000  92.1160000
  21.2580000  29.4100000  91.6300000  20.1590000  29.9130000  90.3290000
  21.9210000  29.1120000  84.9800000  23.6850000  28.3600000  85.6360000
  20.4040000  29.7440000  86.7690000  23.1110000  28.6140000  93.4740000
  24.1920000  28.0500000  91.8220000  20.9930000  29.6750000  92.9930000
  20.7090000  29.6660000  85.4090000  22.2420000  29.1040000  83.5150000
  19.6060000  30.1280000  87.0560000  21.9410000  29.2690000  93.9050000
  23.6990000  28.2480000  94.0950000  20.2150000  30.1160000  93.2460000
  20.0850000  29.9490000  84.7800000  23.2330000  28.2740000  83.0220000
  21.6150000  29.9340000  82.6190000  21.7620000  29.5760000  95.3960000
  23.5800000  28.2540000  81.6830000  23.6600000  27.6760000  83.5900000
  21.9370000  29.8710000  81.2480000  20.9270000  30.4820000  82.9230000
  20.5940000  28.8630000  96.0370000  21.6530000  30.5390000  95.4370000
  22.5980000  29.3320000  95.8240000  22.9120000  29.0490000  80.7960000
  24.2760000  27.7230000  81.3680000  21.4940000  30.4440000  80.6650000
  20.3750000  29.3730000  97.4920000  20.7330000  27.9060000  96.1190000
  19.7590000  29.0230000  95.5710000  23.1180000  29.0260000  79.8890000
  19.1730000  28.7840000  98.1800000  21.1960000  29.1800000  97.9710000
  20.2670000  30.3330000  97.4120000  18.9930000  29.3200000  99.6270000
  19.2900000  27.8250000  98.2730000  18.3550000  28.9620000  97.6900000
  17.7610000  28.7900000 100.3370000  19.8160000  29.1380000 100.1070000
  18.8880000  30.2780000  99.5230000  17.6400000  29.3640000 101.7630000
  17.8830000  27.8340000 100.4420000  16.9480000  28.9600000  99.8350000
  18.4590000  29.1990000 102.2560000  17.5160000  30.3190000 101.6520000
  16.4850000  28.7610000 102.5150000  16.3310000  29.3590000 103.9300000
  16.5680000  27.7980000 102.6000000  15.6450000  28.9720000 102.0780000
  17.1460000  29.1010000 104.3900000  15.1530000  28.8400000 104.6880000
  16.2990000  30.3250000 103.8480000  15.1900000  27.8800000 104.7590000
  15.1460000  29.2220000 105.5670000  14.3510000  29.0900000 104.2220000
  26.5100000  36.0210000  35.5360000  25.3460000  36.6010000  36.6810000
  25.4520000  36.5350000  34.2380000  25.3330000  36.5970000  38.1440000
  24.2130000  37.0690000  36.1250000  25.7720000  36.4640000  32.8650000
  24.2460000  37.0410000  34.6760000  26.2960000  36.1760000  39.0720000
  24.1640000  37.1670000  38.5850000  23.0650000  37.6700000  37.2850000
  24.8260000  36.8690000  31.9350000  26.5900000  36.1170000  32.5920000
  23.3090000  37.5010000  33.7250000  26.0170000  36.3710000  40.4290000
  27.0970000  35.8070000  38.7770000  23.8990000  37.4320000  39.9480000
  23.6140000  37.4230000  32.3640000  25.1480000  36.8610000  30.4710000
  22.5110000  37.8850000  34.0110000  24.8460000  37.0260000  40.8600000
  26.6050000  36.0050000  41.0500000  23.1200000  37.8730000  40.2010000
  22.9900000  37.7060000  31.7350000  26.1380000  36.0310000  29.9770000
  24.5200000  37.6910000  29.5750000  24.6670000  37.3330000  42.3520000
  26.4860000  36.0110000  28.6380000  26.5650000  35.4320000  30.5460000
  24.8420000  37.6270000  28.2030000  23.8320000  38.2390000  29.8790000
  23.5000000  36.6200000  42.9920000  24.5580000  38.2960000  42.3920000
  25.5030000  37.0890000  42.7800000  25.8180000  36.8060000  27.7510000
  27.1810000  35.4790000  28.3240000  24.3990000  38.2010000  27.6200000
  23.2800000  37.1290000  44.4480000  23.6380000  35.6630000  43.0750000
  22.6640000  36.7800000  42.5260000  26.0230000  36.7830000  26.8450000
  22.0790000  36.5410000  45.1360000  24.1010000  36.9370000  44.9270000
  23.1720000  38.0900000  44.3670000  21.8980000  37.0770000  46.5830000
  22.1960000  35.5820000  45.2280000  21.2610000  36.7190000  44.6450000
  20.6660000  36.5470000  47.2920000  22.7210000  36.8950000  47.0620000
  21.7930000  38.0350000  46.4790000  20.5450000  37.1210000  48.7180000
  20.7880000  35.5900000  47.3980000  19.8540000  36.7170000  46.7910000
  21.3640000  36.9560000  49.2120000  20.4210000  38.0760000  48.6070000
  19.3900000  36.5180000  49.4700000  19.2370000  37.1160000  50.8850000
  19.4740000  35.5550000  49.5550000  18.5510000  36.7290000  49.0330000
  20.0510000  36.8580000  51.3450000  18.0580000  36.5970000  51.6430000
  19.2040000  38.0810000  50.8030000  18.0950000  35.6370000  51.7140000
  18.0510000  36.9790000  52.5220000  17.2560000  36.8470000  51.1770000
  23.6050000  36.0210000  88.5810000  22.4400000  36.6010000  89.7250000
  22.5460000  36.5350000  87.2820000  22.4280000  36.5970000  91.1890000
  21.3080000  37.0690000  89.1700000  22.8670000  36.4640000  85.9100000
  21.3410000  37.0410000  87.7200000  23.3910000  36.1760000  92.1160000
  21.2580000  37.1670000  91.6300000  20.1590000  37.6700000  90.3290000
  21.9210000  36.8690000  84.9800000  23.6850000  36.1170000  85.6360000
  20.4040000  37.5010000  86.7690000  23.1110000  36.3710000  93.4740000
  24.1920000  35.8070000  91.8220000  20.9930000  37.4320000  92.9930000
  20.7090000  37.4230000  85.4090000  22.2420000  36.8610000  83.5150000
  19.6060000  37.8850000  87.0560000  21.9410000  37.0260000  93.9050000
  23.6990000  36.0050000  94.0950000  20.2150000  37.8730000  93.2460000
  20.0850000  37.7060000  84.7800000  23.2330000  36.0310000  83.0220000
  21.6150000  37.6910000  82.6190000  21.7620000  37.3330000  95.3960000
  23.5800000  36.0110000  81.6830000  23.6600000  35.4320000  83.5900000
  21.9370000  37.6270000  81.2480000  20.9270000  38.2390000  82.9230000
  20.5940000  36.6200000  96.0370000  21.6530000  38.2960000  95.4370000
  22.5980000  37.0890000  95.8240000  22.9120000  36.8060000  80.7960000
  24.2760000  35.4790000  81.3680000  21.4940000  38.2010000  80.6650000
  20.3750000  37.1290000  97.4920000  20.7330000  35.6630000  96.1190000
  19.7590000  36.7800000  95.5710000  23.1180000  36.7830000  79.8890000
  19.1730000  36.5410000  98.1800000  21.1960000  36.9370000  97.9710000
  20.2670000  38.0900000  97.4120000  18.9930000  37.0770000  99.6270000
  19.2900000  35.5820000  98.2730000  18.3550000  36.7190000  97.6900000
  17.7610000  36.5470000 100.3370000  19.8160000  36.8950000 100.1070000
  18.8880000  38.0350000  99.5230000  17.6400000  37.1210000 101.7630000
  17.8830000  35.5900000 100.4420000  16.9480000  36.7170000  99.8350000
  18.4590000  36.9560000 102.2560000  17.5160000  38.0760000 101.6520000
  16.4850000  36.5180000 102.5150000  16.3310000  37.1160000 103.9300000
  16.5680000  35.5550000 102.6000000  15.6450000  36.7290000 102.0780000
  17.1460000  36.8580000 104.3900000  15.1530000  36.5970000 104.6880000
  16.2990000  38.0810000 103.8480000  15.1900000  35.6370000 104.7590000
  15.1460000  36.9790000 105.5670000  14.3510000  36.8470000 104.2220000
  26.5100000  43.7780000  35.5360000  25.3460000  44.3580000  36.6810000
  25.4520000  44.2920000  34.2380000  25.3330000  44.3530000  38.1440000
  24.2130000  44.8260000  36.1250000  25.7720000  44.2210000  32.8650000
  24.2460000  44.7980000  34.6760000  26.2960000  43.9330000  39.0720000
  24.1640000  44.9240000  38.5850000  23.0650000  45.4270000  37.2850000
  24.8260000  44.6260000  31.9350000  26.5900000  43.8730000  32.5920000
  23.3090000  45.2580000  33.7250000  26.0170000  44.1280000  40.4290000
  27.0970000  43.5640000  38.7770000  23.8990000  45.1890000  39.9480000
  23.6140000  45.1790000  32.3640000  25.1480000  44.6180000  30.4710000
  22.5110000  45.6410000  34.0110000  24.8460000  44.7820000  40.8600000
  26.6050000  43.7620000  41.0500000  23.1200000  45.6300000  40.2010000
  22.9900000  45.4630000  31.7350000  26.1380000  43.7880000  29.9770000
  24.5200000  45.4480000  29.5750000  24.6670000  45.0900000  42.3520000
  26.4860000  43.7680000  28.6380000  26.5650000  43.1890000  30.5460000
  24.8420000  45.3840000  28.2030000  23.8320000  45.9960000  29.8790000
  23.5000000  44.3770000  42.9920000  24.5580000  46.0530000  42.3920000
  25.5030000  44.8460000  42.7800000  25.8180000  44.5630000  27.7510000
  27.1810000  43.2360000  28.3240000  24.3990000  45.9580000  27.6200000
  23.2800000  44.8860000  44.4480000  23.6380000  43.4200000  43.0750000
  22.6640000  44.5370000  42.5260000  26.0230000  44.5390000  26.8450000
  22.0790000  44.2980000  45.1360000  24.1010000  44.6940000  44.9270000
  23.1720000  45.8470000  44.3670000  21.8980000  44.8340000  46.5830000
  22.1960000  43.3390000  45.2280000  21.2610000  44.4760000  44.6450000
  20.6660000  44.3040000  47.2920000  22.7210000  44.6520000  47.0620000
  21.7930000  45.7920000  46.4790000  20.5450000  44.8780000  48.7180000
  20.7880000  43.3470000  47.3980000  19.8540000  44.4730000  46.7910000
  21.3640000  44.7130000  49.2120000  20.4210000  45.8330000  48.6070000
  19.3900000  44.2750000  49.4700000  19.2370000  44.8720000  50.8850000
  19.4740000  43.3120000  49.5550000  18.5510000  44.4860000  49.0330000
  20.0510000  44.6150000  51.3450000  18.0580000  44.3530000  51.6430000
  19.2040000  45.8380000  50.8030000  18.0950000  43.3930000  51.7140000
  18.0510000  44.7360000  52.5220000  17.2560000  44.6040000  51.1770000
  23.6050000  43.7780000  88.5810000  22.4400000  44.3580000  89.7250000
  22.5460000  44.2920000  87.2820000  22.4280000  44.3530000  91.1890000
  21.3080000  44.8260000  89.1700000  22.8670000  44.2210000  85.9100000
  21.3410000  44.7980000  87.7200000  23.3910000  43.9330000  92.1160000
  21.2580000  44.9240000  91.6300000  20.1590000  45.4270000  90.3290000
  21.9210000  44.6260000  84.9800000  23.6850000  43.8730000  85.6360000
  20.4040000  45.2580000  86.7690000  23.1110000  44.1280000  93.4740000
  24.1920000  43.5640000  91.8220000  20.9930000  45.1890000  92.9930000
  20.7090000  45.1790000  85.4090000  22.2420000  44.6180000  83.5150000
  19.6060000  45.6410000  87.0560000  21.9410000  44.7820000  93.9050000
  23.6990000  43.7620000  94.0950000  20.2150000  45.6300000  93.2460000
  20.0850000  45.4630000  84.7800000  23.2330000  43.7880000  83.0220000
  21.6150000  45.4480000  82.6190000  21.7620000  45.0900000  95.3960000
  23.5800000  43.7680000  81.6830000  23.6600000  43.1890000  83.5900000
  21.9370000  45.3840000  81.2480000  20.9270000  45.9960000  82.9230000
  20.5940000  44.3770000  96.0370000  21.6530000  46.0530000  95.4370000
  22.5980000  44.8460000  95.8240000  22.9120000  44.5630000  80.7960000
  24.2760000  43.2360000  81.3680000  21.4940000  45.9580000  80.6650000
  20.3750000  44.8860000  97.4920000  20.7330000  43.4200000  96.1190000
  19.7590000  44.5370000  95.5710000  23.1180000  44.5390000  79.8890000
  19.1730000  44.2980000  98.1800000  21.1960000  44.6940000  97.9710000
  20.2670000  45.8470000  97.4120000  18.9930000  44.8340000  99.6270000
  19.2900000  43.3390000  98.2730000  18.3550000  44.4760000  97.6900000
  17.7610000  44.3040000 100.3370000  19.8160000  44.6520000 100.1070000
  18.8880000  45.7920000  99.5230000  17.6400000  44.8780000 101.7630000
  17.8830000  43.3470000 100.4420000  16.9480000  44.4730000  99.8350000
  18.4590000  44.7130000 102.2560000  17.5160000  45.8330000 101.6520000
  16.4850000  44.2750000 102.5150000  16.3310000  44.8720000 103.9300000
  16.5680000  43.3120000 102.6000000  15.6450000  44.4860000 102.0780000
  17.1460000  44.6150000 104.3900000  15.1530000  44.3530000 104.6880000
  16.2990000  45.8380000 103.8480000  15.1900000  43.3930000 104.7590000
  15.1460000  44.7360000 105.5670000  14.3510000  44.6040000 104.2220000
  21.9850000   6.6410000  17.5080000  23.1490000   6.0610000  16.3640000
  23.0430000   6.1270000  18.8070000  23.1620000   6.0660000  14.9000000
  24.2820000   5.5930000  16.9190000  22.7230000   6.1980000  20.1790000
  24.2490000   5.6210000  18.3690000  22.1990000   6.4860000  13.9730000
  24.3310000   5.4960000  14.4590000  25.4300000   4.9920000  15.7600000
  23.6690000   5.7940000  21.1090000  21.9050000   6.5460000  20.4530000
  25.1860000   5.1610000  19.3200000  22.4790000   6.2920000  12.6150000
  21.3980000   6.8560000  14.2670000  24.5960000   5.2300000  13.0960000
  24.8810000   5.2400000  20.6800000  23.3480000   5.8010000  22.5740000
  25.9840000   4.7780000  19.0330000  23.6490000   5.6370000  12.1840000
  21.8900000   6.6570000  11.9940000  25.3750000   4.7890000  12.8430000
  25.5050000   4.9570000  21.3090000  22.3570000   6.6310000  23.0670000
  23.9750000   4.9710000  23.4700000  23.8280000   5.3300000  10.6930000
  22.0090000   6.6510000  24.4060000  21.9300000   7.2300000  22.4990000
  23.6530000   5.0350000  24.8410000  24.6630000   4.4240000  23.1660000
  24.9950000   6.0430000  10.0520000  23.9370000   4.3670000  10.6520000
  22.9920000   5.5730000  10.2650000  22.6770000   5.8560000  25.2930000
  21.3140000   7.1830000  24.7210000  24.0960000   4.4610000  25.4240000
  25.2150000   5.5330000   8.5970000  24.8570000   6.9990000   9.9700000
  25.8310000   5.8820000  10.5180000  22.4720000   5.8800000  26.2000000
  26.4170000   6.1220000   7.9090000  24.3940000   5.7260000   8.1180000
  25.3230000   4.5730000   8.6770000  26.5970000   5.5860000   6.4620000
  26.2990000   7.0800000   7.8160000  27.2340000   5.9430000   8.3990000
  27.8290000   6.1150000   5.7520000  25.7740000   5.7670000   5.9820000
  26.7020000   4.6270000   6.5660000  27.9500000   5.5410000   4.3260000
  27.7070000   7.0720000   5.6470000  28.6410000   5.9460000   6.2540000
  27.1310000   5.7070000   3.8330000  28.0740000   4.5860000   4.4370000
  29.1050000   6.1440000   3.5740000  29.2590000   5.5470000   2.1590000
  29.0210000   7.1070000   3.4890000  29.9450000   5.9330000   4.0110000
  28.4440000   5.8040000   1.6990000  30.4370000   6.0660000   1.4010000
  29.2910000   4.5810000   2.2410000  30.4000000   7.0260000   1.3300000
  30.4440000   5.6830000   0.5220000  31.2390000   5.8150000   1.8670000
  19.0800000   6.6410000  70.5530000  20.2440000   6.0610000  69.4080000
  20.1380000   6.1270000  71.8510000  20.2570000   6.0660000  67.9450000
  21.3770000   5.5930000  69.9640000  19.8170000   6.1980000  73.2240000
  21.3440000   5.6210000  71.4130000  19.2940000   6.4860000  67.0170000
  21.4260000   5.4960000  67.5040000  22.5250000   4.9920000  68.8040000
  20.7640000   5.7940000  74.1540000  18.9990000   6.5460000  73.4970000
  22.2810000   5.1610000  72.3640000  19.5730000   6.2920000  65.6600000
  18.4930000   6.8560000  67.3120000  21.6910000   5.2300000  66.1410000
  21.9750000   5.2400000  73.7250000  20.4420000   5.8010000  75.6180000
  23.0790000   4.7780000  72.0780000  20.7430000   5.6370000  65.2290000
  18.9850000   6.6570000  65.0390000  22.4690000   4.7890000  65.8880000
  22.6000000   4.9570000  74.3540000  19.4520000   6.6310000  76.1120000
  21.0700000   4.9710000  76.5140000  20.9220000   5.3300000  63.7370000
  19.1040000   6.6510000  77.4510000  19.0240000   7.2300000  75.5430000
  20.7470000   5.0350000  77.8860000  21.7580000   4.4240000  76.2100000
  22.0900000   6.0430000  63.0970000  21.0320000   4.3670000  63.6970000
  20.0860000   5.5730000  63.3090000  19.7720000   5.8560000  78.3380000
  18.4090000   7.1830000  77.7650000  21.1910000   4.4610000  78.4690000
  22.3100000   5.5330000  61.6410000  21.9520000   6.9990000  63.0140000
  22.9260000   5.8820000  63.5630000  19.5660000   5.8800000  79.2440000
  23.5110000   6.1220000  60.9530000  21.4880000   5.7260000  61.1620000
  22.4180000   4.5730000  61.7220000  23.6920000   5.5860000  59.5060000
  23.3940000   7.0800000  60.8610000  24.3290000   5.9430000  61.4440000
  24.9230000   6.1150000  58.7970000  22.8680000   5.7670000  59.0270000
  23.7970000   4.6270000  59.6100000  25.0450000   5.5410000  57.3710000
  24.8020000   7.0720000  58.6910000  25.7360000   5.9460000  59.2980000
  24.2260000   5.7070000  56.8770000  25.1690000   4.5860000  57.4820000
  26.2000000   6.1440000  56.6190000  26.3530000   5.5470000  55.2040000
  26.1160000   7.1070000  56.5340000  27.0390000   5.9330000  57.0560000
  25.5380000   5.8040000  54.7440000  27.5320000   6.0660000  54.4460000
  26.3860000   4.5810000  55.2860000  27.4950000   7.0260000  54.3750000
  27.5380000   5.6830000  53.5670000  28.3330000   5.8150000  54.9120000
  21.9850000  14.3980000  17.5080000  23.1490000  13.8180000  16.3640000
  23.0430000  13.8840000  18.8070000  23.1620000  13.8230000  14.9000000
  24.2820000  13.3500000  16.9190000  22.7230000  13.9550000  20.1790000
  24.2490000  13.3780000  18.3690000  22.1990000  14.2430000  13.9730000
  24.3310000  13.2520000  14.4590000  25.4300000  12.7490000  15.7600000
  23.6690000  13.5500000  21.1090000  21.9050000  14.3030000  20.4530000
  25.1860000  12.9180000  19.3200000  22.4790000  14.0480000  12.6150000
  21.3980000  14.6120000  14.2670000  24.5960000  12.9870000  13.0960000
  24.8810000  12.9970000  20.6800000  23.3480000  13.5580000  22.5740000
  25.9840000  12.5350000  19.0330000  23.6490000  13.3940000  12.1840000
  21.8900000  14.4140000  11.9940000  25.3750000  12.5460000  12.8430000
  25.5050000  12.7130000  21.3090000  22.3570000  14.3880000  23.0670000
  23.9750000  12.7280000  23.4700000  23.8280000  13.0860000  10.6930000
  22.0090000  14.4080000  24.4060000  21.9300000  14.9870000  22.4990000
  23.6530000  12.7920000  24.8410000  24.6630000  12.1800000  23.1660000
  24.9950000  13.7990000  10.0520000  23.9370000  12.1230000  10.6520000
  22.9920000  13.3300000  10.2650000  22.6770000  13.6130000  25.2930000
  21.3140000  14.9400000  24.7210000  24.0960000  12.2180000  25.4240000
  25.2150000  13.2900000   8.5970000  24.8570000  14.7560000   9.9700000
  25.8310000  13.6390000  10.5180000  22.4720000  13.6370000  26.2000000
  26.4170000  13.8780000   7.9090000  24.3940000  13.4820000   8.1180000
  25.3230000  12.3290000   8.6770000  26.5970000  13.3420000   6.4620000
  26.2990000  14.8370000   7.8160000  27.2340000  13.7000000   8.3990000
  27.8290000  13.8720000   5.7520000  25.7740000  13.5240000   5.9820000
  26.7020000  12.3840000   6.5660000  27.9500000  13.2980000   4.3260000
  27.7070000  14.8290000   5.6470000  28.6410000  13.7030000   6.2540000
  27.1310000  13.4630000   3.8330000  28.0740000  12.3430000   4.4370000
  29.1050000  13.9010000   3.5740000  29.2590000  13.3040000   2.1590000
  29.0210000  14.8640000   3.4890000  29.9450000  13.6900000   4.0110000
  28.4440000  13.5610000   1.6990000  30.4370000  13.8230000   1.4010000
  29.2910000  12.3380000   2.2410000  30.4000000  14.7830000   1.3300000
  30.4440000  13.4400000   0.5220000  31.2390000  13.5720000   1.8670000
  19.0800000  14.3980000  70.5530000  20.2440000  13.8180000  69.4080000
  20.1380000  13.8840000  71.8510000  20.2570000  13.8230000  67.9450000
  21.3770000  13.3500000  69.9640000  19.8170000  13.9550000  73.2240000
  21.3440000  13.3780000  71.4130000  19.2940000  14.2430000  67.0170000
  21.4260000  13.2520000  67.5040000  22.5250000  12.7490000  68.8040000
  20.7640000  13.5500000  74.1540000  18.9990000  14.3030000  73.4970000
  22.2810000  12.9180000  72.3640000  19.5730000  14.0480000  65.6600000
  18.4930000  14.6120000  67.3120000  21.6910000  12.9870000  66.1410000
  21.9750000  12.9970000  73.7250000  20.4420000  13.5580000  75.6180000
  23.0790000  12.5350000  72.0780000  20.7430000  13.3940000  65.2290000
  18.9850000  14.4140000  65.0390000  22.4690000  12.5460000  65.8880000
  22.6000000  12.7130000  74.3540000  19.4520000  14.3880000  76.1120000
  21.0700000  12.7280000  76.5140000  20.9220000  13.0860000  63.7370000
  19.1040000  14.4080000  77.4510000  19.0240000  14.9870000  75.5430000
  20.7470000  12.7920000  77.8860000  21.7580000  12.1800000  76.2100000
  22.0900000  13.7990000  63.0970000  21.0320000  12.1230000  63.6970000
  20.0860000  13.3300000  63.3090000  19.7720000  13.6130000  78.3380000
  18.4090000  14.9400000  77.7650000  21.1910000  12.2180000  78.4690000
  22.3100000  13.2900000  61.6410000  21.9520000  14.7560000  63.0140000
  22.9260000  13.6390000  63.5630000  19.5660000  13.6370000  79.2440000
  23.5110000  13.8780000  60.9530000  21.4880000  13.4820000  61.1620000
  22.4180000  12.3290000  61.7220000  23.6920000  13.3420000  59.5060000
  23.3940000  14.8370000  60.8610000  24.3290000  13.7000000  61.4440000
  24.9230000  13.8720000  58.7970000  22.8680000  13.5240000  59.0270000
  23.7970000  12.3840000  59.6100000  25.0450000  13.2980000  57.3710000
  24.8020000  14.8290000  58.6910000  25.7360000  13.7030000  59.2980000
  24.2260000  13.4630000  56.8770000  25.1690000  12.3430000  57.4820000
  26.2000000  13.9010000  56.6190000  26.3530000  13.3040000  55.2040000
  26.1160000  14.8640000  56.5340000  27.0390000  13.6900000  57.0560000
  25.5380000  13.5610000  54.7440000  27.5320000  13.8230000  54.4460000
  26.3860000  12.3380000  55.2860000  27.4950000  14.7830000  54.3750000
  27.5380000  13.4400000  53.5670000  28.3330000  13.5720000  54.9120000
  21.9850000  22.1550000  17.5080000  23.1490000  21.5750000  16.3640000
  23.0430000  21.6410000  18.8070000  23.1620000  21.5790000  14.9000000
  24.2820000  21.1070000  16.9190000  22.7230000  21.7120000  20.1790000
  24.2490000  21.1350000  18.3690000  22.1990000  22.0000000  13.9730000
  24.3310000  21.0090000  14.4590000  25.4300000  20.5060000  15.7600000
  23.6690000  21.3070000  21.1090000  21.9050000  22.0590000  20.4530000
  25.1860000  20.6750000  19.3200000  22.4790000  21.8050000  12.6150000
  21.3980000  22.3690000  14.2670000  24.5960000  20.7440000  13.0960000
  24.8810000  20.7530000  20.6800000  23.3480000  21.3150000  22.5740000
  25.9840000  20.2910000  19.0330000  23.6490000  21.1500000  12.1840000
  21.8900000  22.1710000  11.9940000  25.3750000  20.3030000  12.8430000
  25.5050000  20.4700000  21.3090000  22.3570000  22.1450000  23.0670000
  23.9750000  20.4850000  23.4700000  23.8280000  20.8430000  10.6930000
  22.0090000  22.1650000  24.4060000  21.9300000  22.7440000  22.4990000
  23.6530000  20.5490000  24.8410000  24.6630000  19.9370000  23.1660000
  24.9950000  21.5560000  10.0520000  23.9370000  19.8800000  10.6520000
  22.9920000  21.0870000  10.2650000  22.6770000  21.3700000  25.2930000
  21.3140000  22.6970000  24.7210000  24.0960000  19.9750000  25.4240000
  25.2150000  21.0470000   8.5970000  24.8570000  22.5130000   9.9700000
  25.8310000  21.3960000  10.5180000  22.4720000  21.3930000  26.2000000
  26.4170000  21.6350000   7.9090000  24.3940000  21.2390000   8.1180000
  25.3230000  20.0860000   8.6770000  26.5970000  21.0990000   6.4620000
  26.2990000  22.5940000   7.8160000  27.2340000  21.4570000   8.3990000
  27.8290000  21.6290000   5.7520000  25.7740000  21.2810000   5.9820000
  26.7020000  20.1410000   6.5660000  27.9500000  21.0550000   4.3260000
  27.7070000  22.5860000   5.6470000  28.6410000  21.4590000   6.2540000
  27.1310000  21.2200000   3.8330000  28.0740000  20.1000000   4.4370000
  29.1050000  21.6580000   3.5740000  29.2590000  21.0600000   2.1590000
  29.0210000  22.6210000   3.4890000  29.9450000  21.4470000   4.0110000
  28.4440000  21.3180000   1.6990000  30.4370000  21.5790000   1.4010000
  29.2910000  20.0950000   2.2410000  30.4000000  22.5390000   1.3300000
  30.4440000  21.1970000   0.5220000  31.2390000  21.3290000   1.8670000
  19.0800000  22.1550000  70.5530000  20.2440000  21.5750000  69.4080000
  20.1380000  21.6410000  71.8510000  20.2570000  21.5790000  67.9450000
  21.3770000  21.1070000  69.9640000  19.8170000  21.7120000  73.2240000
  21.3440000  21.1350000  71.4130000  19.2940000  22.0000000  67.0170000
  21.4260000  21.0090000  67.5040000  22.5250000  20.5060000  68.8040000
  20.7640000  21.3070000  74.1540000  18.9990000  22.0590000  73.4970000
  22.2810000  20.6750000  72.3640000  19.5730000  21.8050000  65.6600000
  18.4930000  22.3690000  67.3120000  21.6910000  20.7440000  66.1410000
  21.9750000  20.7530000  73.7250000  20.4420000  21.3150000  75.6180000
  23.0790000  20.2910000  72.0780000  20.7430000  21.1500000  65.2290000
  18.9850000  22.1710000  65.0390000  22.4690000  20.3030000  65.8880000
  22.6000000  20.4700000  74.3540000  19.4520000  22.1450000  76.1120000
  21.0700000  20.4850000  76.5140000  20.9220000  20.8430000  63.7370000
  19.1040000  22.1650000  77.4510000  19.0240000  22.7440000  75.5430000
  20.7470000  20.5490000  77.8860000  21.7580000  19.9370000  76.2100000
  22.0900000  21.5560000  63.0970000  21.0320000  19.8800000  63.6970000
  20.0860000  21.0870000  63.3090000  19.7720000  21.3700000  78.3380000
  18.4090000  22.6970000  77.7650000  21.1910000  19.9750000  78.4690000
  22.3100000  21.0470000  61.6410000  21.9520000  22.5130000  63.0140000
  22.9260000  21.3960000  63.5630000  19.5660000  21.3930000  79.2440000
  23.5110000  21.6350000  60.9530000  21.4880000  21.2390000  61.1620000
  22.4180000  20.0860000  61.7220000  23.6920000  21.0990000  59.5060000
  23.3940000  22.5940000  60.8610000  24.3290000  21.4570000  61.4440000
  24.9230000  21.6290000  58.7970000  22.8680000  21.2810000  59.0270000
  23.7970000  20.1410000  59.6100000  25.0450000  21.0550000  57.3710000
  24.8020000  22.5860000  58.6910000  25.7360000  21.4590000  59.2980000
  24.2260000  21.2200000  56.8770000  25.1690000  20.1000000  57.4820000
  26.2000000  21.6580000  56.6190000  26.3530000  21.0600000  55.2040000
  26.1160000  22.6210000  56.5340000  27.0390000  21.4470000  57.0560000
  25.5380000  21.3180000  54.7440000  27.5320000  21.5790000  54.4460000
  26.3860000  20.0950000  55.2860000  27.4950000  22.5390000  54.3750000
  27.5380000  21.1970000  53.5670000  28.3330000  21.3290000  54.9120000
  21.9850000  29.9120000  17.5080000  23.1490000  29.3320000  16.3640000
  23.0430000  29.3970000  18.8070000  23.1620000  29.3360000  14.9000000
  24.2820000  28.8640000  16.9190000  22.7230000  29.4690000  20.1790000
  24.2490000  28.8920000  18.3690000  22.1990000  29.7570000  13.9730000
  24.3310000  28.7660000  14.4590000  25.4300000  28.2630000  15.7600000
  23.6690000  29.0640000  21.1090000  21.9050000  29.8160000  20.4530000
  25.1860000  28.4320000  19.3200000  22.4790000  29.5620000  12.6150000
  21.3980000  30.1260000  14.2670000  24.5960000  28.5010000  13.0960000
  24.8810000  28.5100000  20.6800000  23.3480000  29.0720000  22.5740000
  25.9840000  28.0480000  19.0330000  23.6490000  28.9070000  12.1840000
  21.8900000  29.9280000  11.9940000  25.3750000  28.0600000  12.8430000
  25.5050000  28.2270000  21.3090000  22.3570000  29.9020000  23.0670000
  23.9750000  28.2420000  23.4700000  23.8280000  28.6000000  10.6930000
  22.0090000  29.9220000  24.4060000  21.9300000  30.5000000  22.4990000
  23.6530000  28.3050000  24.8410000  24.6630000  27.6940000  23.1660000
  24.9950000  29.3130000  10.0520000  23.9370000  27.6370000  10.6520000
  22.9920000  28.8440000  10.2650000  22.6770000  29.1270000  25.2930000
  21.3140000  30.4530000  24.7210000  24.0960000  27.7320000  25.4240000
  25.2150000  28.8030000   8.5970000  24.8570000  30.2700000   9.9700000
  25.8310000  29.1530000  10.5180000  22.4720000  29.1500000  26.2000000
  26.4170000  29.3920000   7.9090000  24.3940000  28.9960000   8.1180000
  25.3230000  27.8430000   8.6770000  26.5970000  28.8560000   6.4620000
  26.2990000  30.3510000   7.8160000  27.2340000  29.2140000   8.3990000
  27.8290000  29.3860000   5.7520000  25.7740000  29.0380000   5.9820000
  26.7020000  27.8980000   6.5660000  27.9500000  28.8120000   4.3260000
  27.7070000  30.3420000   5.6470000  28.6410000  29.2160000   6.2540000
  27.1310000  28.9770000   3.8330000  28.0740000  27.8570000   4.4370000
  29.1050000  29.4150000   3.5740000  29.2590000  28.8170000   2.1590000
  29.0210000  30.3780000   3.4890000  29.9450000  29.2040000   4.0110000
  28.4440000  29.0750000   1.6990000  30.4370000  29.3360000   1.4010000
  29.2910000  27.8510000   2.2410000  30.4000000  30.2960000   1.3300000
  30.4440000  28.9540000   0.5220000  31.2390000  29.0860000   1.8670000
  19.0800000  29.9120000  70.5530000  20.2440000  29.3320000  69.4080000
  20.1380000  29.3970000  71.8510000  20.2570000  29.3360000  67.9450000
  21.3770000  28.8640000  69.9640000  19.8170000  29.4690000  73.2240000
  21.3440000  28.8920000  71.4130000  19.2940000  29.7570000  67.0170000
  21.4260000  28.7660000  67.5040000  22.5250000  28.2630000  68.8040000
  20.7640000  29.0640000  74.1540000  18.9990000  29.8160000  73.4970000
  22.2810000  28.4320000  72.3640000  19.5730000  29.5620000  65.6600000
  18.4930000  30.1260000  67.3120000  21.6910000  28.5010000  66.1410000
  21.9750000  28.5100000  73.7250000  20.4420000  29.0720000  75.6180000
  23.0790000  28.0480000  72.0780000  20.7430000  28.9070000  65.2290000
  18.9850000  29.9280000  65.0390000  22.4690000  28.0600000  65.8880000
  22.6000000  28.2270000  74.3540000  19.4520000  29.9020000  76.1120000
  21.0700000  28.2420000  76.5140000  20.9220000  28.6000000  63.7370000
  19.1040000  29.9220000  77.4510000  19.0240000  30.5000000  75.5430000
  20.7470000  28.3050000  77.8860000  21.7580000  27.6940000  76.2100000
  22.0900000  29.3130000  63.0970000  21.0320000  27.6370000  63.6970000
  20.0860000  28.8440000  63.3090000  19.7720000  29.1270000  78.3380000
  18.4090000  30.4530000  77.7650000  21.1910000  27.7320000  78.4690000
  22.3100000  28.8030000  61.6410000  21.9520000  30.2700000  63.0140000
  22.9260000  29.1530000  63.5630000  19.5660000  29.1500000  79.2440000
  23.5110000  29.3920000  60.9530000  21.4880000  28.9960000  61.1620000
  22.4180000  27.8430000  61.7220000  23.6920000  28.8560000  59.5060000
  23.3940000  30.3510000  60.8610000  24.3290000  29.2140000  61.4440000
  24.9230000  29.3860000  58.7970000  22.8680000  29.0380000  59.0270000
  23.7970000  27.8980000  59.6100000  25.0450000  28.8120000  57.3710000
  24.8020000  30.3420000  58.6910000  25.7360000  29.2160000  59.2980000
  24.2260000  28.9770000  56.8770000  25.1690000  27.8570000  57.4820000
  26.2000000  29.4150000  56.6190000  26.3530000  28.8170000  55.2040000
  26.1160000  30.3780000  56.5340000  27.0390000  29.2040000  57.0560000
  25.5380000  29.0750000  54.7440000  27.5320000  29.3360000  54.4460000
  26.3860000  27.8510000  55.2860000  27.4950000  30.2960000  54.3750000
  27.5380000  28.9540000  53.5670000  28.3330000  29.0860000  54.9120000
  21.9850000  37.6690000  17.5080000  23.1490000  37.0880000  16.3640000
  23.0430000  37.1540000  18.8070000  23.1620000  37.0930000  14.9000000
  24.2820000  36.6210000  16.9190000  22.7230000  37.2260000  20.1790000
  24.2490000  36.6490000  18.3690000  22.1990000  37.5130000  13.9730000
  24.3310000  36.5230000  14.4590000  25.4300000  36.0190000  15.7600000
  23.6690000  36.8210000  21.1090000  21.9050000  37.5730000  20.4530000
  25.1860000  36.1890000  19.3200000  22.4790000  37.3190000  12.6150000
  21.3980000  37.8830000  14.2670000  24.5960000  36.2580000  13.0960000
  24.8810000  36.2670000  20.6800000  23.3480000  36.8290000  22.5740000
  25.9840000  35.8050000  19.0330000  23.6490000  36.6640000  12.1840000
  21.8900000  37.6840000  11.9940000  25.3750000  35.8160000  12.8430000
  25.5050000  35.9840000  21.3090000  22.3570000  37.6580000  23.0670000
  23.9750000  35.9990000  23.4700000  23.8280000  36.3570000  10.6930000
  22.0090000  37.6790000  24.4060000  21.9300000  38.2570000  22.4990000
  23.6530000  36.0620000  24.8410000  24.6630000  35.4510000  23.1660000
  24.9950000  37.0700000  10.0520000  23.9370000  35.3940000  10.6520000
  22.9920000  36.6000000  10.2650000  22.6770000  36.8840000  25.2930000
  21.3140000  38.2100000  24.7210000  24.0960000  35.4890000  25.4240000
  25.2150000  36.5600000   8.5970000  24.8570000  38.0270000   9.9700000
  25.8310000  36.9100000  10.5180000  22.4720000  36.9070000  26.2000000
  26.4170000  37.1490000   7.9090000  24.3940000  36.7530000   8.1180000
  25.3230000  35.6000000   8.6770000  26.5970000  36.6130000   6.4620000
  26.2990000  38.1080000   7.8160000  27.2340000  36.9700000   8.3990000
  27.8290000  37.1430000   5.7520000  25.7740000  36.7950000   5.9820000
  26.7020000  35.6540000   6.5660000  27.9500000  36.5690000   4.3260000
  27.7070000  38.0990000   5.6470000  28.6410000  36.9730000   6.2540000
  27.1310000  36.7340000   3.8330000  28.0740000  35.6130000   4.4370000
  29.1050000  37.1710000   3.5740000  29.2590000  36.5740000   2.1590000
  29.0210000  38.1340000   3.4890000  29.9450000  36.9610000   4.0110000
  28.4440000  36.8320000   1.6990000  30.4370000  37.0930000   1.4010000
  29.2910000  35.6080000   2.2410000  30.4000000  38.0530000   1.3300000
  30.4440000  36.7110000   0.5220000  31.2390000  36.8420000   1.8670000
  19.0800000  37.6690000  70.5530000  20.2440000  37.0880000  69.4080000
  20.1380000  37.1540000  71.8510000  20.2570000  37.0930000  67.9450000
  21.3770000  36.6210000  69.9640000  19.8170000  37.2260000  73.2240000
  21.3440000  36.6490000  71.4130000  19.2940000  37.5130000  67.0170000
  21.4260000  36.5230000  67.5040000  22.5250000  36.0190000  68.8040000
  20.7640000  36.8210000  74.1540000  18.9990000  37.5730000  73.4970000
  22.2810000  36.1890000  72.3640000  19.5730000  37.3190000  65.6600000
  18.4930000  37.8830000  67.3120000  21.6910000  36.2580000  66.1410000
  21.9750000  36.2670000  73.7250000  20.4420000  36.8290000  75.6180000
  23.0790000  35.8050000  72.0780000  20.7430000  36.6640000  65.2290000
  18.9850000  37.6840000  65.0390000  22.4690000  35.8160000  65.8880000
  22.6000000  35.9840000  74.3540000  19.4520000  37.6580000  76.1120000
  21.0700000  35.9990000  76.5140000  20.9220000  36.3570000  63.7370000
  19.1040000  37.6790000  77.4510000  19.0240000  38.2570000  75.5430000
  20.7470000  36.0620000  77.8860000  21.7580000  35.4510000  76.2100000
  22.0900000  37.0700000  63.0970000  21.0320000  35.3940000  63.6970000
  20.0860000  36.6000000  63.3090000  19.7720000  36.8840000  78.3380000
  18.4090000  38.2100000  77.7650000  21.1910000  35.4890000  78.4690000
  22.3100000  36.5600000  61.6410000  21.9520000  38.0270000  63.0140000
  22.9260000  36.9100000  63.5630000  19.5660000  36.9070000  79.2440000
  23.5110000  37.1490000  60.9530000  21.4880000  36.7530000  61.1620000
  22.4180000  35.6000000  61.7220000  23.6920000  36.6130000  59.5060000
  23.3940000  38.1080000  60.8610000  24.3290000  36.9700000  61.4440000
  24.9230000  37.1430000  58.7970000  22.8680000  36.7950000  59.0270000
  23.7970000  35.6540000  59.6100000  25.0450000  36.5690000  57.3710000
  24.8020000  38.0990000  58.6910000  25.7360000  36.9730000  59.2980000
  24.2260000  36.7340000  56.8770000  25.1690000  35.6130000  57.4820000
  26.2000000  37.1710000  56.6190000  26.3530000  36.5740000  55.2040000
  26.1160000  38.1340000  56.5340000  27.0390000  36.9610000  57.0560000
  25.5380000  36.8320000  54.7440000  27.5320000  37.0930000  54.4460000
  26.3860000  35.6080000  55.2860000  27.4950000  38.0530000  54.3750000
  27.5380000  36.7110000  53.5670000  28.3330000  36.8420000  54.9120000
  21.9850000  45.4250000  17.5080000  23.1490000  44.8450000  16.3640000
  23.0430000  44.9110000  18.8070000  23.1620000  44.8500000  14.9000000
  24.2820000  44.3770000  16.9190000  22.7230000  44.9820000  20.1790000
  24.2490000  44.4050000  18.3690000  22.1990000  45.2700000  13.9730000
  24.3310000  44.2800000  14.4590000  25.4300000  43.7760000  15.7600000
  23.6690000  44.5780000  21.1090000  21.9050000  45.3300000  20.4530000
  25.1860000  43.9450000  19.3200000  22.4790000  45.0760000  12.6150000
  21.3980000  45.6400000  14.2670000  24.5960000  44.0140000  13.0960000
  24.8810000  44.0240000  20.6800000  23.3480000  44.5850000  22.5740000
  25.9840000  43.5620000  19.0330000  23.6490000  44.4210000  12.1840000
  21.8900000  45.4410000  11.9940000  25.3750000  43.5730000  12.8430000
  25.5050000  43.7410000  21.3090000  22.3570000  45.4150000  23.0670000
  23.9750000  43.7550000  23.4700000  23.8280000  44.1140000  10.6930000
  22.0090000  45.4350000  24.4060000  21.9300000  46.0140000  22.4990000
  23.6530000  43.8190000  24.8410000  24.6630000  43.2080000  23.1660000
  24.9950000  44.8270000  10.0520000  23.9370000  43.1510000  10.6520000
  22.9920000  44.3570000  10.2650000  22.6770000  44.6400000  25.2930000
  21.3140000  45.9670000  24.7210000  24.0960000  43.2450000  25.4240000
  25.2150000  44.3170000   8.5970000  24.8570000  45.7830000   9.9700000
  25.8310000  44.6660000  10.5180000  22.4720000  44.6640000  26.2000000
  26.4170000  44.9060000   7.9090000  24.3940000  44.5100000   8.1180000
  25.3230000  43.3570000   8.6770000  26.5970000  44.3700000   6.4620000
  26.2990000  45.8640000   7.8160000  27.2340000  44.7270000   8.3990000
  27.8290000  44.8990000   5.7520000  25.7740000  44.5510000   5.9820000
  26.7020000  43.4110000   6.5660000  27.9500000  44.3250000   4.3260000
  27.7070000  45.8560000   5.6470000  28.6410000  44.7300000   6.2540000
  27.1310000  44.4910000   3.8330000  28.0740000  43.3700000   4.4370000
  29.1050000  44.9280000   3.5740000  29.2590000  44.3310000   2.1590000
  29.0210000  45.8910000   3.4890000  29.9450000  44.7170000   4.0110000
  28.4440000  44.5880000   1.6990000  30.4370000  44.8500000   1.4010000
  29.2910000  43.3650000   2.2410000  30.4000000  45.8100000   1.3300000
  30.4440000  44.4670000   0.5220000  31.2390000  44.5990000   1.8670000
  19.0800000  45.4250000  70.5530000  20.2440000  44.8450000  69.4080000
  20.1380000  44.9110000  71.8510000  20.2570000  44.8500000  67.9450000
  21.3770000  44.3770000  69.9640000  19.8170000  44.9820000  73.2240000
  21.3440000  44.4050000  71.4130000  19.2940000  45.2700000  67.0170000
  21.4260000  44.2800000  67.5040000  22.5250000  43.7760000  68.8040000
  20.7640000  44.5780000  74.1540000  18.9990000  45.3300000  73.4970000
  22.2810000  43.9450000  72.3640000  19.5730000  45.0760000  65.6600000
  18.4930000  45.6400000  67.3120000  21.6910000  44.0140000  66.1410000
  21.9750000  44.0240000  73.7250000  20.4420000  44.5850000  75.6180000
  23.0790000  43.5620000  72.0780000  20.7430000  44.4210000  65.2290000
  18.9850000  45.4410000  65.0390000  22.4690000  43.5730000  65.8880000
  22.6000000  43.7410000  74.3540000  19.4520000  45.4150000  76.1120000
  21.0700000  43.7550000  76.5140000  20.9220000  44.1140000  63.7370000
  19.1040000  45.4350000  77.4510000  19.0240000  46.0140000  75.5430000
  20.7470000  43.8190000  77.8860000  21.7580000  43.2080000  76.2100000
  22.0900000  44.8270000  63.0970000  21.0320000  43.1510000  63.6970000
  20.0860000  44.3570000  63.3090000  19.7720000  44.6400000  78.3380000
  18.4090000  45.9670000  77.7650000  21.1910000  43.2450000  78.4690000
  22.3100000  44.3170000  61.6410000  21.9520000  45.7830000  63.0140000
  22.9260000  44.6660000  63.5630000  19.5660000  44.6640000  79.2440000
  23.5110000  44.9060000  60.9530000  21.4880000  44.5100000  61.1620000
  22.4180000  43.3570000  61.7220000  23.6920000  44.3700000  59.5060000
  23.3940000  45.8640000  60.8610000  24.3290000  44.7270000  61.4440000
  24.9230000  44.8990000  58.7970000  22.8680000  44.5510000  59.0270000
  23.7970000  43.4110000  59.6100000  25.0450000  44.3250000  57.3710000
  24.8020000  45.8560000  58.6910000  25.7360000  44.7300000  59.2980000
  24.2260000  44.4910000  56.8770000  25.1690000  43.3700000  57.4820000
  26.2000000  44.9280000  56.6190000  26.3530000  44.3310000  55.2040000
  26.1160000  45.8910000  56.5340000  27.0390000  44.7170000  57.0560000
  25.5380000  44.5880000  54.7440000  27.5320000  44.8500000  54.4460000
  26.3860000  43.3650000  55.2860000  27.4950000  45.8100000  54.3750000
  27.5380000  44.4670000  53.5670000  28.3330000  44.5990000  54.9120000
  29.5340000  10.5200000  35.5360000  28.3690000   9.9400000  36.6810000
  28.4750000  10.0050000  34.2380000  28.3570000   9.9440000  38.1440000
  27.2370000   9.4720000  36.1250000  28.7960000  10.0770000  32.8650000
  27.2700000   9.5000000  34.6760000  29.3190000  10.3650000  39.0720000
  27.1870000   9.3740000  38.5850000  26.0880000   8.8710000  37.2850000
  27.8500000   9.6720000  31.9350000  29.6140000  10.4240000  32.5920000
  26.3320000   9.0400000  33.7250000  29.0400000  10.1700000  40.4290000
  30.1210000  10.7340000  38.7770000  26.9220000   9.1090000  39.9480000
  26.6380000   9.1180000  32.3640000  28.1710000   9.6800000  30.4710000
  25.5350000   8.6560000  34.0110000  27.8700000   9.5150000  40.8600000
  29.6280000  10.5360000  41.0500000  26.1440000   8.6680000  40.2010000
  26.0130000   8.8350000  31.7350000  29.1610000  10.5100000  29.9770000
  27.5440000   8.8500000  29.5750000  27.6910000   9.2080000  42.3520000
  29.5090000  10.5300000  28.6380000  29.5890000  11.1080000  30.5460000
  27.8660000   8.9130000  28.2030000  26.8560000   8.3020000  29.8790000
  26.5230000   9.9210000  42.9920000  27.5820000   8.2450000  42.3920000
  28.5270000   9.4520000  42.7800000  28.8410000   9.7350000  27.7510000
  30.2050000  11.0610000  28.3240000  27.4230000   8.3400000  27.6200000
  26.3040000   9.4110000  44.4480000  26.6610000  10.8780000  43.0750000
  25.6880000   9.7610000  42.5260000  29.0470000   9.7580000  26.8450000
  25.1020000  10.0000000  45.1360000  27.1250000   9.6040000  44.9270000
  26.1950000   8.4510000  44.3670000  24.9220000   9.4640000  46.5830000
  25.2190000  10.9590000  45.2280000  24.2840000   9.8220000  44.6450000
  23.6900000   9.9940000  47.2920000  25.7450000   9.6460000  47.0620000
  24.8160000   8.5060000  46.4790000  23.5690000   9.4200000  48.7180000
  23.8120000  10.9500000  47.3980000  22.8770000   9.8240000  46.7910000
  24.3870000   9.5850000  49.2120000  23.4440000   8.4650000  48.6070000
  22.4140000  10.0230000  49.4700000  22.2600000   9.4250000  50.8850000
  22.4970000  10.9860000  49.5550000  21.5740000   9.8120000  49.0330000
  23.0750000   9.6830000  51.3450000  21.0820000   9.9440000  51.6430000
  22.2280000   8.4590000  50.8030000  21.1180000  10.9040000  51.7140000
  21.0750000   9.5620000  52.5220000  20.2800000   9.6940000  51.1770000
  26.6280000  10.5200000  88.5810000  25.4640000   9.9400000  89.7250000
  25.5700000  10.0050000  87.2820000  25.4510000   9.9440000  91.1890000
  24.3310000   9.4720000  89.1700000  25.8910000  10.0770000  85.9100000
  24.3640000   9.5000000  87.7200000  26.4140000  10.3650000  92.1160000
  24.2820000   9.3740000  91.6300000  23.1830000   8.8710000  90.3290000
  24.9440000   9.6720000  84.9800000  26.7090000  10.4240000  85.6360000
  23.4270000   9.0400000  86.7690000  26.1350000  10.1700000  93.4740000
  27.2150000  10.7340000  91.8220000  24.0170000   9.1090000  92.9930000
  23.7330000   9.1180000  85.4090000  25.2660000   9.6800000  83.5150000
  22.6290000   8.6560000  87.0560000  24.9650000   9.5150000  93.9050000
  26.7230000  10.5360000  94.0950000  23.2390000   8.6680000  93.2460000
  23.1080000   8.8350000  84.7800000  26.2560000  10.5100000  83.0220000
  24.6380000   8.8500000  82.6190000  24.7860000   9.2080000  95.3960000
  26.6040000  10.5300000  81.6830000  26.6840000  11.1080000  83.5900000
  24.9610000   8.9130000  81.2480000  23.9500000   8.3020000  82.9230000
  23.6180000   9.9210000  96.0370000  24.6760000   8.2450000  95.4370000
  25.6220000   9.4520000  95.8240000  25.9360000   9.7350000  80.7960000
  27.2990000  11.0610000  81.3680000  24.5170000   8.3400000  80.6650000
  23.3990000   9.4110000  97.4920000  23.7560000  10.8780000  96.1190000
  22.7820000   9.7610000  95.5710000  26.1420000   9.7580000  79.8890000
  22.1970000  10.0000000  98.1800000  24.2200000   9.6040000  97.9710000
  23.2900000   8.4510000  97.4120000  22.0170000   9.4640000  99.6270000
  22.3140000  10.9590000  98.2730000  21.3790000   9.8220000  97.6900000
  20.7850000   9.9940000 100.3370000  22.8400000   9.6460000 100.1070000
  21.9110000   8.5060000  99.5230000  20.6640000   9.4200000 101.7630000
  20.9060000  10.9500000 100.4420000  19.9720000   9.8240000  99.8350000
  21.4820000   9.5850000 102.2560000  20.5390000   8.4650000 101.6520000
  19.5080000  10.0230000 102.5150000  19.3550000   9.4250000 103.9300000
  19.5920000  10.9860000 102.6000000  18.6690000   9.8120000 102.0780000
  20.1700000   9.6830000 104.3900000  18.1760000   9.9440000 104.6880000
  19.3220000   8.4590000 103.8480000  18.2130000  10.9040000 104.7590000
  18.1700000   9.5620000 105.5670000  17.3750000   9.6940000 104.2220000
  29.5340000  18.2770000  35.5360000  28.3690000  17.6960000  36.6810000
  28.4750000  17.7620000  34.2380000  28.3570000  17.7010000  38.1440000
  27.2370000  17.2290000  36.1250000  28.7960000  17.8340000  32.8650000
  27.2700000  17.2570000  34.6760000  29.3190000  18.1210000  39.0720000
  27.1870000  17.1310000  38.5850000  26.0880000  16.6270000  37.2850000
  27.8500000  17.4290000  31.9350000  29.6140000  18.1810000  32.5920000
  26.3320000  16.7970000  33.7250000  29.0400000  17.9270000  40.4290000
  30.1210000  18.4910000  38.7770000  26.9220000  16.8660000  39.9480000
  26.6380000  16.8750000  32.3640000  28.1710000  17.4370000  30.4710000
  25.5350000  16.4130000  34.0110000  27.8700000  17.2720000  40.8600000
  29.6280000  18.2920000  41.0500000  26.1440000  16.4240000  40.2010000
  26.0130000  16.5920000  31.7350000  29.1610000  18.2660000  29.9770000
  27.5440000  16.6070000  29.5750000  27.6910000  16.9650000  42.3520000
  29.5090000  18.2870000  28.6380000  29.5890000  18.8650000  30.5460000
  27.8660000  16.6700000  28.2030000  26.8560000  16.0590000  29.8790000
  26.5230000  17.6780000  42.9920000  27.5820000  16.0020000  42.3920000
  28.5270000  17.2080000  42.7800000  28.8410000  17.4920000  27.7510000
  30.2050000  18.8180000  28.3240000  27.4230000  16.0970000  27.6200000
  26.3040000  17.1680000  44.4480000  26.6610000  18.6350000  43.0750000
  25.6880000  17.5180000  42.5260000  29.0470000  17.5150000  26.8450000
  25.1020000  17.7570000  45.1360000  27.1250000  17.3610000  44.9270000
  26.1950000  16.2080000  44.3670000  24.9220000  17.2210000  46.5830000
  25.2190000  18.7160000  45.2280000  24.2840000  17.5780000  44.6450000
  23.6900000  17.7510000  47.2920000  25.7450000  17.4030000  47.0620000
  24.8160000  16.2620000  46.4790000  23.5690000  17.1770000  48.7180000
  23.8120000  18.7070000  47.3980000  22.8770000  17.5810000  46.7910000
  24.3870000  17.3420000  49.2120000  23.4440000  16.2210000  48.6070000
  22.4140000  17.7790000  49.4700000  22.2600000  17.1820000  50.8850000
  22.4970000  18.7420000  49.5550000  21.5740000  17.5690000  49.0330000
  23.0750000  17.4400000  51.3450000  21.0820000  17.7010000  51.6430000
  22.2280000  16.2160000  50.8030000  21.1180000  18.6610000  51.7140000
  21.0750000  17.3190000  52.5220000  20.2800000  17.4500000  51.1770000
  26.6280000  18.2770000  88.5810000  25.4640000  17.6960000  89.7250000
  25.5700000  17.7620000  87.2820000  25.4510000  17.7010000  91.1890000
  24.3310000  17.2290000  89.1700000  25.8910000  17.8340000  85.9100000
  24.3640000  17.2570000  87.7200000  26.4140000  18.1210000  92.1160000
  24.2820000  17.1310000  91.6300000  23.1830000  16.6270000  90.3290000
  24.9440000  17.4290000  84.9800000  26.7090000  18.1810000  85.6360000
  23.4270000  16.7970000  86.7690000  26.1350000  17.9270000  93.4740000
  27.2150000  18.4910000  91.8220000  24.0170000  16.8660000  92.9930000
  23.7330000  16.8750000  85.4090000  25.2660000  17.4370000  83.5150000
  22.6290000  16.4130000  87.0560000  24.9650000  17.2720000  93.9050000
  26.7230000  18.2920000  94.0950000  23.2390000  16.4240000  93.2460000
  23.1080000  16.5920000  84.7800000  26.2560000  18.2660000  83.0220000
  24.6380000  16.6070000  82.6190000  24.7860000  16.9650000  95.3960000
  26.6040000  18.2870000  81.6830000  26.6840000  18.8650000  83.5900000
  24.9610000  16.6700000  81.2480000  23.9500000  16.0590000  82.9230000
  23.6180000  17.6780000  96.0370000  24.6760000  16.0020000  95.4370000
  25.6220000  17.2080000  95.8240000  25.9360000  17.4920000  80.7960000
  27.2990000  18.8180000  81.3680000  24.5170000  16.0970000  80.6650000
  23.3990000  17.1680000  97.4920000  23.7560000  18.6350000  96.1190000
  22.7820000  17.5180000  95.5710000  26.1420000  17.5150000  79.8890000
  22.1970000  17.7570000  98.1800000  24.2200000  17.3610000  97.9710000
  23.2900000  16.2080000  97.4120000  22.0170000  17.2210000  99.6270000
  22.3140000  18.7160000  98.2730000  21.3790000  17.5780000  97.6900000
  20.7850000  17.7510000 100.3370000  22.8400000  17.4030000 100.1070000
  21.9110000  16.2620000  99.5230000  20.6640000  17.1770000 101.7630000
  20.9060000  18.7070000 100.4420000  19.9720000  17.5810000  99.8350000
  21.4820000  17.3420000 102.2560000  20.5390000  16.2210000 101.6520000
  19.5080000  17.7790000 102.5150000  19.3550000  17.1820000 103.9300000
  19.5920000  18.7420000 102.6000000  18.6690000  17.5690000 102.0780000
  20.1700000  17.4400000 104.3900000  18.1760000  17.7010000 104.6880000
  19.3220000  16.2160000 103.8480000  18.2130000  18.6610000 104.7590000
  18.1700000  17.3190000 105.5670000  17.3750000  17.4500000 104.2220000
  29.5340000  26.0330000  35.5360000  28.3690000  25.4530000  36.6810000
  28.4750000  25.5190000  34.2380000  28.3570000  25.4580000  38.1440000
  27.2370000  24.9850000  36.1250000  28.7960000  25.5900000  32.8650000
  27.2700000  25.0130000  34.6760000  29.3190000  25.8780000  39.0720000
  27.1870000  24.8880000  38.5850000  26.0880000  24.3840000  37.2850000
  27.8500000  25.1860000  31.9350000  29.6140000  25.9380000  32.5920000
  26.3320000  24.5530000  33.7250000  29.0400000  25.6840000  40.4290000
  30.1210000  26.2480000  38.7770000  26.9220000  24.6220000  39.9480000
  26.6380000  24.6320000  32.3640000  28.1710000  25.1930000  30.4710000
  25.5350000  24.1700000  34.0110000  27.8700000  25.0290000  40.8600000
  29.6280000  26.0490000  41.0500000  26.1440000  24.1810000  40.2010000
  26.0130000  24.3490000  31.7350000  29.1610000  26.0230000  29.9770000
  27.5440000  24.3630000  29.5750000  27.6910000  24.7220000  42.3520000
  29.5090000  26.0430000  28.6380000  29.5890000  26.6220000  30.5460000
  27.8660000  24.4270000  28.2030000  26.8560000  23.8160000  29.8790000
  26.5230000  25.4350000  42.9920000  27.5820000  23.7590000  42.3920000
  28.5270000  24.9650000  42.7800000  28.8410000  25.2480000  27.7510000
  30.2050000  26.5750000  28.3240000  27.4230000  23.8530000  27.6200000
  26.3040000  24.9250000  44.4480000  26.6610000  26.3910000  43.0750000
  25.6880000  25.2740000  42.5260000  29.0470000  25.2720000  26.8450000
  25.1020000  25.5140000  45.1360000  27.1250000  25.1180000  44.9270000
  26.1950000  23.9650000  44.3670000  24.9220000  24.9780000  46.5830000
  25.2190000  26.4720000  45.2280000  24.2840000  25.3350000  44.6450000
  23.6900000  25.5070000  47.2920000  25.7450000  25.1590000  47.0620000
  24.8160000  24.0190000  46.4790000  23.5690000  24.9330000  48.7180000
  23.8120000  26.4640000  47.3980000  22.8770000  25.3380000  46.7910000
  24.3870000  25.0990000  49.2120000  23.4440000  23.9780000  48.6070000
  22.4140000  25.5360000  49.4700000  22.2600000  24.9390000  50.8850000
  22.4970000  26.4990000  49.5550000  21.5740000  25.3250000  49.0330000
  23.0750000  25.1960000  51.3450000  21.0820000  25.4580000  51.6430000
  22.2280000  23.9730000  50.8030000  21.1180000  26.4180000  51.7140000
  21.0750000  25.0750000  52.5220000  20.2800000  25.2070000  51.1770000
  26.6280000  26.0330000  88.5810000  25.4640000  25.4530000  89.7250000
  25.5700000  25.5190000  87.2820000  25.4510000  25.4580000  91.1890000
  24.3310000  24.9850000  89.1700000  25.8910000  25.5900000  85.9100000
  24.3640000  25.0130000  87.7200000  26.4140000  25.8780000  92.1160000
  24.2820000  24.8880000  91.6300000  23.1830000  24.3840000  90.3290000
  24.9440000  25.1860000  84.9800000  26.7090000  25.9380000  85.6360000
  23.4270000  24.5530000  86.7690000  26.1350000  25.6840000  93.4740000
  27.2150000  26.2480000  91.8220000  24.0170000  24.6220000  92.9930000
  23.7330000  24.6320000  85.4090000  25.2660000  25.1930000  83.5150000
  22.6290000  24.1700000  87.0560000  24.9650000  25.0290000  93.9050000
  26.7230000  26.0490000  94.0950000  23.2390000  24.1810000  93.2460000
  23.1080000  24.3490000  84.7800000  26.2560000  26.0230000  83.0220000
  24.6380000  24.3630000  82.6190000  24.7860000  24.7220000  95.3960000
  26.6040000  26.0430000  81.6830000  26.6840000  26.6220000  83.5900000
  24.9610000  24.4270000  81.2480000  23.9500000  23.8160000  82.9230000
  23.6180000  25.4350000  96.0370000  24.6760000  23.7590000  95.4370000
  25.6220000  24.9650000  95.8240000  25.9360000  25.2480000  80.7960000
  27.2990000  26.5750000  81.3680000  24.5170000  23.8530000  80.6650000
  23.3990000  24.9250000  97.4920000  23.7560000  26.3910000  96.1190000
  22.7820000  25.2740000  95.5710000  26.1420000  25.2720000  79.8890000
  22.1970000  25.5140000  98.1800000  24.2200000  25.1180000  97.9710000
  23.2900000  23.9650000  97.4120000  22.0170000  24.9780000  99.6270000
  22.3140000  26.4720000  98.2730000  21.3790000  25.3350000  97.6900000
  20.7850000  25.5070000 100.3370000  22.8400000  25.1590000 100.1070000
  21.9110000  24.0190000  99.5230000  20.6640000  24.9330000 101.7630000
  20.9060000  26.4640000 100.4420000  19.9720000  25.3380000  99.8350000
  21.4820000  25.0990000 102.2560000  20.5390000  23.9780000 101.6520000
  19.5080000  25.5360000 102.5150000  19.3550000  24.9390000 103.9300000
  19.5920000  26.4990000 102.6000000  18.6690000  25.3250000 102.0780000
  20.1700000  25.1960000 104.3900000  18.1760000  25.4580000 104.6880000
  19.3220000  23.9730000 103.8480000  18.2130000  26.4180000 104.7590000
  18.1700000  25.0750000 105.5670000  17.3750000  25.2070000 104.2220000
  29.5340000  33.7900000  35.5360000  28.3690000  33.2100000  36.6810000
  28.4750000  33.2760000  34.2380000  28.3570000  33.2150000  38.1440000
  27.2370000  32.7420000  36.1250000  28.7960000  33.3470000  32.8650000
  27.2700000  32.7700000  34.6760000  29.3190000  33.6350000  39.0720000
  27.1870000  32.6440000  38.5850000  26.0880000  32.1410000  37.2850000
  27.8500000  32.9420000  31.9350000  29.6140000  33.6950000  32.5920000
  26.3320000  32.3100000  33.7250000  29.0400000  33.4400000  40.4290000
  30.1210000  34.0040000  38.7770000  26.9220000  32.3790000  39.9480000
  26.6380000  32.3890000  32.3640000  28.1710000  32.9500000  30.4710000
  25.5350000  31.9270000  34.0110000  27.8700000  32.7860000  40.8600000
  29.6280000  33.8060000  41.0500000  26.1440000  31.9380000  40.2010000
  26.0130000  32.1050000  31.7350000  29.1610000  33.7800000  29.9770000
  27.5440000  32.1200000  29.5750000  27.6910000  32.4780000  42.3520000
  29.5090000  33.8000000  28.6380000  29.5890000  34.3790000  30.5460000
  27.8660000  32.1840000  28.2030000  26.8560000  31.5720000  29.8790000
  26.5230000  33.1910000  42.9920000  27.5820000  31.5150000  42.3920000
  28.5270000  32.7220000  42.7800000  28.8410000  33.0050000  27.7510000
  30.2050000  34.3320000  28.3240000  27.4230000  31.6100000  27.6200000
  26.3040000  32.6820000  44.4480000  26.6610000  34.1480000  43.0750000
  25.6880000  33.0310000  42.5260000  29.0470000  33.0290000  26.8450000
  25.1020000  33.2700000  45.1360000  27.1250000  32.8740000  44.9270000
  26.1950000  31.7210000  44.3670000  24.9220000  32.7340000  46.5830000
  25.2190000  34.2290000  45.2280000  24.2840000  33.0920000  44.6450000
  23.6900000  33.2640000  47.2920000  25.7450000  32.9160000  47.0620000
  24.8160000  31.7760000  46.4790000  23.5690000  32.6900000  48.7180000
  23.8120000  34.2210000  47.3980000  22.8770000  33.0950000  46.7910000
  24.3870000  32.8550000  49.2120000  23.4440000  31.7350000  48.6070000
  22.4140000  33.2930000  49.4700000  22.2600000  32.6960000  50.8850000
  22.4970000  34.2560000  49.5550000  21.5740000  33.0820000  49.0330000
  23.0750000  32.9530000  51.3450000  21.0820000  33.2150000  51.6430000
  22.2280000  31.7300000  50.8030000  21.1180000  34.1750000  51.7140000
  21.0750000  32.8320000  52.5220000  20.2800000  32.9640000  51.1770000
  26.6280000  33.7900000  88.5810000  25.4640000  33.2100000  89.7250000
  25.5700000  33.2760000  87.2820000  25.4510000  33.2150000  91.1890000
  24.3310000  32.7420000  89.1700000  25.8910000  33.3470000  85.9100000
  24.3640000  32.7700000  87.7200000  26.4140000  33.6350000  92.1160000
  24.2820000  32.6440000  91.6300000  23.1830000  32.1410000  90.3290000
  24.9440000  32.9420000  84.9800000  26.7090000  33.6950000  85.6360000
  23.4270000  32.3100000  86.7690000  26.1350000  33.4400000  93.4740000
  27.2150000  34.0040000  91.8220000  24.0170000  32.3790000  92.9930000
  23.7330000  32.3890000  85.4090000  25.2660000  32.9500000  83.5150000
  22.6290000  31.9270000  87.0560000  24.9650000  32.7860000  93.9050000
  26.7230000  33.8060000  94.0950000  23.2390000  31.9380000  93.2460000
  23.1080000  32.1050000  84.7800000  26.2560000  33.7800000  83.0220000
  24.6380000  32.1200000  82.6190000  24.7860000  32.4780000  95.3960000
  26.6040000  33.8000000  81.6830000  26.6840000  34.3790000  83.5900000
  24.9610000  32.1840000  81.2480000  23.9500000  31.5720000  82.9230000
  23.6180000  33.1910000  96.0370000  24.6760000  31.5150000  95.4370000
  25.6220000  32.7220000  95.8240000  25.9360000  33.0050000  80.7960000
  27.2990000  34.3320000  81.3680000  24.5170000  31.6100000  80.6650000
  23.3990000  32.6820000  97.4920000  23.7560000  34.1480000  96.1190000
  22.7820000  33.0310000  95.5710000  26.1420000  33.0290000  79.8890000
  22.1970000  33.2700000  98.1800000  24.2200000  32.8740000  97.9710000
  23.2900000  31.7210000  97.4120000  22.0170000  32.7340000  99.6270000
  22.3140000  34.2290000  98.2730000  21.3790000  33.0920000  97.6900000
  20.7850000  33.2640000 100.3370000  22.8400000  32.9160000 100.1070000
  21.9110000  31.7760000  99.5230000  20.6640000  32.6900000 101.7630000
  20.9060000  34.2210000 100.4420000  19.9720000  33.0950000  99.8350000
  21.4820000  32.8550000 102.2560000  20.5390000  31.7350000 101.6520000
  19.5080000  33.2930000 102.5150000  19.3550000  32.6960000 103.9300000
  19.5920000  34.2560000 102.6000000  18.6690000  33.0820000 102.0780000
  20.1700000  32.9530000 104.3900000  18.1760000  33.2150000 104.6880000
  19.3220000  31.7300000 103.8480000  18.2130000  34.1750000 104.7590000
  18.1700000  32.8320000 105.5670000  17.3750000  32.9640000 104.2220000
  29.5340000  41.5470000  35.5360000  28.3690000  40.9670000  36.6810000
  28.4750000  41.0330000  34.2380000  28.3570000  40.9710000  38.1440000
  27.2370000  40.4990000  36.1250000  28.7960000  41.1040000  32.8650000
  27.2700000  40.5270000  34.6760000  29.3190000  41.3920000  39.0720000
  27.1870000  40.4010000  38.5850000  26.0880000  39.8980000  37.2850000
  27.8500000  40.6990000  31.9350000  29.6140000  41.4510000  32.5920000
  26.3320000  40.0670000  33.7250000  29.0400000  41.1970000  40.4290000
  30.1210000  41.7610000  38.7770000  26.9220000  40.1360000  39.9480000
  26.6380000  40.1450000  32.3640000  28.1710000  40.7070000  30.4710000
  25.5350000  39.6830000  34.0110000  27.8700000  40.5420000  40.8600000
  29.6280000  41.5630000  41.0500000  26.1440000  39.6950000  40.2010000
  26.0130000  39.8620000  31.7350000  29.1610000  41.5370000  29.9770000
  27.5440000  39.8770000  29.5750000  27.6910000  40.2350000  42.3520000
  29.5090000  41.5570000  28.6380000  29.5890000  42.1360000  30.5460000
  27.8660000  39.9410000  28.2030000  26.8560000  39.3290000  29.8790000
  26.5230000  40.9480000  42.9920000  27.5820000  39.2720000  42.3920000
  28.5270000  40.4790000  42.7800000  28.8410000  40.7620000  27.7510000
  30.2050000  42.0890000  28.3240000  27.4230000  39.3670000  27.6200000
  26.3040000  40.4390000  44.4480000  26.6610000  41.9050000  43.0750000
  25.6880000  40.7880000  42.5260000  29.0470000  40.7850000  26.8450000
  25.1020000  41.0270000  45.1360000  27.1250000  40.6310000  44.9270000
  26.1950000  39.4780000  44.3670000  24.9220000  40.4910000  46.5830000
  25.2190000  41.9860000  45.2280000  24.2840000  40.8490000  44.6450000
  23.6900000  41.0210000  47.2920000  25.7450000  40.6730000  47.0620000
  24.8160000  39.5330000  46.4790000  23.5690000  40.4470000  48.7180000
  23.8120000  41.9780000  47.3980000  22.8770000  40.8510000  46.7910000
  24.3870000  40.6120000  49.2120000  23.4440000  39.4920000  48.6070000
  22.4140000  41.0500000  49.4700000  22.2600000  40.4520000  50.8850000
  22.4970000  42.0130000  49.5550000  21.5740000  40.8390000  49.0330000
  23.0750000  40.7100000  51.3450000  21.0820000  40.9710000  51.6430000
  22.2280000  39.4870000  50.8030000  21.1180000  41.9310000  51.7140000
  21.0750000  40.5890000  52.5220000  20.2800000  40.7210000  51.1770000
  26.6280000  41.5470000  88.5810000  25.4640000  40.9670000  89.7250000
  25.5700000  41.0330000  87.2820000  25.4510000  40.9710000  91.1890000
  24.3310000  40.4990000  89.1700000  25.8910000  41.1040000  85.9100000
  24.3640000  40.5270000  87.7200000  26.4140000  41.3920000  92.1160000
  24.2820000  40.4010000  91.6300000  23.1830000  39.8980000  90.3290000
  24.9440000  40.6990000  84.9800000  26.7090000  41.4510000  85.6360000
  23.4270000  40.0670000  86.7690000  26.1350000  41.1970000  93.4740000
  27.2150000  41.7610000  91.8220000  24.0170000  40.1360000  92.9930000
  23.7330000  40.1450000  85.4090000  25.2660000  40.7070000  83.5150000
  22.6290000  39.6830000  87.0560000  24.9650000  40.5420000  93.9050000
  26.7230000  41.5630000  94.0950000  23.2390000  39.6950000  93.2460000
  23.1080000  39.8620000  84.7800000  26.2560000  41.5370000  83.0220000
  24.6380000  39.8770000  82.6190000  24.7860000  40.2350000  95.3960000
  26.6040000  41.5570000  81.6830000  26.6840000  42.1360000  83.5900000
  24.9610000  39.9410000  81.2480000  23.9500000  39.3290000  82.9230000
  23.6180000  40.9480000  96.0370000  24.6760000  39.2720000  95.4370000
  25.6220000  40.4790000  95.8240000  25.9360000  40.7620000  80.7960000
  27.2990000  42.0890000  81.3680000  24.5170000  39.3670000  80.6650000
  23.3990000  40.4390000  97.4920000  23.7560000  41.9050000  96.1190000
  22.7820000  40.7880000  95.5710000  26.1420000  40.7850000  79.8890000
  22.1970000  41.0270000  98.1800000  24.2200000  40.6310000  97.9710000
  23.2900000  39.4780000  97.4120000  22.0170000  40.4910000  99.6270000
  22.3140000  41.9860000  98.2730000  21.3790000  40.8490000  97.6900000
  20.7850000  41.0210000 100.3370000  22.8400000  40.6730000 100.1070000
  21.9110000  39.5330000  99.5230000  20.6640000  40.4470000 101.7630000
  20.9060000  41.9780000 100.4420000  19.9720000  40.8510000  99.8350000
  21.4820000  40.6120000 102.2560000  20.5390000  39.4920000 101.6520000
  19.5080000  41.0500000 102.5150000  19.3550000  40.4520000 103.9300000
  19.5920000  42.0130000 102.6000000  18.6690000  40.8390000 102.0780000
  20.1700000  40.7100000 104.3900000  18.1760000  40.9710000 104.6880000
  19.3220000  39.4870000 103.8480000  18.2130000  41.9310000 104.7590000
  18.1700000  40.5890000 105.5670000  17.3750000  40.7210000 104.2220000
  29.5340000   2.7630000  35.5360000  28.3690000   2.1830000  36.6810000
  28.4750000   2.2490000  34.2380000  28.3570000   2.1870000  38.1440000
  27.2370000   1.7150000  36.1250000  28.7960000   2.3200000  32.8650000
  27.2700000   1.7430000  34.6760000  29.3190000   2.6080000  39.0720000
  27.1870000   1.6170000  38.5850000  26.0880000   1.1140000  37.2850000
  27.8500000   1.9150000  31.9350000  29.6140000   2.6670000  32.5920000
  26.3320000   1.2830000  33.7250000  29.0400000   2.4130000  40.4290000
  30.1210000   2.9770000  38.7770000  26.9220000   1.3520000  39.9480000
  26.6380000   1.3610000  32.3640000  28.1710000   1.9230000  30.4710000
  25.5350000   0.8990000  34.0110000  27.8700000   1.7580000  40.8600000
  29.6280000   2.7790000  41.0500000  26.1440000   0.9110000  40.2010000
  26.0130000   1.0780000  31.7350000  29.1610000   2.7530000  29.9770000
  27.5440000   1.0930000  29.5750000  27.6910000   1.4510000  42.3520000
  29.5090000   2.7730000  28.6380000  29.5890000   3.3520000  30.5460000
  27.8660000   1.1570000  28.2030000  26.8560000   0.5450000  29.8790000
  26.5230000   2.1640000  42.9920000  27.5820000   0.4880000  42.3920000
  28.5270000   1.6950000  42.7800000  28.8410000   1.9780000  27.7510000
  30.2050000   3.3050000  28.3240000  27.4230000   0.5830000  27.6200000
  26.3040000   1.6550000  44.4480000  26.6610000   3.1210000  43.0750000
  25.6880000   2.0040000  42.5260000  29.0470000   2.0010000  26.8450000
  25.1020000   2.2430000  45.1360000  27.1250000   1.8470000  44.9270000
  26.1950000   0.6940000  44.3670000  24.9220000   1.7070000  46.5830000
  25.2190000   3.2020000  45.2280000  24.2840000   2.0650000  44.6450000
  23.6900000   2.2370000  47.2920000  25.7450000   1.8890000  47.0620000
  24.8160000   0.7490000  46.4790000  23.5690000   1.6630000  48.7180000
  23.8120000   3.1940000  47.3980000  22.8770000   2.0670000  46.7910000
  24.3870000   1.8280000  49.2120000  23.4440000   0.7080000  48.6070000
  22.4140000   2.2660000  49.4700000  22.2600000   1.6680000  50.8850000
  22.4970000   3.2290000  49.5550000  21.5740000   2.0550000  49.0330000
  23.0750000   1.9260000  51.3450000  21.0820000   2.1870000  51.6430000
  22.2280000   0.7030000  50.8030000  21.1180000   3.1470000  51.7140000
  21.0750000   1.8050000  52.5220000  20.2800000   1.9370000  51.1770000
  26.6280000   2.7630000  88.5810000  25.4640000   2.1830000  89.7250000
  25.5700000   2.2490000  87.2820000  25.4510000   2.1870000  91.1890000
  24.3310000   1.7150000  89.1700000  25.8910000   2.3200000  85.9100000
  24.3640000   1.7430000  87.7200000  26.4140000   2.6080000  92.1160000
  24.2820000   1.6170000  91.6300000  23.1830000   1.1140000  90.3290000
  24.9440000   1.9150000  84.9800000  26.7090000   2.6670000  85.6360000
  23.4270000   1.2830000  86.7690000  26.1350000   2.4130000  93.4740000
  27.2150000   2.9770000  91.8220000  24.0170000   1.3520000  92.9930000
  23.7330000   1.3610000  85.4090000  25.2660000   1.9230000  83.5150000
  22.6290000   0.8990000  87.0560000  24.9650000   1.7580000  93.9050000
  26.7230000   2.7790000  94.0950000  23.2390000   0.9110000  93.2460000
  23.1080000   1.0780000  84.7800000  26.2560000   2.7530000  83.0220000
  24.6380000   1.0930000  82.6190000  24.7860000   1.4510000  95.3960000
  26.6040000   2.7730000  81.6830000  26.6840000   3.3520000  83.5900000
  24.9610000   1.1570000  81.2480000  23.9500000   0.5450000  82.9230000
  23.6180000   2.1640000  96.0370000  24.6760000   0.4880000  95.4370000
  25.6220000   1.6950000  95.8240000  25.9360000   1.9780000  80.7960000
  27.2990000   3.3050000  81.3680000  24.5170000   0.5830000  80.6650000
  23.3990000   1.6550000  97.4920000  23.7560000   3.1210000  96.1190000
  22.7820000   2.0040000  95.5710000  26.1420000   2.0010000  79.8890000
  22.1970000   2.2430000  98.1800000  24.2200000   1.8470000  97.9710000
  23.2900000   0.6940000  97.4120000  22.0170000   1.7070000  99.6270000
  22.3140000   3.2020000  98.2730000  21.3790000   2.0650000  97.6900000
  20.7850000   2.2370000 100.3370000  22.8400000   1.8890000 100.1070000
  21.9110000   0.7490000  99.5230000  20.6640000   1.6630000 101.7630000
  20.9060000   3.1940000 100.4420000  19.9720000   2.0670000  99.8350000
  21.4820000   1.8280000 102.2560000  20.5390000   0.7080000 101.6520000
  19.5080000   2.2660000 102.5150000  19.3550000   1.6680000 103.9300000
  19.5920000   3.2290000 102.6000000  18.6690000   2.0550000 102.0780000
  20.1700000   1.9260000 104.3900000  18.1760000   2.1870000 104.6880000
  19.3220000   0.7030000 103.8480000  18.2130000   3.1470000 104.7590000
  18.1700000   1.8050000 105.5670000  17.3750000   1.9370000 104.2220000
  25.0090000   8.8720000  17.5080000  26.1730000   9.4520000  16.3640000
  26.0670000   9.3870000  18.8070000  26.1850000   9.4480000  14.9000000
  27.3050000   9.9200000  16.9190000  25.7460000   9.3150000  20.1790000
  27.2730000   9.8920000  18.3690000  25.2230000   9.0270000  13.9730000
  27.3550000  10.0180000  14.4590000  28.4540000  10.5210000  15.7600000
  26.6930000   9.7200000  21.1090000  24.9280000   8.9680000  20.4530000
  28.2100000  10.3520000  19.3200000  25.5020000   9.2220000  12.6150000
  24.4210000   8.6580000  14.2670000  27.6200000  10.2830000  13.0960000
  27.9040000  10.2740000  20.6800000  26.3710000   9.7120000  22.5740000
  29.0070000  10.7360000  19.0330000  26.6720000   9.8770000  12.1840000
  24.9140000   8.8560000  11.9940000  28.3980000  10.7240000  12.8430000
  28.5290000  10.5570000  21.3090000  25.3810000   8.8820000  23.0670000
  26.9990000  10.5420000  23.4700000  26.8510000  10.1840000  10.6930000
  25.0330000   8.8620000  24.4060000  24.9530000   8.2840000  22.4990000
  26.6760000  10.4790000  24.8410000  27.6860000  11.0900000  23.1660000
  28.0190000   9.4710000  10.0520000  26.9610000  11.1470000  10.6520000
  26.0150000   9.9400000  10.2650000  25.7010000   9.6570000  25.2930000
  24.3370000   8.3310000  24.7210000  27.1200000  11.0520000  25.4240000
  28.2380000   9.9810000   8.5970000  27.8810000   8.5140000   9.9700000
  28.8540000   9.6310000  10.5180000  25.4950000   9.6340000  26.2000000
  29.4400000   9.3920000   7.9090000  27.4170000   9.7880000   8.1180000
  28.3470000  10.9410000   8.6770000  29.6200000   9.9280000   6.4620000
  29.3230000   8.4330000   7.8160000  30.2580000   9.5700000   8.3990000
  30.8520000   9.3980000   5.7520000  28.7970000   9.7460000   5.9820000
  29.7260000  10.8860000   6.5660000  30.9730000   9.9720000   4.3260000
  30.7300000   8.4420000   5.6470000  31.6650000   9.5680000   6.2540000
  30.1550000   9.8070000   3.8330000  31.0980000  10.9270000   4.4370000
  32.1280000   9.3690000   3.5740000  32.2820000   9.9670000   2.1590000
  32.0450000   8.4060000   3.4890000  32.9680000   9.5800000   4.0110000
  31.4670000   9.7090000   1.6990000  33.4600000   9.4480000   1.4010000
  32.3140000  10.9330000   2.2410000  33.4240000   8.4880000   1.3300000
  33.4670000   9.8300000   0.5220000  34.2620000   9.6980000   1.8670000
  22.1030000   8.8720000  70.5530000  23.2680000   9.4520000  69.4080000
  23.1620000   9.3870000  71.8510000  23.2800000   9.4480000  67.9450000
  24.4000000   9.9200000  69.9640000  22.8410000   9.3150000  73.2240000
  24.3670000   9.8920000  71.4130000  22.3170000   9.0270000  67.0170000
  24.4500000  10.0180000  67.5040000  25.5490000  10.5210000  68.8040000
  23.7870000   9.7200000  74.1540000  22.0230000   8.9680000  73.4970000
  25.3050000  10.3520000  72.3640000  22.5970000   9.2220000  65.6600000
  21.5160000   8.6580000  67.3120000  24.7150000  10.2830000  66.1410000
  24.9990000  10.2740000  73.7250000  23.4660000   9.7120000  75.6180000
  26.1020000  10.7360000  72.0780000  23.7670000   9.8770000  65.2290000
  22.0090000   8.8560000  65.0390000  25.4930000  10.7240000  65.8880000
  25.6240000  10.5570000  74.3540000  22.4750000   8.8820000  76.1120000
  24.0930000  10.5420000  76.5140000  23.9460000  10.1840000  63.7370000
  22.1280000   8.8620000  77.4510000  22.0480000   8.2840000  75.5430000
  23.7710000  10.4790000  77.8860000  24.7810000  11.0900000  76.2100000
  25.1140000   9.4710000  63.0970000  24.0550000  11.1470000  63.6970000
  23.1100000   9.9400000  63.3090000  22.7960000   9.6570000  78.3380000
  21.4320000   8.3310000  77.7650000  24.2140000  11.0520000  78.4690000
  25.3330000   9.9810000  61.6410000  24.9750000   8.5140000  63.0140000
  25.9490000   9.6310000  63.5630000  22.5900000   9.6340000  79.2440000
  26.5350000   9.3920000  60.9530000  24.5120000   9.7880000  61.1620000
  25.4420000  10.9410000  61.7220000  26.7150000   9.9280000  59.5060000
  26.4180000   8.4330000  60.8610000  27.3530000   9.5700000  61.4440000
  27.9470000   9.3980000  58.7970000  25.8920000   9.7460000  59.0270000
  26.8200000  10.8860000  59.6100000  28.0680000   9.9720000  57.3710000
  27.8250000   8.4420000  58.6910000  28.7600000   9.5680000  59.2980000
  27.2490000   9.8070000  56.8770000  28.1920000  10.9270000  57.4820000
  29.2230000   9.3690000  56.6190000  29.3770000   9.9670000  55.2040000
  29.1400000   8.4060000  56.5340000  30.0630000   9.5800000  57.0560000
  28.5620000   9.7090000  54.7440000  30.5550000   9.4480000  54.4460000
  29.4090000  10.9330000  55.2860000  30.5180000   8.4880000  54.3750000
  30.5620000   9.8300000  53.5670000  31.3570000   9.6980000  54.9120000
  25.0090000  16.6290000  17.5080000  26.1730000  17.2090000  16.3640000
  26.0670000  17.1430000  18.8070000  26.1850000  17.2050000  14.9000000
  27.3050000  17.6770000  16.9190000  25.7460000  17.0720000  20.1790000
  27.2730000  17.6490000  18.3690000  25.2230000  16.7840000  13.9730000
  27.3550000  17.7750000  14.4590000  28.4540000  18.2780000  15.7600000
  26.6930000  17.4770000  21.1090000  24.9280000  16.7250000  20.4530000
  28.2100000  18.1090000  19.3200000  25.5020000  16.9790000  12.6150000
  24.4210000  16.4150000  14.2670000  27.6200000  18.0400000  13.0960000
  27.9040000  18.0310000  20.6800000  26.3710000  17.4690000  22.5740000
  29.0070000  18.4930000  19.0330000  26.6720000  17.6340000  12.1840000
  24.9140000  16.6130000  11.9940000  28.3980000  18.4810000  12.8430000
  28.5290000  18.3140000  21.3090000  25.3810000  16.6390000  23.0670000
  26.9990000  18.2990000  23.4700000  26.8510000  17.9410000  10.6930000
  25.0330000  16.6190000  24.4060000  24.9530000  16.0400000  22.4990000
  26.6760000  18.2350000  24.8410000  27.6860000  18.8470000  23.1660000
  28.0190000  17.2280000  10.0520000  26.9610000  18.9040000  10.6520000
  26.0150000  17.6970000  10.2650000  25.7010000  17.4140000  25.2930000
  24.3370000  16.0870000  24.7210000  27.1200000  18.8090000  25.4240000
  28.2380000  17.7370000   8.5970000  27.8810000  16.2710000   9.9700000
  28.8540000  17.3880000  10.5180000  25.4950000  17.3910000  26.2000000
  29.4400000  17.1490000   7.9090000  27.4170000  17.5450000   8.1180000
  28.3470000  18.6980000   8.6770000  29.6200000  17.6850000   6.4620000
  29.3230000  16.1900000   7.8160000  30.2580000  17.3270000   8.3990000
  30.8520000  17.1550000   5.7520000  28.7970000  17.5030000   5.9820000
  29.7260000  18.6430000   6.5660000  30.9730000  17.7290000   4.3260000
  30.7300000  16.1980000   5.6470000  31.6650000  17.3250000   6.2540000
  30.1550000  17.5640000   3.8330000  31.0980000  18.6840000   4.4370000
  32.1280000  17.1260000   3.5740000  32.2820000  17.7240000   2.1590000
  32.0450000  16.1630000   3.4890000  32.9680000  17.3370000   4.0110000
  31.4670000  17.4660000   1.6990000  33.4600000  17.2050000   1.4010000
  32.3140000  18.6890000   2.2410000  33.4240000  16.2450000   1.3300000
  33.4670000  17.5870000   0.5220000  34.2620000  17.4550000   1.8670000
  22.1030000  16.6290000  70.5530000  23.2680000  17.2090000  69.4080000
  23.1620000  17.1430000  71.8510000  23.2800000  17.2050000  67.9450000
  24.4000000  17.6770000  69.9640000  22.8410000  17.0720000  73.2240000
  24.3670000  17.6490000  71.4130000  22.3170000  16.7840000  67.0170000
  24.4500000  17.7750000  67.5040000  25.5490000  18.2780000  68.8040000
  23.7870000  17.4770000  74.1540000  22.0230000  16.7250000  73.4970000
  25.3050000  18.1090000  72.3640000  22.5970000  16.9790000  65.6600000
  21.5160000  16.4150000  67.3120000  24.7150000  18.0400000  66.1410000
  24.9990000  18.0310000  73.7250000  23.4660000  17.4690000  75.6180000
  26.1020000  18.4930000  72.0780000  23.7670000  17.6340000  65.2290000
  22.0090000  16.6130000  65.0390000  25.4930000  18.4810000  65.8880000
  25.6240000  18.3140000  74.3540000  22.4750000  16.6390000  76.1120000
  24.0930000  18.2990000  76.5140000  23.9460000  17.9410000  63.7370000
  22.1280000  16.6190000  77.4510000  22.0480000  16.0400000  75.5430000
  23.7710000  18.2350000  77.8860000  24.7810000  18.8470000  76.2100000
  25.1140000  17.2280000  63.0970000  24.0550000  18.9040000  63.6970000
  23.1100000  17.6970000  63.3090000  22.7960000  17.4140000  78.3380000
  21.4320000  16.0870000  77.7650000  24.2140000  18.8090000  78.4690000
  25.3330000  17.7370000  61.6410000  24.9750000  16.2710000  63.0140000
  25.9490000  17.3880000  63.5630000  22.5900000  17.3910000  79.2440000
  26.5350000  17.1490000  60.9530000  24.5120000  17.5450000  61.1620000
  25.4420000  18.6980000  61.7220000  26.7150000  17.6850000  59.5060000
  26.4180000  16.1900000  60.8610000  27.3530000  17.3270000  61.4440000
  27.9470000  17.1550000  58.7970000  25.8920000  17.5030000  59.0270000
  26.8200000  18.6430000  59.6100000  28.0680000  17.7290000  57.3710000
  27.8250000  16.1980000  58.6910000  28.7600000  17.3250000  59.2980000
  27.2490000  17.5640000  56.8770000  28.1920000  18.6840000  57.4820000
  29.2230000  17.1260000  56.6190000  29.3770000  17.7240000  55.2040000
  29.1400000  16.1630000  56.5340000  30.0630000  17.3370000  57.0560000
  28.5620000  17.4660000  54.7440000  30.5550000  17.2050000  54.4460000
  29.4090000  18.6890000  55.2860000  30.5180000  16.2450000  54.3750000
  30.5620000  17.5870000  53.5670000  31.3570000  17.4550000  54.9120000
  25.0090000  24.3860000  17.5080000  26.1730000  24.9660000  16.3640000
  26.0670000  24.9000000  18.8070000  26.1850000  24.9610000  14.9000000
  27.3050000  25.4340000  16.9190000  25.7460000  24.8290000  20.1790000
  27.2730000  25.4060000  18.3690000  25.2230000  24.5410000  13.9730000
  27.3550000  25.5320000  14.4590000  28.4540000  26.0350000  15.7600000
  26.6930000  25.2340000  21.1090000  24.9280000  24.4810000  20.4530000
  28.2100000  25.8660000  19.3200000  25.5020000  24.7360000  12.6150000
  24.4210000  24.1720000  14.2670000  27.6200000  25.7970000  13.0960000
  27.9040000  25.7870000  20.6800000  26.3710000  25.2260000  22.5740000
  29.0070000  26.2490000  19.0330000  26.6720000  25.3900000  12.1840000
  24.9140000  24.3700000  11.9940000  28.3980000  26.2380000  12.8430000
  28.5290000  26.0710000  21.3090000  25.3810000  24.3960000  23.0670000
  26.9990000  26.0560000  23.4700000  26.8510000  25.6980000  10.6930000
  25.0330000  24.3760000  24.4060000  24.9530000  23.7970000  22.4990000
  26.6760000  25.9920000  24.8410000  27.6860000  26.6040000  23.1660000
  28.0190000  24.9850000  10.0520000  26.9610000  26.6610000  10.6520000
  26.0150000  25.4540000  10.2650000  25.7010000  25.1710000  25.2930000
  24.3370000  23.8440000  24.7210000  27.1200000  26.5660000  25.4240000
  28.2380000  25.4940000   8.5970000  27.8810000  24.0280000   9.9700000
  28.8540000  25.1450000  10.5180000  25.4950000  25.1470000  26.2000000
  29.4400000  24.9060000   7.9090000  27.4170000  25.3020000   8.1180000
  28.3470000  26.4550000   8.6770000  29.6200000  25.4420000   6.4620000
  29.3230000  23.9470000   7.8160000  30.2580000  25.0840000   8.3990000
  30.8520000  24.9120000   5.7520000  28.7970000  25.2600000   5.9820000
  29.7260000  26.4000000   6.5660000  30.9730000  25.4860000   4.3260000
  30.7300000  23.9550000   5.6470000  31.6650000  25.0810000   6.2540000
  30.1550000  25.3210000   3.8330000  31.0980000  26.4410000   4.4370000
  32.1280000  24.8830000   3.5740000  32.2820000  25.4800000   2.1590000
  32.0450000  23.9200000   3.4890000  32.9680000  25.0940000   4.0110000
  31.4670000  25.2230000   1.6990000  33.4600000  24.9610000   1.4010000
  32.3140000  26.4460000   2.2410000  33.4240000  24.0010000   1.3300000
  33.4670000  25.3440000   0.5220000  34.2620000  25.2120000   1.8670000
  22.1030000  24.3860000  70.5530000  23.2680000  24.9660000  69.4080000
  23.1620000  24.9000000  71.8510000  23.2800000  24.9610000  67.9450000
  24.4000000  25.4340000  69.9640000  22.8410000  24.8290000  73.2240000
  24.3670000  25.4060000  71.4130000  22.3170000  24.5410000  67.0170000
  24.4500000  25.5320000  67.5040000  25.5490000  26.0350000  68.8040000
  23.7870000  25.2340000  74.1540000  22.0230000  24.4810000  73.4970000
  25.3050000  25.8660000  72.3640000  22.5970000  24.7360000  65.6600000
  21.5160000  24.1720000  67.3120000  24.7150000  25.7970000  66.1410000
  24.9990000  25.7870000  73.7250000  23.4660000  25.2260000  75.6180000
  26.1020000  26.2490000  72.0780000  23.7670000  25.3900000  65.2290000
  22.0090000  24.3700000  65.0390000  25.4930000  26.2380000  65.8880000
  25.6240000  26.0710000  74.3540000  22.4750000  24.3960000  76.1120000
  24.0930000  26.0560000  76.5140000  23.9460000  25.6980000  63.7370000
  22.1280000  24.3760000  77.4510000  22.0480000  23.7970000  75.5430000
  23.7710000  25.9920000  77.8860000  24.7810000  26.6040000  76.2100000
  25.1140000  24.9850000  63.0970000  24.0550000  26.6610000  63.6970000
  23.1100000  25.4540000  63.3090000  22.7960000  25.1710000  78.3380000
  21.4320000  23.8440000  77.7650000  24.2140000  26.5660000  78.4690000
  25.3330000  25.4940000  61.6410000  24.9750000  24.0280000  63.0140000
  25.9490000  25.1450000  63.5630000  22.5900000  25.1470000  79.2440000
  26.5350000  24.9060000  60.9530000  24.5120000  25.3020000  61.1620000
  25.4420000  26.4550000  61.7220000  26.7150000  25.4420000  59.5060000
  26.4180000  23.9470000  60.8610000  27.3530000  25.0840000  61.4440000
  27.9470000  24.9120000  58.7970000  25.8920000  25.2600000  59.0270000
  26.8200000  26.4000000  59.6100000  28.0680000  25.4860000  57.3710000
  27.8250000  23.9550000  58.6910000  28.7600000  25.0810000  59.2980000
  27.2490000  25.3210000  56.8770000  28.1920000  26.4410000  57.4820000
  29.2230000  24.8830000  56.6190000  29.3770000  25.4800000  55.2040000
  29.1400000  23.9200000  56.5340000  30.0630000  25.0940000  57.0560000
  28.5620000  25.2230000  54.7440000  30.5550000  24.9610000  54.4460000
  29.4090000  26.4460000  55.2860000  30.5180000  24.0010000  54.3750000
  30.5620000  25.3440000  53.5670000  31.3570000  25.2120000  54.9120000
  25.0090000  32.1430000  17.5080000  26.1730000  32.7230000  16.3640000
  26.0670000  32.6570000  18.8070000  26.1850000  32.7180000  14.9000000
  27.3050000  33.1910000  16.9190000  25.7460000  32.5860000  20.1790000
  27.2730000  33.1630000  18.3690000  25.2230000  32.2980000  13.9730000
  27.3550000  33.2880000  14.4590000  28.4540000  33.7920000  15.7600000
  26.6930000  32.9900000  21.1090000  24.9280000  32.2380000  20.4530000
  28.2100000  33.6230000  19.3200000  25.5020000  32.4920000  12.6150000
  24.4210000  31.9280000  14.2670000  27.6200000  33.5540000  13.0960000
  27.9040000  33.5440000  20.6800000  26.3710000  32.9830000  22.5740000
  29.0070000  34.0060000  19.0330000  26.6720000  33.1470000  12.1840000
  24.9140000  32.1270000  11.9940000  28.3980000  33.9950000  12.8430000
  28.5290000  33.8270000  21.3090000  25.3810000  32.1530000  23.0670000
  26.9990000  33.8130000  23.4700000  26.8510000  33.4540000  10.6930000
  25.0330000  32.1330000  24.4060000  24.9530000  31.5540000  22.4990000
  26.6760000  33.7490000  24.8410000  27.6860000  34.3600000  23.1660000
  28.0190000  32.7410000  10.0520000  26.9610000  34.4170000  10.6520000
  26.0150000  33.2110000  10.2650000  25.7010000  32.9280000  25.2930000
  24.3370000  31.6010000  24.7210000  27.1200000  34.3230000  25.4240000
  28.2380000  33.2510000   8.5970000  27.8810000  31.7850000   9.9700000
  28.8540000  32.9020000  10.5180000  25.4950000  32.9040000  26.2000000
  29.4400000  32.6620000   7.9090000  27.4170000  33.0580000   8.1180000
  28.3470000  34.2110000   8.6770000  29.6200000  33.1980000   6.4620000
  29.3230000  31.7040000   7.8160000  30.2580000  32.8410000   8.3990000
  30.8520000  32.6690000   5.7520000  28.7970000  33.0170000   5.9820000
  29.7260000  34.1570000   6.5660000  30.9730000  33.2430000   4.3260000
  30.7300000  31.7120000   5.6470000  31.6650000  32.8380000   6.2540000
  30.1550000  33.0770000   3.8330000  31.0980000  34.1980000   4.4370000
  32.1280000  32.6400000   3.5740000  32.2820000  33.2370000   2.1590000
  32.0450000  31.6770000   3.4890000  32.9680000  32.8510000   4.0110000
  31.4670000  32.9800000   1.6990000  33.4600000  32.7180000   1.4010000
  32.3140000  34.2030000   2.2410000  33.4240000  31.7580000   1.3300000
  33.4670000  33.1010000   0.5220000  34.2620000  32.9690000   1.8670000
  22.1030000  32.1430000  70.5530000  23.2680000  32.7230000  69.4080000
  23.1620000  32.6570000  71.8510000  23.2800000  32.7180000  67.9450000
  24.4000000  33.1910000  69.9640000  22.8410000  32.5860000  73.2240000
  24.3670000  33.1630000  71.4130000  22.3170000  32.2980000  67.0170000
  24.4500000  33.2880000  67.5040000  25.5490000  33.7920000  68.8040000
  23.7870000  32.9900000  74.1540000  22.0230000  32.2380000  73.4970000
  25.3050000  33.6230000  72.3640000  22.5970000  32.4920000  65.6600000
  21.5160000  31.9280000  67.3120000  24.7150000  33.5540000  66.1410000
  24.9990000  33.5440000  73.7250000  23.4660000  32.9830000  75.6180000
  26.1020000  34.0060000  72.0780000  23.7670000  33.1470000  65.2290000
  22.0090000  32.1270000  65.0390000  25.4930000  33.9950000  65.8880000
  25.6240000  33.8270000  74.3540000  22.4750000  32.1530000  76.1120000
  24.0930000  33.8130000  76.5140000  23.9460000  33.4540000  63.7370000
  22.1280000  32.1330000  77.4510000  22.0480000  31.5540000  75.5430000
  23.7710000  33.7490000  77.8860000  24.7810000  34.3600000  76.2100000
  25.1140000  32.7410000  63.0970000  24.0550000  34.4170000  63.6970000
  23.1100000  33.2110000  63.3090000  22.7960000  32.9280000  78.3380000
  21.4320000  31.6010000  77.7650000  24.2140000  34.3230000  78.4690000
  25.3330000  33.2510000  61.6410000  24.9750000  31.7850000  63.0140000
  25.9490000  32.9020000  63.5630000  22.5900000  32.9040000  79.2440000
  26.5350000  32.6620000  60.9530000  24.5120000  33.0580000  61.1620000
  25.4420000  34.2110000  61.7220000  26.7150000  33.1980000  59.5060000
  26.4180000  31.7040000  60.8610000  27.3530000  32.8410000  61.4440000
  27.9470000  32.6690000  58.7970000  25.8920000  33.0170000  59.0270000
  26.8200000  34.1570000  59.6100000  28.0680000  33.2430000  57.3710000
  27.8250000  31.7120000  58.6910000  28.7600000  32.8380000  59.2980000
  27.2490000  33.0770000  56.8770000  28.1920000  34.1980000  57.4820000
  29.2230000  32.6400000  56.6190000  29.3770000  33.2370000  55.2040000
  29.1400000  31.6770000  56.5340000  30.0630000  32.8510000  57.0560000
  28.5620000  32.9800000  54.7440000  30.5550000  32.7180000  54.4460000
  29.4090000  34.2030000  55.2860000  30.5180000  31.7580000  54.3750000
  30.5620000  33.1010000  53.5670000  31.3570000  32.9690000  54.9120000
  25.0090000  39.8990000  17.5080000  26.1730000  40.4800000  16.3640000
  26.0670000  40.4140000  18.8070000  26.1850000  40.4750000  14.9000000
  27.3050000  40.9470000  16.9190000  25.7460000  40.3420000  20.1790000
  27.2730000  40.9190000  18.3690000  25.2230000  40.0550000  13.9730000
  27.3550000  41.0450000  14.4590000  28.4540000  41.5490000  15.7600000
  26.6930000  40.7470000  21.1090000  24.9280000  39.9950000  20.4530000
  28.2100000  41.3790000  19.3200000  25.5020000  40.2490000  12.6150000
  24.4210000  39.6850000  14.2670000  27.6200000  41.3100000  13.0960000
  27.9040000  41.3010000  20.6800000  26.3710000  40.7390000  22.5740000
  29.0070000  41.7630000  19.0330000  26.6720000  40.9040000  12.1840000
  24.9140000  39.8840000  11.9940000  28.3980000  41.7520000  12.8430000
  28.5290000  41.5840000  21.3090000  25.3810000  39.9100000  23.0670000
  26.9990000  41.5690000  23.4700000  26.8510000  41.2110000  10.6930000
  25.0330000  39.8890000  24.4060000  24.9530000  39.3110000  22.4990000
  26.6760000  41.5060000  24.8410000  27.6860000  42.1170000  23.1660000
  28.0190000  40.4980000  10.0520000  26.9610000  42.1740000  10.6520000
  26.0150000  40.9680000  10.2650000  25.7010000  40.6840000  25.2930000
  24.3370000  39.3580000  24.7210000  27.1200000  42.0790000  25.4240000
  28.2380000  41.0080000   8.5970000  27.8810000  39.5410000   9.9700000
  28.8540000  40.6580000  10.5180000  25.4950000  40.6610000  26.2000000
  29.4400000  40.4190000   7.9090000  27.4170000  40.8150000   8.1180000
  28.3470000  41.9680000   8.6770000  29.6200000  40.9550000   6.4620000
  29.3230000  39.4600000   7.8160000  30.2580000  40.5980000   8.3990000
  30.8520000  40.4250000   5.7520000  28.7970000  40.7730000   5.9820000
  29.7260000  41.9140000   6.5660000  30.9730000  40.9990000   4.3260000
  30.7300000  39.4690000   5.6470000  31.6650000  40.5950000   6.2540000
  30.1550000  40.8340000   3.8330000  31.0980000  41.9550000   4.4370000
  32.1280000  40.3970000   3.5740000  32.2820000  40.9940000   2.1590000
  32.0450000  39.4340000   3.4890000  32.9680000  40.6070000   4.0110000
  31.4670000  40.7360000   1.6990000  33.4600000  40.4750000   1.4010000
  32.3140000  41.9600000   2.2410000  33.4240000  39.5150000   1.3300000
  33.4670000  40.8570000   0.5220000  34.2620000  40.7260000   1.8670000
  22.1030000  39.8990000  70.5530000  23.2680000  40.4800000  69.4080000
  23.1620000  40.4140000  71.8510000  23.2800000  40.4750000  67.9450000
  24.4000000  40.9470000  69.9640000  22.8410000  40.3420000  73.2240000
  24.3670000  40.9190000  71.4130000  22.3170000  40.0550000  67.0170000
  24.4500000  41.0450000  67.5040000  25.5490000  41.5490000  68.8040000
  23.7870000  40.7470000  74.1540000  22.0230000  39.9950000  73.4970000
  25.3050000  41.3790000  72.3640000  22.5970000  40.2490000  65.6600000
  21.5160000  39.6850000  67.3120000  24.7150000  41.3100000  66.1410000
  24.9990000  41.3010000  73.7250000  23.4660000  40.7390000  75.6180000
  26.1020000  41.7630000  72.0780000  23.7670000  40.9040000  65.2290000
  22.0090000  39.8840000  65.0390000  25.4930000  41.7520000  65.8880000
  25.6240000  41.5840000  74.3540000  22.4750000  39.9100000  76.1120000
  24.0930000  41.5690000  76.5140000  23.9460000  41.2110000  63.7370000
  22.1280000  39.8890000  77.4510000  22.0480000  39.3110000  75.5430000
  23.7710000  41.5060000  77.8860000  24.7810000  42.1170000  76.2100000
  25.1140000  40.4980000  63.0970000  24.0550000  42.1740000  63.6970000
  23.1100000  40.9680000  63.3090000  22.7960000  40.6840000  78.3380000
  21.4320000  39.3580000  77.7650000  24.2140000  42.0790000  78.4690000
  25.3330000  41.0080000  61.6410000  24.9750000  39.5410000  63.0140000
  25.9490000  40.6580000  63.5630000  22.5900000  40.6610000  79.2440000
  26.5350000  40.4190000  60.9530000  24.5120000  40.8150000  61.1620000
  25.4420000  41.9680000  61.7220000  26.7150000  40.9550000  59.5060000
  26.4180000  39.4600000  60.8610000  27.3530000  40.5980000  61.4440000
  27.9470000  40.4250000  58.7970000  25.8920000  40.7730000  59.0270000
  26.8200000  41.9140000  59.6100000  28.0680000  40.9990000  57.3710000
  27.8250000  39.4690000  58.6910000  28.7600000  40.5950000  59.2980000
  27.2490000  40.8340000  56.8770000  28.1920000  41.9550000  57.4820000
  29.2230000  40.3970000  56.6190000  29.3770000  40.9940000  55.2040000
  29.1400000  39.4340000  56.5340000  30.0630000  40.6070000  57.0560000
  28.5620000  40.7360000  54.7440000  30.5550000  40.4750000  54.4460000
  29.4090000  41.9600000  55.2860000  30.5180000  39.5150000  54.3750000
  30.5620000  40.8570000  53.5670000  31.3570000  40.7260000  54.9120000
  25.0090000   1.1150000  17.5080000  26.1730000   1.6960000  16.3640000
  26.0670000   1.6300000  18.8070000  26.1850000   1.6910000  14.9000000
  27.3050000   2.1630000  16.9190000  25.7460000   1.5580000  20.1790000
  27.2730000   2.1350000  18.3690000  25.2230000   1.2710000  13.9730000
  27.3550000   2.2610000  14.4590000  28.4540000   2.7650000  15.7600000
  26.6930000   1.9630000  21.1090000  24.9280000   1.2110000  20.4530000
  28.2100000   2.5950000  19.3200000  25.5020000   1.4650000  12.6150000
  24.4210000   0.9010000  14.2670000  27.6200000   2.5260000  13.0960000
  27.9040000   2.5170000  20.6800000  26.3710000   1.9550000  22.5740000
  29.0070000   2.9790000  19.0330000  26.6720000   2.1200000  12.1840000
  24.9140000   1.1000000  11.9940000  28.3980000   2.9680000  12.8430000
  28.5290000   2.8000000  21.3090000  25.3810000   1.1260000  23.0670000
  26.9990000   2.7850000  23.4700000  26.8510000   2.4270000  10.6930000
  25.0330000   1.1050000  24.4060000  24.9530000   0.5270000  22.4990000
  26.6760000   2.7220000  24.8410000  27.6860000   3.3330000  23.1660000
  28.0190000   1.7140000  10.0520000  26.9610000   3.3900000  10.6520000
  26.0150000   2.1840000  10.2650000  25.7010000   1.9000000  25.2930000
  24.3370000   0.5740000  24.7210000  27.1200000   3.2950000  25.4240000
  28.2380000   2.2240000   8.5970000  27.8810000   0.7570000   9.9700000
  28.8540000   1.8740000  10.5180000  25.4950000   1.8770000  26.2000000
  29.4400000   1.6350000   7.9090000  27.4170000   2.0310000   8.1180000
  28.3470000   3.1840000   8.6770000  29.6200000   2.1710000   6.4620000
  29.3230000   0.6760000   7.8160000  30.2580000   1.8140000   8.3990000
  30.8520000   1.6410000   5.7520000  28.7970000   1.9890000   5.9820000
  29.7260000   3.1300000   6.5660000  30.9730000   2.2150000   4.3260000
  30.7300000   0.6850000   5.6470000  31.6650000   1.8110000   6.2540000
  30.1550000   2.0500000   3.8330000  31.0980000   3.1710000   4.4370000
  32.1280000   1.6130000   3.5740000  32.2820000   2.2100000   2.1590000
  32.0450000   0.6500000   3.4890000  32.9680000   1.8230000   4.0110000
  31.4670000   1.9520000   1.6990000  33.4600000   1.6910000   1.4010000
  32.3140000   3.1760000   2.2410000  33.4240000   0.7310000   1.3300000
  33.4670000   2.0730000   0.5220000  34.2620000   1.9420000   1.8670000
  22.1030000   1.1150000  70.5530000  23.2680000   1.6960000  69.4080000
  23.1620000   1.6300000  71.8510000  23.2800000   1.6910000  67.9450000
  24.4000000   2.1630000  69.9640000  22.8410000   1.5580000  73.2240000
  24.3670000   2.1350000  71.4130000  22.3170000   1.2710000  67.0170000
  24.4500000   2.2610000  67.5040000  25.5490000   2.7650000  68.8040000
  23.7870000   1.9630000  74.1540000  22.0230000   1.2110000  73.4970000
  25.3050000   2.5950000  72.3640000  22.5970000   1.4650000  65.6600000
  21.5160000   0.9010000  67.3120000  24.7150000   2.5260000  66.1410000
  24.9990000   2.5170000  73.7250000  23.4660000   1.9550000  75.6180000
  26.1020000   2.9790000  72.0780000  23.7670000   2.1200000  65.2290000
  22.0090000   1.1000000  65.0390000  25.4930000   2.9680000  65.8880000
  25.6240000   2.8000000  74.3540000  22.4750000   1.1260000  76.1120000
  24.0930000   2.7850000  76.5140000  23.9460000   2.4270000  63.7370000
  22.1280000   1.1050000  77.4510000  22.0480000   0.5270000  75.5430000
  23.7710000   2.7220000  77.8860000  24.7810000   3.3330000  76.2100000
  25.1140000   1.7140000  63.0970000  24.0550000   3.3900000  63.6970000
  23.1100000   2.1840000  63.3090000  22.7960000   1.9000000  78.3380000
  21.4320000   0.5740000  77.7650000  24.2140000   3.2950000  78.4690000
  25.3330000   2.2240000  61.6410000  24.9750000   0.7570000  63.0140000
  25.9490000   1.8740000  63.5630000  22.5900000   1.8770000  79.2440000
  26.5350000   1.6350000  60.9530000  24.5120000   2.0310000  61.1620000
  25.4420000   3.1840000  61.7220000  26.7150000   2.1710000  59.5060000
  26.4180000   0.6760000  60.8610000  27.3530000   1.8140000  61.4440000
  27.9470000   1.6410000  58.7970000  25.8920000   1.9890000  59.0270000
  26.8200000   3.1300000  59.6100000  28.0680000   2.2150000  57.3710000
  27.8250000   0.6850000  58.6910000  28.7600000   1.8110000  59.2980000
  27.2490000   2.0500000  56.8770000  28.1920000   3.1710000  57.4820000
  29.2230000   1.6130000  56.6190000  29.3770000   2.2100000  55.2040000
  29.1400000   0.6500000  56.5340000  30.0630000   1.8230000  57.0560000
  28.5620000   1.9520000  54.7440000  30.5550000   1.6910000  54.4460000
  29.4090000   3.1760000  55.2860000  30.5180000   0.7310000  54.3750000
  30.5620000   2.0730000  53.5670000  31.3570000   1.9420000  54.9120000
  32.5570000   4.9940000  35.5360000  31.3930000   5.5740000  36.6810000
  31.4990000   5.5080000  34.2380000  31.3800000   5.5690000  38.1440000
  30.2600000   6.0420000  36.1250000  31.8190000   5.4370000  32.8650000
  30.2930000   6.0140000  34.6760000  32.3430000   5.1490000  39.0720000
  30.2110000   6.1400000  38.5850000  29.1120000   6.6430000  37.2850000
  30.8730000   5.8420000  31.9350000  32.6380000   5.0890000  32.5920000
  29.3560000   6.4740000  33.7250000  32.0640000   5.3440000  40.4290000
  33.1440000   4.7800000  38.7770000  29.9460000   6.4050000  39.9480000
  29.6610000   6.3950000  32.3640000  31.1950000   5.8340000  30.4710000
  28.5580000   6.8570000  34.0110000  30.8940000   5.9980000  40.8600000
  32.6520000   4.9780000  41.0500000  29.1680000   6.8460000  40.2010000
  29.0370000   6.6790000  31.7350000  32.1850000   5.0040000  29.9770000
  30.5670000   6.6640000  29.5750000  30.7140000   6.3060000  42.3520000
  32.5330000   4.9840000  28.6380000  32.6120000   4.4050000  30.5460000
  30.8900000   6.6000000  28.2030000  29.8790000   7.2120000  29.8790000
  29.5470000   5.5930000  42.9920000  30.6050000   7.2690000  42.3920000
  31.5500000   6.0620000  42.7800000  31.8650000   5.7790000  27.7510000
  33.2280000   4.4520000  28.3240000  30.4460000   7.1740000  27.6200000
  29.3270000   6.1020000  44.4480000  29.6850000   4.6360000  43.0750000
  28.7110000   5.7530000  42.5260000  32.0710000   5.7550000  26.8450000
  28.1260000   5.5140000  45.1360000  30.1480000   5.9100000  44.9270000
  29.2190000   7.0630000  44.3670000  27.9450000   6.0500000  46.5830000
  28.2430000   4.5550000  45.2280000  27.3080000   5.6920000  44.6450000
  26.7130000   5.5200000  47.2920000  28.7680000   5.8680000  47.0620000
  27.8400000   7.0080000  46.4790000  26.5920000   6.0940000  48.7180000
  26.8350000   4.5630000  47.3980000  25.9010000   5.6890000  46.7910000
  27.4110000   5.9290000  49.2120000  26.4680000   7.0490000  48.6070000
  25.4370000   5.4910000  49.4700000  25.2840000   6.0880000  50.8850000
  25.5210000   4.5280000  49.5550000  24.5980000   5.7020000  49.0330000
  26.0990000   5.8310000  51.3450000  24.1050000   5.5690000  51.6430000
  25.2510000   7.0540000  50.8030000  24.1420000   4.6090000  51.7140000
  24.0980000   5.9520000  52.5220000  23.3040000   5.8200000  51.1770000
  29.6520000   4.9940000  88.5810000  28.4870000   5.5740000  89.7250000
  28.5930000   5.5080000  87.2820000  28.4750000   5.5690000  91.1890000
  27.3550000   6.0420000  89.1700000  28.9140000   5.4370000  85.9100000
  27.3880000   6.0140000  87.7200000  29.4380000   5.1490000  92.1160000
  27.3060000   6.1400000  91.6300000  26.2060000   6.6430000  90.3290000
  27.9680000   5.8420000  84.9800000  29.7320000   5.0890000  85.6360000
  26.4510000   6.4740000  86.7690000  29.1580000   5.3440000  93.4740000
  30.2390000   4.7800000  91.8220000  27.0400000   6.4050000  92.9930000
  26.7560000   6.3950000  85.4090000  28.2890000   5.8340000  83.5150000
  25.6530000   6.8570000  87.0560000  27.9880000   5.9980000  93.9050000
  29.7460000   4.9780000  94.0950000  26.2620000   6.8460000  93.2460000
  26.1320000   6.6790000  84.7800000  29.2800000   5.0040000  83.0220000
  27.6620000   6.6640000  82.6190000  27.8090000   6.3060000  95.3960000
  29.6280000   4.9840000  81.6830000  29.7070000   4.4050000  83.5900000
  27.9840000   6.6000000  81.2480000  26.9740000   7.2120000  82.9230000
  26.6410000   5.5930000  96.0370000  27.7000000   7.2690000  95.4370000
  28.6450000   6.0620000  95.8240000  28.9600000   5.7790000  80.7960000
  30.3230000   4.4520000  81.3680000  27.5410000   7.1740000  80.6650000
  26.4220000   6.1020000  97.4920000  26.7800000   4.6360000  96.1190000
  25.8060000   5.7530000  95.5710000  29.1650000   5.7550000  79.8890000
  25.2200000   5.5140000  98.1800000  27.2430000   5.9100000  97.9710000
  26.3140000   7.0630000  97.4120000  25.0400000   6.0500000  99.6270000
  25.3370000   4.5550000  98.2730000  24.4030000   5.6920000  97.6900000
  23.8080000   5.5200000 100.3370000  25.8630000   5.8680000 100.1070000
  24.9350000   7.0080000  99.5230000  23.6870000   6.0940000 101.7630000
  23.9300000   4.5630000 100.4420000  22.9960000   5.6890000  99.8350000
  24.5060000   5.9290000 102.2560000  23.5630000   7.0490000 101.6520000
  22.5320000   5.4910000 102.5150000  22.3780000   6.0880000 103.9300000
  22.6150000   4.5280000 102.6000000  21.6920000   5.7020000 102.0780000
  23.1930000   5.8310000 104.3900000  21.2000000   5.5690000 104.6880000
  22.3460000   7.0540000 103.8480000  21.2370000   4.6090000 104.7590000
  21.1930000   5.9520000 105.5670000  20.3980000   5.8200000 104.2220000
  32.5570000  12.7510000  35.5360000  31.3930000  13.3310000  36.6810000
  31.4990000  13.2650000  34.2380000  31.3800000  13.3260000  38.1440000
  30.2600000  13.7990000  36.1250000  31.8190000  13.1940000  32.8650000
  30.2930000  13.7710000  34.6760000  32.3430000  12.9060000  39.0720000
  30.2110000  13.8960000  38.5850000  29.1120000  14.4000000  37.2850000
  30.8730000  13.5980000  31.9350000  32.6380000  12.8460000  32.5920000
  29.3560000  14.2310000  33.7250000  32.0640000  13.1000000  40.4290000
  33.1440000  12.5360000  38.7770000  29.9460000  14.1620000  39.9480000
  29.6610000  14.1520000  32.3640000  31.1950000  13.5910000  30.4710000
  28.5580000  14.6140000  34.0110000  30.8940000  13.7550000  40.8600000
  32.6520000  12.7350000  41.0500000  29.1680000  14.6030000  40.2010000
  29.0370000  14.4350000  31.7350000  32.1850000  12.7610000  29.9770000
  30.5670000  14.4210000  29.5750000  30.7140000  14.0620000  42.3520000
  32.5330000  12.7410000  28.6380000  32.6120000  12.1620000  30.5460000
  30.8900000  14.3570000  28.2030000  29.8790000  14.9680000  29.8790000
  29.5470000  13.3490000  42.9920000  30.6050000  15.0250000  42.3920000
  31.5500000  13.8190000  42.7800000  31.8650000  13.5360000  27.7510000
  33.2280000  12.2090000  28.3240000  30.4460000  14.9310000  27.6200000
  29.3270000  13.8590000  44.4480000  29.6850000  12.3930000  43.0750000
  28.7110000  13.5100000  42.5260000  32.0710000  13.5120000  26.8450000
  28.1260000  13.2700000  45.1360000  30.1480000  13.6660000  44.9270000
  29.2190000  14.8190000  44.3670000  27.9450000  13.8060000  46.5830000
  28.2430000  12.3120000  45.2280000  27.3080000  13.4490000  44.6450000
  26.7130000  13.2770000  47.2920000  28.7680000  13.6250000  47.0620000
  27.8400000  14.7650000  46.4790000  26.5920000  13.8510000  48.7180000
  26.8350000  12.3200000  47.3980000  25.9010000  13.4460000  46.7910000
  27.4110000  13.6850000  49.2120000  26.4680000  14.8060000  48.6070000
  25.4370000  13.2480000  49.4700000  25.2840000  13.8450000  50.8850000
  25.5210000  12.2850000  49.5550000  24.5980000  13.4590000  49.0330000
  26.0990000  13.5880000  51.3450000  24.1050000  13.3260000  51.6430000
  25.2510000  14.8110000  50.8030000  24.1420000  12.3660000  51.7140000
  24.0980000  13.7090000  52.5220000  23.3040000  13.5770000  51.1770000
  29.6520000  12.7510000  88.5810000  28.4870000  13.3310000  89.7250000
  28.5930000  13.2650000  87.2820000  28.4750000  13.3260000  91.1890000
  27.3550000  13.7990000  89.1700000  28.9140000  13.1940000  85.9100000
  27.3880000  13.7710000  87.7200000  29.4380000  12.9060000  92.1160000
  27.3060000  13.8960000  91.6300000  26.2060000  14.4000000  90.3290000
  27.9680000  13.5980000  84.9800000  29.7320000  12.8460000  85.6360000
  26.4510000  14.2310000  86.7690000  29.1580000  13.1000000  93.4740000
  30.2390000  12.5360000  91.8220000  27.0400000  14.1620000  92.9930000
  26.7560000  14.1520000  85.4090000  28.2890000  13.5910000  83.5150000
  25.6530000  14.6140000  87.0560000  27.9880000  13.7550000  93.9050000
  29.7460000  12.7350000  94.0950000  26.2620000  14.6030000  93.2460000
  26.1320000  14.4350000  84.7800000  29.2800000  12.7610000  83.0220000
  27.6620000  14.4210000  82.6190000  27.8090000  14.0620000  95.3960000
  29.6280000  12.7410000  81.6830000  29.7070000  12.1620000  83.5900000
  27.9840000  14.3570000  81.2480000  26.9740000  14.9680000  82.9230000
  26.6410000  13.3490000  96.0370000  27.7000000  15.0250000  95.4370000
  28.6450000  13.8190000  95.8240000  28.9600000  13.5360000  80.7960000
  30.3230000  12.2090000  81.3680000  27.5410000  14.9310000  80.6650000
  26.4220000  13.8590000  97.4920000  26.7800000  12.3930000  96.1190000
  25.8060000  13.5100000  95.5710000  29.1650000  13.5120000  79.8890000
  25.2200000  13.2700000  98.1800000  27.2430000  13.6660000  97.9710000
  26.3140000  14.8190000  97.4120000  25.0400000  13.8060000  99.6270000
  25.3370000  12.3120000  98.2730000  24.4030000  13.4490000  97.6900000
  23.8080000  13.2770000 100.3370000  25.8630000  13.6250000 100.1070000
  24.9350000  14.7650000  99.5230000  23.6870000  13.8510000 101.7630000
  23.9300000  12.3200000 100.4420000  22.9960000  13.4460000  99.8350000
  24.5060000  13.6850000 102.2560000  23.5630000  14.8060000 101.6520000
  22.5320000  13.2480000 102.5150000  22.3780000  13.8450000 103.9300000
  22.6150000  12.2850000 102.6000000  21.6920000  13.4590000 102.0780000
  23.1930000  13.5880000 104.3900000  21.2000000  13.3260000 104.6880000
  22.3460000  14.8110000 103.8480000  21.2370000  12.3660000 104.7590000
  21.1930000  13.7090000 105.5670000  20.3980000  13.5770000 104.2220000
  32.5570000  20.5070000  35.5360000  31.3930000  21.0880000  36.6810000
  31.4990000  21.0220000  34.2380000  31.3800000  21.0830000  38.1440000
  30.2600000  21.5550000  36.1250000  31.8190000  20.9500000  32.8650000
  30.2930000  21.5270000  34.6760000  32.3430000  20.6630000  39.0720000
  30.2110000  21.6530000  38.5850000  29.1120000  22.1570000  37.2850000
  30.8730000  21.3550000  31.9350000  32.6380000  20.6030000  32.5920000
  29.3560000  21.9870000  33.7250000  32.0640000  20.8570000  40.4290000
  33.1440000  20.2930000  38.7770000  29.9460000  21.9180000  39.9480000
  29.6610000  21.9090000  32.3640000  31.1950000  21.3470000  30.4710000
  28.5580000  22.3710000  34.0110000  30.8940000  21.5120000  40.8600000
  32.6520000  20.4920000  41.0500000  29.1680000  22.3600000  40.2010000
  29.0370000  22.1920000  31.7350000  32.1850000  20.5180000  29.9770000
  30.5670000  22.1770000  29.5750000  30.7140000  21.8190000  42.3520000
  32.5330000  20.4970000  28.6380000  32.6120000  19.9190000  30.5460000
  30.8900000  22.1140000  28.2030000  29.8790000  22.7250000  29.8790000
  29.5470000  21.1060000  42.9920000  30.6050000  22.7820000  42.3920000
  31.5500000  21.5760000  42.7800000  31.8650000  21.2920000  27.7510000
  33.2280000  19.9660000  28.3240000  30.4460000  22.6870000  27.6200000
  29.3270000  21.6160000  44.4480000  29.6850000  20.1490000  43.0750000
  28.7110000  21.2660000  42.5260000  32.0710000  21.2690000  26.8450000
  28.1260000  21.0270000  45.1360000  30.1480000  21.4230000  44.9270000
  29.2190000  22.5760000  44.3670000  27.9450000  21.5630000  46.5830000
  28.2430000  20.0680000  45.2280000  27.3080000  21.2060000  44.6450000
  26.7130000  21.0330000  47.2920000  28.7680000  21.3810000  47.0620000
  27.8400000  22.5220000  46.4790000  26.5920000  21.6070000  48.7180000
  26.8350000  20.0770000  47.3980000  25.9010000  21.2030000  46.7910000
  27.4110000  21.4420000  49.2120000  26.4680000  22.5630000  48.6070000
  25.4370000  21.0050000  49.4700000  25.2840000  21.6020000  50.8850000
  25.5210000  20.0420000  49.5550000  24.5980000  21.2150000  49.0330000
  26.0990000  21.3440000  51.3450000  24.1050000  21.0830000  51.6430000
  25.2510000  22.5680000  50.8030000  24.1420000  20.1230000  51.7140000
  24.0980000  21.4650000  52.5220000  23.3040000  21.3340000  51.1770000
  29.6520000  20.5070000  88.5810000  28.4870000  21.0880000  89.7250000
  28.5930000  21.0220000  87.2820000  28.4750000  21.0830000  91.1890000
  27.3550000  21.5550000  89.1700000  28.9140000  20.9500000  85.9100000
  27.3880000  21.5270000  87.7200000  29.4380000  20.6630000  92.1160000
  27.3060000  21.6530000  91.6300000  26.2060000  22.1570000  90.3290000
  27.9680000  21.3550000  84.9800000  29.7320000  20.6030000  85.6360000
  26.4510000  21.9870000  86.7690000  29.1580000  20.8570000  93.4740000
  30.2390000  20.2930000  91.8220000  27.0400000  21.9180000  92.9930000
  26.7560000  21.9090000  85.4090000  28.2890000  21.3470000  83.5150000
  25.6530000  22.3710000  87.0560000  27.9880000  21.5120000  93.9050000
  29.7460000  20.4920000  94.0950000  26.2620000  22.3600000  93.2460000
  26.1320000  22.1920000  84.7800000  29.2800000  20.5180000  83.0220000
  27.6620000  22.1770000  82.6190000  27.8090000  21.8190000  95.3960000
  29.6280000  20.4970000  81.6830000  29.7070000  19.9190000  83.5900000
  27.9840000  22.1140000  81.2480000  26.9740000  22.7250000  82.9230000
  26.6410000  21.1060000  96.0370000  27.7000000  22.7820000  95.4370000
  28.6450000  21.5760000  95.8240000  28.9600000  21.2920000  80.7960000
  30.3230000  19.9660000  81.3680000  27.5410000  22.6870000  80.6650000
  26.4220000  21.6160000  97.4920000  26.7800000  20.1490000  96.1190000
  25.8060000  21.2660000  95.5710000  29.1650000  21.2690000  79.8890000
  25.2200000  21.0270000  98.1800000  27.2430000  21.4230000  97.9710000
  26.3140000  22.5760000  97.4120000  25.0400000  21.5630000  99.6270000
  25.3370000  20.0680000  98.2730000  24.4030000  21.2060000  97.6900000
  23.8080000  21.0330000 100.3370000  25.8630000  21.3810000 100.1070000
  24.9350000  22.5220000  99.5230000  23.6870000  21.6070000 101.7630000
  23.9300000  20.0770000 100.4420000  22.9960000  21.2030000  99.8350000
  24.5060000  21.4420000 102.2560000  23.5630000  22.5630000 101.6520000
  22.5320000  21.0050000 102.5150000  22.3780000  21.6020000 103.9300000
  22.6150000  20.0420000 102.6000000  21.6920000  21.2150000 102.0780000
  23.1930000  21.3440000 104.3900000  21.2000000  21.0830000 104.6880000
  22.3460000  22.5680000 103.8480000  21.2370000  20.1230000 104.7590000
  21.1930000  21.4650000 105.5670000  20.3980000  21.3340000 104.2220000
  32.5570000  28.2640000  35.5360000  31.3930000  28.8440000  36.6810000
  31.4990000  28.7790000  34.2380000  31.3800000  28.8400000  38.1440000
  30.2600000  29.3120000  36.1250000  31.8190000  28.7070000  32.8650000
  30.2930000  29.2840000  34.6760000  32.3430000  28.4190000  39.0720000
  30.2110000  29.4100000  38.5850000  29.1120000  29.9130000  37.2850000
  30.8730000  29.1120000  31.9350000  32.6380000  28.3600000  32.5920000
  29.3560000  29.7440000  33.7250000  32.0640000  28.6140000  40.4290000
  33.1440000  28.0500000  38.7770000  29.9460000  29.6750000  39.9480000
  29.6610000  29.6660000  32.3640000  31.1950000  29.1040000  30.4710000
  28.5580000  30.1280000  34.0110000  30.8940000  29.2690000  40.8600000
  32.6520000  28.2480000  41.0500000  29.1680000  30.1160000  40.2010000
  29.0370000  29.9490000  31.7350000  32.1850000  28.2740000  29.9770000
  30.5670000  29.9340000  29.5750000  30.7140000  29.5760000  42.3520000
  32.5330000  28.2540000  28.6380000  32.6120000  27.6760000  30.5460000
  30.8900000  29.8710000  28.2030000  29.8790000  30.4820000  29.8790000
  29.5470000  28.8630000  42.9920000  30.6050000  30.5390000  42.3920000
  31.5500000  29.3320000  42.7800000  31.8650000  29.0490000  27.7510000
  33.2280000  27.7230000  28.3240000  30.4460000  30.4440000  27.6200000
  29.3270000  29.3730000  44.4480000  29.6850000  27.9060000  43.0750000
  28.7110000  29.0230000  42.5260000  32.0710000  29.0260000  26.8450000
  28.1260000  28.7840000  45.1360000  30.1480000  29.1800000  44.9270000
  29.2190000  30.3330000  44.3670000  27.9450000  29.3200000  46.5830000
  28.2430000  27.8250000  45.2280000  27.3080000  28.9620000  44.6450000
  26.7130000  28.7900000  47.2920000  28.7680000  29.1380000  47.0620000
  27.8400000  30.2780000  46.4790000  26.5920000  29.3640000  48.7180000
  26.8350000  27.8340000  47.3980000  25.9010000  28.9600000  46.7910000
  27.4110000  29.1990000  49.2120000  26.4680000  30.3190000  48.6070000
  25.4370000  28.7610000  49.4700000  25.2840000  29.3590000  50.8850000
  25.5210000  27.7980000  49.5550000  24.5980000  28.9720000  49.0330000
  26.0990000  29.1010000  51.3450000  24.1050000  28.8400000  51.6430000
  25.2510000  30.3250000  50.8030000  24.1420000  27.8800000  51.7140000
  24.0980000  29.2220000  52.5220000  23.3040000  29.0900000  51.1770000
  29.6520000  28.2640000  88.5810000  28.4870000  28.8440000  89.7250000
  28.5930000  28.7790000  87.2820000  28.4750000  28.8400000  91.1890000
  27.3550000  29.3120000  89.1700000  28.9140000  28.7070000  85.9100000
  27.3880000  29.2840000  87.7200000  29.4380000  28.4190000  92.1160000
  27.3060000  29.4100000  91.6300000  26.2060000  29.9130000  90.3290000
  27.9680000  29.1120000  84.9800000  29.7320000  28.3600000  85.6360000
  26.4510000  29.7440000  86.7690000  29.1580000  28.6140000  93.4740000
  30.2390000  28.0500000  91.8220000  27.0400000  29.6750000  92.9930000
  26.7560000  29.6660000  85.4090000  28.2890000  29.1040000  83.5150000
  25.6530000  30.1280000  87.0560000  27.9880000  29.2690000  93.9050000
  29.7460000  28.2480000  94.0950000  26.2620000  30.1160000  93.2460000
  26.1320000  29.9490000  84.7800000  29.2800000  28.2740000  83.0220000
  27.6620000  29.9340000  82.6190000  27.8090000  29.5760000  95.3960000
  29.6280000  28.2540000  81.6830000  29.7070000  27.6760000  83.5900000
  27.9840000  29.8710000  81.2480000  26.9740000  30.4820000  82.9230000
  26.6410000  28.8630000  96.0370000  27.7000000  30.5390000  95.4370000
  28.6450000  29.3320000  95.8240000  28.9600000  29.0490000  80.7960000
  30.3230000  27.7230000  81.3680000  27.5410000  30.4440000  80.6650000
  26.4220000  29.3730000  97.4920000  26.7800000  27.9060000  96.1190000
  25.8060000  29.0230000  95.5710000  29.1650000  29.0260000  79.8890000
  25.2200000  28.7840000  98.1800000  27.2430000  29.1800000  97.9710000
  26.3140000  30.3330000  97.4120000  25.0400000  29.3200000  99.6270000
  25.3370000  27.8250000  98.2730000  24.4030000  28.9620000  97.6900000
  23.8080000  28.7900000 100.3370000  25.8630000  29.1380000 100.1070000
  24.9350000  30.2780000  99.5230000  23.6870000  29.3640000 101.7630000
  23.9300000  27.8340000 100.4420000  22.9960000  28.9600000  99.8350000
  24.5060000  29.1990000 102.2560000  23.5630000  30.3190000 101.6520000
  22.5320000  28.7610000 102.5150000  22.3780000  29.3590000 103.9300000
  22.6150000  27.7980000 102.6000000  21.6920000  28.9720000 102.0780000
  23.1930000  29.1010000 104.3900000  21.2000000  28.8400000 104.6880000
  22.3460000  30.3250000 103.8480000  21.2370000  27.8800000 104.7590000
  21.1930000  29.2220000 105.5670000  20.3980000  29.0900000 104.2220000
  32.5570000  36.0210000  35.5360000  31.3930000  36.6010000  36.6810000
  31.4990000  36.5350000  34.2380000  31.3800000  36.5970000  38.1440000
  30.2600000  37.0690000  36.1250000  31.8190000  36.4640000  32.8650000
  30.2930000  37.0410000  34.6760000  32.3430000  36.1760000  39.0720000
  30.2110000  37.1670000  38.5850000  29.1120000  37.6700000  37.2850000
  30.8730000  36.8690000  31.9350000  32.6380000  36.1170000  32.5920000
  29.3560000  37.5010000  33.7250000  32.0640000  36.3710000  40.4290000
  33.1440000  35.8070000  38.7770000  29.9460000  37.4320000  39.9480000
  29.6610000  37.4230000  32.3640000  31.1950000  36.8610000  30.4710000
  28.5580000  37.8850000  34.0110000  30.8940000  37.0260000  40.8600000
  32.6520000  36.0050000  41.0500000  29.1680000  37.8730000  40.2010000
  29.0370000  37.7060000  31.7350000  32.1850000  36.0310000  29.9770000
  30.5670000  37.6910000  29.5750000  30.7140000  37.3330000  42.3520000
  32.5330000  36.0110000  28.6380000  32.6120000  35.4320000  30.5460000
  30.8900000  37.6270000  28.2030000  29.8790000  38.2390000  29.8790000
  29.5470000  36.6200000  42.9920000  30.6050000  38.2960000  42.3920000
  31.5500000  37.0890000  42.7800000  31.8650000  36.8060000  27.7510000
  33.2280000  35.4790000  28.3240000  30.4460000  38.2010000  27.6200000
  29.3270000  37.1290000  44.4480000  29.6850000  35.6630000  43.0750000
  28.7110000  36.7800000  42.5260000  32.0710000  36.7830000  26.8450000
  28.1260000  36.5410000  45.1360000  30.1480000  36.9370000  44.9270000
  29.2190000  38.0900000  44.3670000  27.9450000  37.0770000  46.5830000
  28.2430000  35.5820000  45.2280000  27.3080000  36.7190000  44.6450000
  26.7130000  36.5470000  47.2920000  28.7680000  36.8950000  47.0620000
  27.8400000  38.0350000  46.4790000  26.5920000  37.1210000  48.7180000
  26.8350000  35.5900000  47.3980000  25.9010000  36.7170000  46.7910000
  27.4110000  36.9560000  49.2120000  26.4680000  38.0760000  48.6070000
  25.4370000  36.5180000  49.4700000  25.2840000  37.1160000  50.8850000
  25.5210000  35.5550000  49.5550000  24.5980000  36.7290000  49.0330000
  26.0990000  36.8580000  51.3450000  24.1050000  36.5970000  51.6430000
  25.2510000  38.0810000  50.8030000  24.1420000  35.6370000  51.7140000
  24.0980000  36.9790000  52.5220000  23.3040000  36.8470000  51.1770000
  29.6520000  36.0210000  88.5810000  28.4870000  36.6010000  89.7250000
  28.5930000  36.5350000  87.2820000  28.4750000  36.5970000  91.1890000
  27.3550000  37.0690000  89.1700000  28.9140000  36.4640000  85.9100000
  27.3880000  37.0410000  87.7200000  29.4380000  36.1760000  92.1160000
  27.3060000  37.1670000  91.6300000  26.2060000  37.6700000  90.3290000
  27.9680000  36.8690000  84.9800000  29.7320000  36.1170000  85.6360000
  26.4510000  37.5010000  86.7690000  29.1580000  36.3710000  93.4740000
  30.2390000  35.8070000  91.8220000  27.0400000  37.4320000  92.9930000
  26.7560000  37.4230000  85.4090000  28.2890000  36.8610000  83.5150000
  25.6530000  37.8850000  87.0560000  27.9880000  37.0260000  93.9050000
  29.7460000  36.0050000  94.0950000  26.2620000  37.8730000  93.2460000
  26.1320000  37.7060000  84.7800000  29.2800000  36.0310000  83.0220000
  27.6620000  37.6910000  82.6190000  27.8090000  37.3330000  95.3960000
  29.6280000  36.0110000  81.6830000  29.7070000  35.4320000  83.5900000
  27.9840000  37.6270000  81.2480000  26.9740000  38.2390000  82.9230000
  26.6410000  36.6200000  96.0370000  27.7000000  38.2960000  95.4370000
  28.6450000  37.0890000  95.8240000  28.9600000  36.8060000  80.7960000
  30.3230000  35.4790000  81.3680000  27.5410000  38.2010000  80.6650000
  26.4220000  37.1290000  97.4920000  26.7800000  35.6630000  96.1190000
  25.8060000  36.7800000  95.5710000  29.1650000  36.7830000  79.8890000
  25.2200000  36.5410000  98.1800000  27.2430000  36.9370000  97.9710000
  26.3140000  38.0900000  97.4120000  25.0400000  37.0770000  99.6270000
  25.3370000  35.5820000  98.2730000  24.4030000  36.7190000  97.6900000
  23.8080000  36.5470000 100.3370000  25.8630000  36.8950000 100.1070000
  24.9350000  38.0350000  99.5230000  23.6870000  37.1210000 101.7630000
  23.9300000  35.5900000 100.4420000  22.9960000  36.7170000  99.8350000
  24.5060000  36.9560000 102.2560000  23.5630000  38.0760000 101.6520000
  22.5320000  36.5180000 102.5150000  22.3780000  37.1160000 103.9300000
  22.6150000  35.5550000 102.6000000  21.6920000  36.7290000 102.0780000
  23.1930000  36.8580000 104.3900000  21.2000000  36.5970000 104.6880000
  22.3460000  38.0810000 103.8480000  21.2370000  35.6370000 104.7590000
  21.1930000  36.9790000 105.5670000  20.3980000  36.8470000 104.2220000
  32.5570000  43.7780000  35.5360000  31.3930000  44.3580000  36.6810000
  31.4990000  44.2920000  34.2380000  31.3800000  44.3530000  38.1440000
  30.2600000  44.8260000  36.1250000  31.8190000  44.2210000  32.8650000
  30.2930000  44.7980000  34.6760000  32.3430000  43.9330000  39.0720000
  30.2110000  44.9240000  38.5850000  29.1120000  45.4270000  37.2850000
  30.8730000  44.6260000  31.9350000  32.6380000  43.8730000  32.5920000
  29.3560000  45.2580000  33.7250000  32.0640000  44.1280000  40.4290000
  33.1440000  43.5640000  38.7770000  29.9460000  45.1890000  39.9480000
  29.6610000  45.1790000  32.3640000  31.1950000  44.6180000  30.4710000
  28.5580000  45.6410000  34.0110000  30.8940000  44.7820000  40.8600000
  32.6520000  43.7620000  41.0500000  29.1680000  45.6300000  40.2010000
  29.0370000  45.4630000  31.7350000  32.1850000  43.7880000  29.9770000
  30.5670000  45.4480000  29.5750000  30.7140000  45.0900000  42.3520000
  32.5330000  43.7680000  28.6380000  32.6120000  43.1890000  30.5460000
  30.8900000  45.3840000  28.2030000  29.8790000  45.9960000  29.8790000
  29.5470000  44.3770000  42.9920000  30.6050000  46.0530000  42.3920000
  31.5500000  44.8460000  42.7800000  31.8650000  44.5630000  27.7510000
  33.2280000  43.2360000  28.3240000  30.4460000  45.9580000  27.6200000
  29.3270000  44.8860000  44.4480000  29.6850000  43.4200000  43.0750000
  28.7110000  44.5370000  42.5260000  32.0710000  44.5390000  26.8450000
  28.1260000  44.2980000  45.1360000  30.1480000  44.6940000  44.9270000
  29.2190000  45.8470000  44.3670000  27.9450000  44.8340000  46.5830000
  28.2430000  43.3390000  45.2280000  27.3080000  44.4760000  44.6450000
  26.7130000  44.3040000  47.2920000  28.7680000  44.6520000  47.0620000
  27.8400000  45.7920000  46.4790000  26.5920000  44.8780000  48.7180000
  26.8350000  43.3470000  47.3980000  25.9010000  44.4730000  46.7910000
  27.4110000  44.7130000  49.2120000  26.4680000  45.8330000  48.6070000
  25.4370000  44.2750000  49.4700000  25.2840000  44.8720000  50.8850000
  25.5210000  43.3120000  49.5550000  24.5980000  44.4860000  49.0330000
  26.0990000  44.6150000  51.3450000  24.1050000  44.3530000  51.6430000
  25.2510000  45.8380000  50.8030000  24.1420000  43.3930000  51.7140000
  24.0980000  44.7360000  52.5220000  23.3040000  44.6040000  51.1770000
  29.6520000  43.7780000  88.5810000  28.4870000  44.3580000  89.7250000
  28.5930000  44.2920000  87.2820000  28.4750000  44.3530000  91.1890000
  27.3550000  44.8260000  89.1700000  28.9140000  44.2210000  85.9100000
  27.3880000  44.7980000  87.7200000  29.4380000  43.9330000  92.1160000
  27.3060000  44.9240000  91.6300000  26.2060000  45.4270000  90.3290000
  27.9680000  44.6260000  84.9800000  29.7320000  43.8730000  85.6360000
  26.4510000  45.2580000  86.7690000  29.1580000  44.1280000  93.4740000
  30.2390000  43.5640000  91.8220000  27.0400000  45.1890000  92.9930000
  26.7560000  45.1790000  85.4090000  28.2890000  44.6180000  83.5150000
  25.6530000  45.6410000  87.0560000  27.9880000  44.7820000  93.9050000
  29.7460000  43.7620000  94.0950000  26.2620000  45.6300000  93.2460000
  26.1320000  45.4630000  84.7800000  29.2800000  43.7880000  83.0220000
  27.6620000  45.4480000  82.6190000  27.8090000  45.0900000  95.3960000
  29.6280000  43.7680000  81.6830000  29.7070000  43.1890000  83.5900000
  27.9840000  45.3840000  81.2480000  26.9740000  45.9960000  82.9230000
  26.6410000  44.3770000  96.0370000  27.7000000  46.0530000  95.4370000
  28.6450000  44.8460000  95.8240000  28.9600000  44.5630000  80.7960000
  30.3230000  43.2360000  81.3680000  27.5410000  45.9580000  80.6650000
  26.4220000  44.8860000  97.4920000  26.7800000  43.4200000  96.1190000
  25.8060000  44.5370000  95.5710000  29.1650000  44.5390000  79.8890000
  25.2200000  44.2980000  98.1800000  27.2430000  44.6940000  97.9710000
  26.3140000  45.8470000  97.4120000  25.0400000  44.8340000  99.6270000
  25.3370000  43.3390000  98.2730000  24.4030000  44.4760000  97.6900000
  23.8080000  44.3040000 100.3370000  25.8630000  44.6520000 100.1070000
  24.9350000  45.7920000  99.5230000  23.6870000  44.8780000 101.7630000
  23.9300000  43.3470000 100.4420000  22.9960000  44.4730000  99.8350000
  24.5060000  44.7130000 102.2560000  23.5630000  45.8330000 101.6520000
  22.5320000  44.2750000 102.5150000  22.3780000  44.8720000 103.9300000
  22.6150000  43.3120000 102.6000000  21.6920000  44.4860000 102.0780000
  23.1930000  44.6150000 104.3900000  21.2000000  44.3530000 104.6880000
  22.3460000  45.8380000 103.8480000  21.2370000  43.3930000 104.7590000
  21.1930000  44.7360000 105.5670000  20.3980000  44.6040000 104.2220000
  28.0320000   6.6410000  17.5080000  29.1970000   6.0610000  16.3640000
  29.0910000   6.1270000  18.8070000  29.2090000   6.0660000  14.9000000
  30.3290000   5.5930000  16.9190000  28.7700000   6.1980000  20.1790000
  30.2960000   5.6210000  18.3690000  28.2460000   6.4860000  13.9730000
  30.3780000   5.4960000  14.4590000  31.4780000   4.9920000  15.7600000
  29.7160000   5.7940000  21.1090000  27.9520000   6.5460000  20.4530000
  31.2330000   5.1610000  19.3200000  28.5260000   6.2920000  12.6150000
  27.4450000   6.8560000  14.2670000  30.6440000   5.2300000  13.0960000
  30.9280000   5.2400000  20.6800000  29.3950000   5.8010000  22.5740000
  32.0310000   4.7780000  19.0330000  29.6960000   5.6370000  12.1840000
  27.9380000   6.6570000  11.9940000  31.4220000   4.7890000  12.8430000
  31.5520000   4.9570000  21.3090000  28.4040000   6.6310000  23.0670000
  30.0220000   4.9710000  23.4700000  29.8750000   5.3300000  10.6930000
  28.0560000   6.6510000  24.4060000  27.9770000   7.2300000  22.4990000
  29.7000000   5.0350000  24.8410000  30.7100000   4.4240000  23.1660000
  31.0420000   6.0430000  10.0520000  29.9840000   4.3670000  10.6520000
  29.0390000   5.5730000  10.2650000  28.7240000   5.8560000  25.2930000
  27.3610000   7.1830000  24.7210000  30.1430000   4.4610000  25.4240000
  31.2620000   5.5330000   8.5970000  30.9040000   6.9990000   9.9700000
  31.8780000   5.8820000  10.5180000  28.5190000   5.8800000  26.2000000
  32.4640000   6.1220000   7.9090000  30.4410000   5.7260000   8.1180000
  31.3700000   4.5730000   8.6770000  32.6440000   5.5860000   6.4620000
  32.3470000   7.0800000   7.8160000  33.2810000   5.9430000   8.3990000
  33.8760000   6.1150000   5.7520000  31.8210000   5.7670000   5.9820000
  32.7490000   4.6270000   6.5660000  33.9970000   5.5410000   4.3260000
  33.7540000   7.0720000   5.6470000  34.6880000   5.9460000   6.2540000
  33.1780000   5.7070000   3.8330000  34.1210000   4.5860000   4.4370000
  35.1520000   6.1440000   3.5740000  35.3060000   5.5470000   2.1590000
  35.0690000   7.1070000   3.4890000  35.9920000   5.9330000   4.0110000
  34.4910000   5.8040000   1.6990000  36.4840000   6.0660000   1.4010000
  35.3380000   4.5810000   2.2410000  36.4470000   7.0260000   1.3300000
  36.4910000   5.6830000   0.5220000  37.2860000   5.8150000   1.8670000
  25.1270000   6.6410000  70.5530000  26.2910000   6.0610000  69.4080000
  26.1850000   6.1270000  71.8510000  26.3040000   6.0660000  67.9450000
  27.4240000   5.5930000  69.9640000  25.8650000   6.1980000  73.2240000
  27.3910000   5.6210000  71.4130000  25.3410000   6.4860000  67.0170000
  27.4730000   5.4960000  67.5040000  28.5720000   4.9920000  68.8040000
  26.8110000   5.7940000  74.1540000  25.0460000   6.5460000  73.4970000
  28.3280000   5.1610000  72.3640000  25.6200000   6.2920000  65.6600000
  24.5400000   6.8560000  67.3120000  27.7380000   5.2300000  66.1410000
  28.0230000   5.2400000  73.7250000  26.4890000   5.8010000  75.6180000
  29.1260000   4.7780000  72.0780000  26.7900000   5.6370000  65.2290000
  25.0320000   6.6570000  65.0390000  28.5160000   4.7890000  65.8880000
  28.6470000   4.9570000  74.3540000  25.4990000   6.6310000  76.1120000
  27.1170000   4.9710000  76.5140000  26.9700000   5.3300000  63.7370000
  25.1510000   6.6510000  77.4510000  25.0720000   7.2300000  75.5430000
  26.7940000   5.0350000  77.8860000  27.8050000   4.4240000  76.2100000
  28.1370000   6.0430000  63.0970000  27.0790000   4.3670000  63.6970000
  26.1330000   5.5730000  63.3090000  25.8190000   5.8560000  78.3380000
  24.4560000   7.1830000  77.7650000  27.2380000   4.4610000  78.4690000
  28.3570000   5.5330000  61.6410000  27.9990000   6.9990000  63.0140000
  28.9730000   5.8820000  63.5630000  25.6130000   5.8800000  79.2440000
  29.5580000   6.1220000  60.9530000  27.5360000   5.7260000  61.1620000
  28.4650000   4.5730000  61.7220000  29.7390000   5.5860000  59.5060000
  29.4410000   7.0800000  60.8610000  30.3760000   5.9430000  61.4440000
  30.9710000   6.1150000  58.7970000  28.9160000   5.7670000  59.0270000
  29.8440000   4.6270000  59.6100000  31.0920000   5.5410000  57.3710000
  30.8490000   7.0720000  58.6910000  31.7830000   5.9460000  59.2980000
  30.2730000   5.7070000  56.8770000  31.2160000   4.5860000  57.4820000
  32.2470000   6.1440000  56.6190000  32.4000000   5.5470000  55.2040000
  32.1630000   7.1070000  56.5340000  33.0860000   5.9330000  57.0560000
  31.5850000   5.8040000  54.7440000  33.5790000   6.0660000  54.4460000
  32.4330000   4.5810000  55.2860000  33.5420000   7.0260000  54.3750000
  33.5860000   5.6830000  53.5670000  34.3800000   5.8150000  54.9120000
  28.0320000  14.3980000  17.5080000  29.1970000  13.8180000  16.3640000
  29.0910000  13.8840000  18.8070000  29.2090000  13.8230000  14.9000000
  30.3290000  13.3500000  16.9190000  28.7700000  13.9550000  20.1790000
  30.2960000  13.3780000  18.3690000  28.2460000  14.2430000  13.9730000
  30.3780000  13.2520000  14.4590000  31.4780000  12.7490000  15.7600000
  29.7160000  13.5500000  21.1090000  27.9520000  14.3030000  20.4530000
  31.2330000  12.9180000  19.3200000  28.5260000  14.0480000  12.6150000
  27.4450000  14.6120000  14.2670000  30.6440000  12.9870000  13.0960000
  30.9280000  12.9970000  20.6800000  29.3950000  13.5580000  22.5740000
  32.0310000  12.5350000  19.0330000  29.6960000  13.3940000  12.1840000
  27.9380000  14.4140000  11.9940000  31.4220000  12.5460000  12.8430000
  31.5520000  12.7130000  21.3090000  28.4040000  14.3880000  23.0670000
  30.0220000  12.7280000  23.4700000  29.8750000  13.0860000  10.6930000
  28.0560000  14.4080000  24.4060000  27.9770000  14.9870000  22.4990000
  29.7000000  12.7920000  24.8410000  30.7100000  12.1800000  23.1660000
  31.0420000  13.7990000  10.0520000  29.9840000  12.1230000  10.6520000
  29.0390000  13.3300000  10.2650000  28.7240000  13.6130000  25.2930000
  27.3610000  14.9400000  24.7210000  30.1430000  12.2180000  25.4240000
  31.2620000  13.2900000   8.5970000  30.9040000  14.7560000   9.9700000
  31.8780000  13.6390000  10.5180000  28.5190000  13.6370000  26.2000000
  32.4640000  13.8780000   7.9090000  30.4410000  13.4820000   8.1180000
  31.3700000  12.3290000   8.6770000  32.6440000  13.3420000   6.4620000
  32.3470000  14.8370000   7.8160000  33.2810000  13.7000000   8.3990000
  33.8760000  13.8720000   5.7520000  31.8210000  13.5240000   5.9820000
  32.7490000  12.3840000   6.5660000  33.9970000  13.2980000   4.3260000
  33.7540000  14.8290000   5.6470000  34.6880000  13.7030000   6.2540000
  33.1780000  13.4630000   3.8330000  34.1210000  12.3430000   4.4370000
  35.1520000  13.9010000   3.5740000  35.3060000  13.3040000   2.1590000
  35.0690000  14.8640000   3.4890000  35.9920000  13.6900000   4.0110000
  34.4910000  13.5610000   1.6990000  36.4840000  13.8230000   1.4010000
  35.3380000  12.3380000   2.2410000  36.4470000  14.7830000   1.3300000
  36.4910000  13.4400000   0.5220000  37.2860000  13.5720000   1.8670000
  25.1270000  14.3980000  70.5530000  26.2910000  13.8180000  69.4080000
  26.1850000  13.8840000  71.8510000  26.3040000  13.8230000  67.9450000
  27.4240000  13.3500000  69.9640000  25.8650000  13.9550000  73.2240000
  27.3910000  13.3780000  71.4130000  25.3410000  14.2430000  67.0170000
  27.4730000  13.2520000  67.5040000  28.5720000  12.7490000  68.8040000
  26.8110000  13.5500000  74.1540000  25.0460000  14.3030000  73.4970000
  28.3280000  12.9180000  72.3640000  25.6200000  14.0480000  65.6600000
  24.5400000  14.6120000  67.3120000  27.7380000  12.9870000  66.1410000
  28.0230000  12.9970000  73.7250000  26.4890000  13.5580000  75.6180000
  29.1260000  12.5350000  72.0780000  26.7900000  13.3940000  65.2290000
  25.0320000  14.4140000  65.0390000  28.5160000  12.5460000  65.8880000
  28.6470000  12.7130000  74.3540000  25.4990000  14.3880000  76.1120000
  27.1170000  12.7280000  76.5140000  26.9700000  13.0860000  63.7370000
  25.1510000  14.4080000  77.4510000  25.0720000  14.9870000  75.5430000
  26.7940000  12.7920000  77.8860000  27.8050000  12.1800000  76.2100000
  28.1370000  13.7990000  63.0970000  27.0790000  12.1230000  63.6970000
  26.1330000  13.3300000  63.3090000  25.8190000  13.6130000  78.3380000
  24.4560000  14.9400000  77.7650000  27.2380000  12.2180000  78.4690000
  28.3570000  13.2900000  61.6410000  27.9990000  14.7560000  63.0140000
  28.9730000  13.6390000  63.5630000  25.6130000  13.6370000  79.2440000
  29.5580000  13.8780000  60.9530000  27.5360000  13.4820000  61.1620000
  28.4650000  12.3290000  61.7220000  29.7390000  13.3420000  59.5060000
  29.4410000  14.8370000  60.8610000  30.3760000  13.7000000  61.4440000
  30.9710000  13.8720000  58.7970000  28.9160000  13.5240000  59.0270000
  29.8440000  12.3840000  59.6100000  31.0920000  13.2980000  57.3710000
  30.8490000  14.8290000  58.6910000  31.7830000  13.7030000  59.2980000
  30.2730000  13.4630000  56.8770000  31.2160000  12.3430000  57.4820000
  32.2470000  13.9010000  56.6190000  32.4000000  13.3040000  55.2040000
  32.1630000  14.8640000  56.5340000  33.0860000  13.6900000  57.0560000
  31.5850000  13.5610000  54.7440000  33.5790000  13.8230000  54.4460000
  32.4330000  12.3380000  55.2860000  33.5420000  14.7830000  54.3750000
  33.5860000  13.4400000  53.5670000  34.3800000  13.5720000  54.9120000
  28.0320000  22.1550000  17.5080000  29.1970000  21.5750000  16.3640000
  29.0910000  21.6410000  18.8070000  29.2090000  21.5790000  14.9000000
  30.3290000  21.1070000  16.9190000  28.7700000  21.7120000  20.1790000
  30.2960000  21.1350000  18.3690000  28.2460000  22.0000000  13.9730000
  30.3780000  21.0090000  14.4590000  31.4780000  20.5060000  15.7600000
  29.7160000  21.3070000  21.1090000  27.9520000  22.0590000  20.4530000
  31.2330000  20.6750000  19.3200000  28.5260000  21.8050000  12.6150000
  27.4450000  22.3690000  14.2670000  30.6440000  20.7440000  13.0960000
  30.9280000  20.7530000  20.6800000  29.3950000  21.3150000  22.5740000
  32.0310000  20.2910000  19.0330000  29.6960000  21.1500000  12.1840000
  27.9380000  22.1710000  11.9940000  31.4220000  20.3030000  12.8430000
  31.5520000  20.4700000  21.3090000  28.4040000  22.1450000  23.0670000
  30.0220000  20.4850000  23.4700000  29.8750000  20.8430000  10.6930000
  28.0560000  22.1650000  24.4060000  27.9770000  22.7440000  22.4990000
  29.7000000  20.5490000  24.8410000  30.7100000  19.9370000  23.1660000
  31.0420000  21.5560000  10.0520000  29.9840000  19.8800000  10.6520000
  29.0390000  21.0870000  10.2650000  28.7240000  21.3700000  25.2930000
  27.3610000  22.6970000  24.7210000  30.1430000  19.9750000  25.4240000
  31.2620000  21.0470000   8.5970000  30.9040000  22.5130000   9.9700000
  31.8780000  21.3960000  10.5180000  28.5190000  21.3930000  26.2000000
  32.4640000  21.6350000   7.9090000  30.4410000  21.2390000   8.1180000
  31.3700000  20.0860000   8.6770000  32.6440000  21.0990000   6.4620000
  32.3470000  22.5940000   7.8160000  33.2810000  21.4570000   8.3990000
  33.8760000  21.6290000   5.7520000  31.8210000  21.2810000   5.9820000
  32.7490000  20.1410000   6.5660000  33.9970000  21.0550000   4.3260000
  33.7540000  22.5860000   5.6470000  34.6880000  21.4590000   6.2540000
  33.1780000  21.2200000   3.8330000  34.1210000  20.1000000   4.4370000
  35.1520000  21.6580000   3.5740000  35.3060000  21.0600000   2.1590000
  35.0690000  22.6210000   3.4890000  35.9920000  21.4470000   4.0110000
  34.4910000  21.3180000   1.6990000  36.4840000  21.5790000   1.4010000
  35.3380000  20.0950000   2.2410000  36.4470000  22.5390000   1.3300000
  36.4910000  21.1970000   0.5220000  37.2860000  21.3290000   1.8670000
  25.1270000  22.1550000  70.5530000  26.2910000  21.5750000  69.4080000
  26.1850000  21.6410000  71.8510000  26.3040000  21.5790000  67.9450000
  27.4240000  21.1070000  69.9640000  25.8650000  21.7120000  73.2240000
  27.3910000  21.1350000  71.4130000  25.3410000  22.0000000  67.0170000
  27.4730000  21.0090000  67.5040000  28.5720000  20.5060000  68.8040000
  26.8110000  21.3070000  74.1540000  25.0460000  22.0590000  73.4970000
  28.3280000  20.6750000  72.3640000  25.6200000  21.8050000  65.6600000
  24.5400000  22.3690000  67.3120000  27.7380000  20.7440000  66.1410000
  28.0230000  20.7530000  73.7250000  26.4890000  21.3150000  75.6180000
  29.1260000  20.2910000  72.0780000  26.7900000  21.1500000  65.2290000
  25.0320000  22.1710000  65.0390000  28.5160000  20.3030000  65.8880000
  28.6470000  20.4700000  74.3540000  25.4990000  22.1450000  76.1120000
  27.1170000  20.4850000  76.5140000  26.9700000  20.8430000  63.7370000
  25.1510000  22.1650000  77.4510000  25.0720000  22.7440000  75.5430000
  26.7940000  20.5490000  77.8860000  27.8050000  19.9370000  76.2100000
  28.1370000  21.5560000  63.0970000  27.0790000  19.8800000  63.6970000
  26.1330000  21.0870000  63.3090000  25.8190000  21.3700000  78.3380000
  24.4560000  22.6970000  77.7650000  27.2380000  19.9750000  78.4690000
  28.3570000  21.0470000  61.6410000  27.9990000  22.5130000  63.0140000
  28.9730000  21.3960000  63.5630000  25.6130000  21.3930000  79.2440000
  29.5580000  21.6350000  60.9530000  27.5360000  21.2390000  61.1620000
  28.4650000  20.0860000  61.7220000  29.7390000  21.0990000  59.5060000
  29.4410000  22.5940000  60.8610000  30.3760000  21.4570000  61.4440000
  30.9710000  21.6290000  58.7970000  28.9160000  21.2810000  59.0270000
  29.8440000  20.1410000  59.6100000  31.0920000  21.0550000  57.3710000
  30.8490000  22.5860000  58.6910000  31.7830000  21.4590000  59.2980000
  30.2730000  21.2200000  56.8770000  31.2160000  20.1000000  57.4820000
  32.2470000  21.6580000  56.6190000  32.4000000  21.0600000  55.2040000
  32.1630000  22.6210000  56.5340000  33.0860000  21.4470000  57.0560000
  31.5850000  21.3180000  54.7440000  33.5790000  21.5790000  54.4460000
  32.4330000  20.0950000  55.2860000  33.5420000  22.5390000  54.3750000
  33.5860000  21.1970000  53.5670000  34.3800000  21.3290000  54.9120000
  28.0320000  29.9120000  17.5080000  29.1970000  29.3320000  16.3640000
  29.0910000  29.3970000  18.8070000  29.2090000  29.3360000  14.9000000
  30.3290000  28.8640000  16.9190000  28.7700000  29.4690000  20.1790000
  30.2960000  28.8920000  18.3690000  28.2460000  29.7570000  13.9730000
  30.3780000  28.7660000  14.4590000  31.4780000  28.2630000  15.7600000
  29.7160000  29.0640000  21.1090000  27.9520000  29.8160000  20.4530000
  31.2330000  28.4320000  19.3200000  28.5260000  29.5620000  12.6150000
  27.4450000  30.1260000  14.2670000  30.6440000  28.5010000  13.0960000
  30.9280000  28.5100000  20.6800000  29.3950000  29.0720000  22.5740000
  32.0310000  28.0480000  19.0330000  29.6960000  28.9070000  12.1840000
  27.9380000  29.9280000  11.9940000  31.4220000  28.0600000  12.8430000
  31.5520000  28.2270000  21.3090000  28.4040000  29.9020000  23.0670000
  30.0220000  28.2420000  23.4700000  29.8750000  28.6000000  10.6930000
  28.0560000  29.9220000  24.4060000  27.9770000  30.5000000  22.4990000
  29.7000000  28.3050000  24.8410000  30.7100000  27.6940000  23.1660000
  31.0420000  29.3130000  10.0520000  29.9840000  27.6370000  10.6520000
  29.0390000  28.8440000  10.2650000  28.7240000  29.1270000  25.2930000
  27.3610000  30.4530000  24.7210000  30.1430000  27.7320000  25.4240000
  31.2620000  28.8030000   8.5970000  30.9040000  30.2700000   9.9700000
  31.8780000  29.1530000  10.5180000  28.5190000  29.1500000  26.2000000
  32.4640000  29.3920000   7.9090000  30.4410000  28.9960000   8.1180000
  31.3700000  27.8430000   8.6770000  32.6440000  28.8560000   6.4620000
  32.3470000  30.3510000   7.8160000  33.2810000  29.2140000   8.3990000
  33.8760000  29.3860000   5.7520000  31.8210000  29.0380000   5.9820000
  32.7490000  27.8980000   6.5660000  33.9970000  28.8120000   4.3260000
  33.7540000  30.3420000   5.6470000  34.6880000  29.2160000   6.2540000
  33.1780000  28.9770000   3.8330000  34.1210000  27.8570000   4.4370000
  35.1520000  29.4150000   3.5740000  35.3060000  28.8170000   2.1590000
  35.0690000  30.3780000   3.4890000  35.9920000  29.2040000   4.0110000
  34.4910000  29.0750000   1.6990000  36.4840000  29.3360000   1.4010000
  35.3380000  27.8510000   2.2410000  36.4470000  30.2960000   1.3300000
  36.4910000  28.9540000   0.5220000  37.2860000  29.0860000   1.8670000
  25.1270000  29.9120000  70.5530000  26.2910000  29.3320000  69.4080000
  26.1850000  29.3970000  71.8510000  26.3040000  29.3360000  67.9450000
  27.4240000  28.8640000  69.9640000  25.8650000  29.4690000  73.2240000
  27.3910000  28.8920000  71.4130000  25.3410000  29.7570000  67.0170000
  27.4730000  28.7660000  67.5040000  28.5720000  28.2630000  68.8040000
  26.8110000  29.0640000  74.1540000  25.0460000  29.8160000  73.4970000
  28.3280000  28.4320000  72.3640000  25.6200000  29.5620000  65.6600000
  24.5400000  30.1260000  67.3120000  27.7380000  28.5010000  66.1410000
  28.0230000  28.5100000  73.7250000  26.4890000  29.0720000  75.6180000
  29.1260000  28.0480000  72.0780000  26.7900000  28.9070000  65.2290000
  25.0320000  29.9280000  65.0390000  28.5160000  28.0600000  65.8880000
  28.6470000  28.2270000  74.3540000  25.4990000  29.9020000  76.1120000
  27.1170000  28.2420000  76.5140000  26.9700000  28.6000000  63.7370000
  25.1510000  29.9220000  77.4510000  25.0720000  30.5000000  75.5430000
  26.7940000  28.3050000  77.8860000  27.8050000  27.6940000  76.2100000
  28.1370000  29.3130000  63.0970000  27.0790000  27.6370000  63.6970000
  26.1330000  28.8440000  63.3090000  25.8190000  29.1270000  78.3380000
  24.4560000  30.4530000  77.7650000  27.2380000  27.7320000  78.4690000
  28.3570000  28.8030000  61.6410000  27.9990000  30.2700000  63.0140000
  28.9730000  29.1530000  63.5630000  25.6130000  29.1500000  79.2440000
  29.5580000  29.3920000  60.9530000  27.5360000  28.9960000  61.1620000
  28.4650000  27.8430000  61.7220000  29.7390000  28.8560000  59.5060000
  29.4410000  30.3510000  60.8610000  30.3760000  29.2140000  61.4440000
  30.9710000  29.3860000  58.7970000  28.9160000  29.0380000  59.0270000
  29.8440000  27.8980000  59.6100000  31.0920000  28.8120000  57.3710000
  30.8490000  30.3420000  58.6910000  31.7830000  29.2160000  59.2980000
  30.2730000  28.9770000  56.8770000  31.2160000  27.8570000  57.4820000
  32.2470000  29.4150000  56.6190000  32.4000000  28.8170000  55.2040000
  32.1630000  30.3780000  56.5340000  33.0860000  29.2040000  57.0560000
  31.5850000  29.0750000  54.7440000  33.5790000  29.3360000  54.4460000
  32.4330000  27.8510000  55.2860000  33.5420000  30.2960000  54.3750000
  33.5860000  28.9540000  53.5670000  34.3800000  29.0860000  54.9120000
  28.0320000  37.6690000  17.5080000  29.1970000  37.0880000  16.3640000
  29.0910000  37.1540000  18.8070000  29.2090000  37.0930000  14.9000000
  30.3290000  36.6210000  16.9190000  28.7700000  37.2260000  20.1790000
  30.2960000  36.6490000  18.3690000  28.2460000  37.5130000  13.9730000
  30.3780000  36.5230000  14.4590000  31.4780000  36.0190000  15.7600000
  29.7160000  36.8210000  21.1090000  27.9520000  37.5730000  20.4530000
  31.2330000  36.1890000  19.3200000  28.5260000  37.3190000  12.6150000
  27.4450000  37.8830000  14.2670000  30.6440000  36.2580000  13.0960000
  30.9280000  36.2670000  20.6800000  29.3950000  36.8290000  22.5740000
  32.0310000  35.8050000  19.0330000  29.6960000  36.6640000  12.1840000
  27.9380000  37.6840000  11.9940000  31.4220000  35.8160000  12.8430000
  31.5520000  35.9840000  21.3090000  28.4040000  37.6580000  23.0670000
  30.0220000  35.9990000  23.4700000  29.8750000  36.3570000  10.6930000
  28.0560000  37.6790000  24.4060000  27.9770000  38.2570000  22.4990000
  29.7000000  36.0620000  24.8410000  30.7100000  35.4510000  23.1660000
  31.0420000  37.0700000  10.0520000  29.9840000  35.3940000  10.6520000
  29.0390000  36.6000000  10.2650000  28.7240000  36.8840000  25.2930000
  27.3610000  38.2100000  24.7210000  30.1430000  35.4890000  25.4240000
  31.2620000  36.5600000   8.5970000  30.9040000  38.0270000   9.9700000
  31.8780000  36.9100000  10.5180000  28.5190000  36.9070000  26.2000000
  32.4640000  37.1490000   7.9090000  30.4410000  36.7530000   8.1180000
  31.3700000  35.6000000   8.6770000  32.6440000  36.6130000   6.4620000
  32.3470000  38.1080000   7.8160000  33.2810000  36.9700000   8.3990000
  33.8760000  37.1430000   5.7520000  31.8210000  36.7950000   5.9820000
  32.7490000  35.6540000   6.5660000  33.9970000  36.5690000   4.3260000
  33.7540000  38.0990000   5.6470000  34.6880000  36.9730000   6.2540000
  33.1780000  36.7340000   3.8330000  34.1210000  35.6130000   4.4370000
  35.1520000  37.1710000   3.5740000  35.3060000  36.5740000   2.1590000
  35.0690000  38.1340000   3.4890000  35.9920000  36.9610000   4.0110000
  34.4910000  36.8320000   1.6990000  36.4840000  37.0930000   1.4010000
  35.3380000  35.6080000   2.2410000  36.4470000  38.0530000   1.3300000
  36.4910000  36.7110000   0.5220000  37.2860000  36.8420000   1.8670000
  25.1270000  37.6690000  70.5530000  26.2910000  37.0880000  69.4080000
  26.1850000  37.1540000  71.8510000  26.3040000  37.0930000  67.9450000
  27.4240000  36.6210000  69.9640000  25.8650000  37.2260000  73.2240000
  27.3910000  36.6490000  71.4130000  25.3410000  37.5130000  67.0170000
  27.4730000  36.5230000  67.5040000  28.5720000  36.0190000  68.8040000
  26.8110000  36.8210000  74.1540000  25.0460000  37.5730000  73.4970000
  28.3280000  36.1890000  72.3640000  25.6200000  37.3190000  65.6600000
  24.5400000  37.8830000  67.3120000  27.7380000  36.2580000  66.1410000
  28.0230000  36.2670000  73.7250000  26.4890000  36.8290000  75.6180000
  29.1260000  35.8050000  72.0780000  26.7900000  36.6640000  65.2290000
  25.0320000  37.6840000  65.0390000  28.5160000  35.8160000  65.8880000
  28.6470000  35.9840000  74.3540000  25.4990000  37.6580000  76.1120000
  27.1170000  35.9990000  76.5140000  26.9700000  36.3570000  63.7370000
  25.1510000  37.6790000  77.4510000  25.0720000  38.2570000  75.5430000
  26.7940000  36.0620000  77.8860000  27.8050000  35.4510000  76.2100000
  28.1370000  37.0700000  63.0970000  27.0790000  35.3940000  63.6970000
  26.1330000  36.6000000  63.3090000  25.8190000  36.8840000  78.3380000
  24.4560000  38.2100000  77.7650000  27.2380000  35.4890000  78.4690000
  28.3570000  36.5600000  61.6410000  27.9990000  38.0270000  63.0140000
  28.9730000  36.9100000  63.5630000  25.6130000  36.9070000  79.2440000
  29.5580000  37.1490000  60.9530000  27.5360000  36.7530000  61.1620000
  28.4650000  35.6000000  61.7220000  29.7390000  36.6130000  59.5060000
  29.4410000  38.1080000  60.8610000  30.3760000  36.9700000  61.4440000
  30.9710000  37.1430000  58.7970000  28.9160000  36.7950000  59.0270000
  29.8440000  35.6540000  59.6100000  31.0920000  36.5690000  57.3710000
  30.8490000  38.0990000  58.6910000  31.7830000  36.9730000  59.2980000
  30.2730000  36.7340000  56.8770000  31.2160000  35.6130000  57.4820000
  32.2470000  37.1710000  56.6190000  32.4000000  36.5740000  55.2040000
  32.1630000  38.1340000  56.5340000  33.0860000  36.9610000  57.0560000
  31.5850000  36.8320000  54.7440000  33.5790000  37.0930000  54.4460000
  32.4330000  35.6080000  55.2860000  33.5420000  38.0530000  54.3750000
  33.5860000  36.7110000  53.5670000  34.3800000  36.8420000  54.9120000
  28.0320000  45.4250000  17.5080000  29.1970000  44.8450000  16.3640000
  29.0910000  44.9110000  18.8070000  29.2090000  44.8500000  14.9000000
  30.3290000  44.3770000  16.9190000  28.7700000  44.9820000  20.1790000
  30.2960000  44.4050000  18.3690000  28.2460000  45.2700000  13.9730000
  30.3780000  44.2800000  14.4590000  31.4780000  43.7760000  15.7600000
  29.7160000  44.5780000  21.1090000  27.9520000  45.3300000  20.4530000
  31.2330000  43.9450000  19.3200000  28.5260000  45.0760000  12.6150000
  27.4450000  45.6400000  14.2670000  30.6440000  44.0140000  13.0960000
  30.9280000  44.0240000  20.6800000  29.3950000  44.5850000  22.5740000
  32.0310000  43.5620000  19.0330000  29.6960000  44.4210000  12.1840000
  27.9380000  45.4410000  11.9940000  31.4220000  43.5730000  12.8430000
  31.5520000  43.7410000  21.3090000  28.4040000  45.4150000  23.0670000
  30.0220000  43.7550000  23.4700000  29.8750000  44.1140000  10.6930000
  28.0560000  45.4350000  24.4060000  27.9770000  46.0140000  22.4990000
  29.7000000  43.8190000  24.8410000  30.7100000  43.2080000  23.1660000
  31.0420000  44.8270000  10.0520000  29.9840000  43.1510000  10.6520000
  29.0390000  44.3570000  10.2650000  28.7240000  44.6400000  25.2930000
  27.3610000  45.9670000  24.7210000  30.1430000  43.2450000  25.4240000
  31.2620000  44.3170000   8.5970000  30.9040000  45.7830000   9.9700000
  31.8780000  44.6660000  10.5180000  28.5190000  44.6640000  26.2000000
  32.4640000  44.9060000   7.9090000  30.4410000  44.5100000   8.1180000
  31.3700000  43.3570000   8.6770000  32.6440000  44.3700000   6.4620000
  32.3470000  45.8640000   7.8160000  33.2810000  44.7270000   8.3990000
  33.8760000  44.8990000   5.7520000  31.8210000  44.5510000   5.9820000
  32.7490000  43.4110000   6.5660000  33.9970000  44.3250000   4.3260000
  33.7540000  45.8560000   5.6470000  34.6880000  44.7300000   6.2540000
  33.1780000  44.4910000   3.8330000  34.1210000  43.3700000   4.4370000
  35.1520000  44.9280000   3.5740000  35.3060000  44.3310000   2.1590000
  35.0690000  45.8910000   3.4890000  35.9920000  44.7170000   4.0110000
  34.4910000  44.5880000   1.6990000  36.4840000  44.8500000   1.4010000
  35.3380000  43.3650000   2.2410000  36.4470000  45.8100000   1.3300000
  36.4910000  44.4670000   0.5220000  37.2860000  44.5990000   1.8670000
  25.1270000  45.4250000  70.5530000  26.2910000  44.8450000  69.4080000
  26.1850000  44.9110000  71.8510000  26.3040000  44.8500000  67.9450000
  27.4240000  44.3770000  69.9640000  25.8650000  44.9820000  73.2240000
  27.3910000  44.4050000  71.4130000  25.3410000  45.2700000  67.0170000
  27.4730000  44.2800000  67.5040000  28.5720000  43.7760000  68.8040000
  26.8110000  44.5780000  74.1540000  25.0460000  45.3300000  73.4970000
  28.3280000  43.9450000  72.3640000  25.6200000  45.0760000  65.6600000
  24.5400000  45.6400000  67.3120000  27.7380000  44.0140000  66.1410000
  28.0230000  44.0240000  73.7250000  26.4890000  44.5850000  75.6180000
  29.1260000  43.5620000  72.0780000  26.7900000  44.4210000  65.2290000
  25.0320000  45.4410000  65.0390000  28.5160000  43.5730000  65.8880000
  28.6470000  43.7410000  74.3540000  25.4990000  45.4150000  76.1120000
  27.1170000  43.7550000  76.5140000  26.9700000  44.1140000  63.7370000
  25.1510000  45.4350000  77.4510000  25.0720000  46.0140000  75.5430000
  26.7940000  43.8190000  77.8860000  27.8050000  43.2080000  76.2100000
  28.1370000  44.8270000  63.0970000  27.0790000  43.1510000  63.6970000
  26.1330000  44.3570000  63.3090000  25.8190000  44.6400000  78.3380000
  24.4560000  45.9670000  77.7650000  27.2380000  43.2450000  78.4690000
  28.3570000  44.3170000  61.6410000  27.9990000  45.7830000  63.0140000
  28.9730000  44.6660000  63.5630000  25.6130000  44.6640000  79.2440000
  29.5580000  44.9060000  60.9530000  27.5360000  44.5100000  61.1620000
  28.4650000  43.3570000  61.7220000  29.7390000  44.3700000  59.5060000
  29.4410000  45.8640000  60.8610000  30.3760000  44.7270000  61.4440000
  30.9710000  44.8990000  58.7970000  28.9160000  44.5510000  59.0270000
  29.8440000  43.4110000  59.6100000  31.0920000  44.3250000  57.3710000
  30.8490000  45.8560000  58.6910000  31.7830000  44.7300000  59.2980000
  30.2730000  44.4910000  56.8770000  31.2160000  43.3700000  57.4820000
  32.2470000  44.9280000  56.6190000  32.4000000  44.3310000  55.2040000
  32.1630000  45.8910000  56.5340000  33.0860000  44.7170000  57.0560000
  31.5850000  44.5880000  54.7440000  33.5790000  44.8500000  54.4460000
  32.4330000  43.3650000  55.2860000  33.5420000  45.8100000  54.3750000
  33.5860000  44.4670000  53.5670000  34.3800000  44.5990000  54.9120000
  -2.2030000   6.6410000  17.5080000  -1.0390000   6.0610000  16.3640000
  -1.1450000   6.1270000  18.8070000  -1.0270000   6.0660000  14.9000000
   0.0930000   5.5930000  16.9190000  -1.4660000   6.1980000  20.1790000
   0.0610000   5.6210000  18.3690000  -1.9890000   6.4860000  13.9730000
   0.1430000   5.4960000  14.4590000   1.2420000   4.9920000  15.7600000
  -0.5190000   5.7940000  21.1090000  -2.2840000   6.5460000  20.4530000
   0.9980000   5.1610000  19.3200000  -1.7100000   6.2920000  12.6150000
  -2.7910000   6.8560000  14.2670000   0.4080000   5.2300000  13.0960000
   0.6920000   5.2400000  20.6800000  -0.8410000   5.8010000  22.5740000
   1.7950000   4.7780000  19.0330000  -0.5400000   5.6370000  12.1840000
  -2.2980000   6.6570000  11.9940000   1.1860000   4.7890000  12.8430000
   1.3170000   4.9570000  21.3090000  -1.8310000   6.6310000  23.0670000
  -0.2130000   4.9710000  23.4700000  -0.3610000   5.3300000  10.6930000
  -2.1790000   6.6510000  24.4060000  -2.2590000   7.2300000  22.4990000
  -0.5360000   5.0350000  24.8410000   0.4750000   4.4240000  23.1660000
   0.8070000   6.0430000  10.0520000  -0.2510000   4.3670000  10.6520000
  -1.1970000   5.5730000  10.2650000  -1.5110000   5.8560000  25.2930000
  -2.8750000   7.1830000  24.7210000  -0.0920000   4.4610000  25.4240000
   1.0260000   5.5330000   8.5970000   0.6690000   6.9990000   9.9700000
   1.6430000   5.8820000  10.5180000  -1.7170000   5.8800000  26.2000000
   2.2280000   6.1220000   7.9090000   0.2050000   5.7260000   8.1180000
   1.1350000   4.5730000   8.6770000   2.4080000   5.5860000   6.4620000
   2.1110000   7.0800000   7.8160000   3.0460000   5.9430000   8.3990000
   3.6400000   6.1150000   5.7520000   1.5850000   5.7670000   5.9820000
   2.5140000   4.6270000   6.5660000   3.7610000   5.5410000   4.3260000
   3.5180000   7.0720000   5.6470000   4.4530000   5.9460000   6.2540000
   2.9430000   5.7070000   3.8330000   3.8860000   4.5860000   4.4370000
   4.9160000   6.1440000   3.5740000   5.0700000   5.5470000   2.1590000
   4.8330000   7.1070000   3.4890000   5.7560000   5.9330000   4.0110000
   4.2550000   5.8040000   1.6990000   6.2490000   6.0660000   1.4010000
   5.1020000   4.5810000   2.2410000   6.2120000   7.0260000   1.3300000
   6.2550000   5.6830000   0.5220000   7.0500000   5.8150000   1.8670000
  -5.1090000   6.6410000  70.5530000  -3.9440000   6.0610000  69.4080000
  -4.0500000   6.1270000  71.8510000  -3.9320000   6.0660000  67.9450000
  -2.8120000   5.5930000  69.9640000  -4.3710000   6.1980000  73.2240000
  -2.8450000   5.6210000  71.4130000  -4.8950000   6.4860000  67.0170000
  -2.7620000   5.4960000  67.5040000  -1.6630000   4.9920000  68.8040000
  -3.4250000   5.7940000  74.1540000  -5.1890000   6.5460000  73.4970000
  -1.9070000   5.1610000  72.3640000  -4.6150000   6.2920000  65.6600000
  -5.6960000   6.8560000  67.3120000  -2.4970000   5.2300000  66.1410000
  -2.2130000   5.2400000  73.7250000  -3.7460000   5.8010000  75.6180000
  -1.1100000   4.7780000  72.0780000  -3.4450000   5.6370000  65.2290000
  -5.2030000   6.6570000  65.0390000  -1.7190000   4.7890000  65.8880000
  -1.5880000   4.9570000  74.3540000  -4.7370000   6.6310000  76.1120000
  -3.1190000   4.9710000  76.5140000  -3.2660000   5.3300000  63.7370000
  -5.0840000   6.6510000  77.4510000  -5.1640000   7.2300000  75.5430000
  -3.4410000   5.0350000  77.8860000  -2.4310000   4.4240000  76.2100000
  -2.0980000   6.0430000  63.0970000  -3.1570000   4.3670000  63.6970000
  -4.1020000   5.5730000  63.3090000  -4.4160000   5.8560000  78.3380000
  -5.7800000   7.1830000  77.7650000  -2.9980000   4.4610000  78.4690000
  -1.8790000   5.5330000  61.6410000  -2.2370000   6.9990000  63.0140000
  -1.2630000   5.8820000  63.5630000  -4.6220000   5.8800000  79.2440000
  -0.6770000   6.1220000  60.9530000  -2.7000000   5.7260000  61.1620000
  -1.7700000   4.5730000  61.7220000  -0.4970000   5.5860000  59.5060000
  -0.7940000   7.0800000  60.8610000   0.1410000   5.9430000  61.4440000
   0.7350000   6.1150000  58.7970000  -1.3200000   5.7670000  59.0270000
  -0.3920000   4.6270000  59.6100000   0.8560000   5.5410000  57.3710000
   0.6130000   7.0720000  58.6910000   1.5480000   5.9460000  59.2980000
   0.0370000   5.7070000  56.8770000   0.9800000   4.5860000  57.4820000
   2.0110000   6.1440000  56.6190000   2.1650000   5.5470000  55.2040000
   1.9280000   7.1070000  56.5340000   2.8510000   5.9330000  57.0560000
   1.3500000   5.8040000  54.7440000   3.3430000   6.0660000  54.4460000
   2.1970000   4.5810000  55.2860000   3.3070000   7.0260000  54.3750000
   3.3500000   5.6830000  53.5670000   4.1450000   5.8150000  54.9120000
  -2.2030000  14.3980000  17.5080000  -1.0390000  13.8180000  16.3640000
  -1.1450000  13.8840000  18.8070000  -1.0270000  13.8230000  14.9000000
   0.0930000  13.3500000  16.9190000  -1.4660000  13.9550000  20.1790000
   0.0610000  13.3780000  18.3690000  -1.9890000  14.2430000  13.9730000
   0.1430000  13.2520000  14.4590000   1.2420000  12.7490000  15.7600000
  -0.5190000  13.5500000  21.1090000  -2.2840000  14.3030000  20.4530000
   0.9980000  12.9180000  19.3200000  -1.7100000  14.0480000  12.6150000
  -2.7910000  14.6120000  14.2670000   0.4080000  12.9870000  13.0960000
   0.6920000  12.9970000  20.6800000  -0.8410000  13.5580000  22.5740000
   1.7950000  12.5350000  19.0330000  -0.5400000  13.3940000  12.1840000
  -2.2980000  14.4140000  11.9940000   1.1860000  12.5460000  12.8430000
   1.3170000  12.7130000  21.3090000  -1.8310000  14.3880000  23.0670000
  -0.2130000  12.7280000  23.4700000  -0.3610000  13.0860000  10.6930000
  -2.1790000  14.4080000  24.4060000  -2.2590000  14.9870000  22.4990000
  -0.5360000  12.7920000  24.8410000   0.4750000  12.1800000  23.1660000
   0.8070000  13.7990000  10.0520000  -0.2510000  12.1230000  10.6520000
  -1.1970000  13.3300000  10.2650000  -1.5110000  13.6130000  25.2930000
  -2.8750000  14.9400000  24.7210000  -0.0920000  12.2180000  25.4240000
   1.0260000  13.2900000   8.5970000   0.6690000  14.7560000   9.9700000
   1.6430000  13.6390000  10.5180000  -1.7170000  13.6370000  26.2000000
   2.2280000  13.8780000   7.9090000   0.2050000  13.4820000   8.1180000
   1.1350000  12.3290000   8.6770000   2.4080000  13.3420000   6.4620000
   2.1110000  14.8370000   7.8160000   3.0460000  13.7000000   8.3990000
   3.6400000  13.8720000   5.7520000   1.5850000  13.5240000   5.9820000
   2.5140000  12.3840000   6.5660000   3.7610000  13.2980000   4.3260000
   3.5180000  14.8290000   5.6470000   4.4530000  13.7030000   6.2540000
   2.9430000  13.4630000   3.8330000   3.8860000  12.3430000   4.4370000
   4.9160000  13.9010000   3.5740000   5.0700000  13.3040000   2.1590000
   4.8330000  14.8640000   3.4890000   5.7560000  13.6900000   4.0110000
   4.2550000  13.5610000   1.6990000   6.2490000  13.8230000   1.4010000
   5.1020000  12.3380000   2.2410000   6.2120000  14.7830000   1.3300000
   6.2550000  13.4400000   0.5220000   7.0500000  13.5720000   1.8670000
  -5.1090000  14.3980000  70.5530000  -3.9440000  13.8180000  69.4080000
  -4.0500000  13.8840000  71.8510000  -3.9320000  13.8230000  67.9450000
  -2.8120000  13.3500000  69.9640000  -4.3710000  13.9550000  73.2240000
  -2.8450000  13.3780000  71.4130000  -4.8950000  14.2430000  67.0170000
  -2.7620000  13.2520000  67.5040000  -1.6630000  12.7490000  68.8040000
  -3.4250000  13.5500000  74.1540000  -5.1890000  14.3030000  73.4970000
  -1.9070000  12.9180000  72.3640000  -4.6150000  14.0480000  65.6600000
  -5.6960000  14.6120000  67.3120000  -2.4970000  12.9870000  66.1410000
  -2.2130000  12.9970000  73.7250000  -3.7460000  13.5580000  75.6180000
  -1.1100000  12.5350000  72.0780000  -3.4450000  13.3940000  65.2290000
  -5.2030000  14.4140000  65.0390000  -1.7190000  12.5460000  65.8880000
  -1.5880000  12.7130000  74.3540000  -4.7370000  14.3880000  76.1120000
  -3.1190000  12.7280000  76.5140000  -3.2660000  13.0860000  63.7370000
  -5.0840000  14.4080000  77.4510000  -5.1640000  14.9870000  75.5430000
  -3.4410000  12.7920000  77.8860000  -2.4310000  12.1800000  76.2100000
  -2.0980000  13.7990000  63.0970000  -3.1570000  12.1230000  63.6970000
  -4.1020000  13.3300000  63.3090000  -4.4160000  13.6130000  78.3380000
  -5.7800000  14.9400000  77.7650000  -2.9980000  12.2180000  78.4690000
  -1.8790000  13.2900000  61.6410000  -2.2370000  14.7560000  63.0140000
  -1.2630000  13.6390000  63.5630000  -4.6220000  13.6370000  79.2440000
  -0.6770000  13.8780000  60.9530000  -2.7000000  13.4820000  61.1620000
  -1.7700000  12.3290000  61.7220000  -0.4970000  13.3420000  59.5060000
  -0.7940000  14.8370000  60.8610000   0.1410000  13.7000000  61.4440000
   0.7350000  13.8720000  58.7970000  -1.3200000  13.5240000  59.0270000
  -0.3920000  12.3840000  59.6100000   0.8560000  13.2980000  57.3710000
   0.6130000  14.8290000  58.6910000   1.5480000  13.7030000  59.2980000
   0.0370000  13.4630000  56.8770000   0.9800000  12.3430000  57.4820000
   2.0110000  13.9010000  56.6190000   2.1650000  13.3040000  55.2040000
   1.9280000  14.8640000  56.5340000   2.8510000  13.6900000  57.0560000
   1.3500000  13.5610000  54.7440000   3.3430000  13.8230000  54.4460000
   2.1970000  12.3380000  55.2860000   3.3070000  14.7830000  54.3750000
   3.3500000  13.4400000  53.5670000   4.1450000  13.5720000  54.9120000
  -2.2030000  22.1550000  17.5080000  -1.0390000  21.5750000  16.3640000
  -1.1450000  21.6410000  18.8070000  -1.0270000  21.5790000  14.9000000
   0.0930000  21.1070000  16.9190000  -1.4660000  21.7120000  20.1790000
   0.0610000  21.1350000  18.3690000  -1.9890000  22.0000000  13.9730000
   0.1430000  21.0090000  14.4590000   1.2420000  20.5060000  15.7600000
  -0.5190000  21.3070000  21.1090000  -2.2840000  22.0590000  20.4530000
   0.9980000  20.6750000  19.3200000  -1.7100000  21.8050000  12.6150000
  -2.7910000  22.3690000  14.2670000   0.4080000  20.7440000  13.0960000
   0.6920000  20.7530000  20.6800000  -0.8410000  21.3150000  22.5740000
   1.7950000  20.2910000  19.0330000  -0.5400000  21.1500000  12.1840000
  -2.2980000  22.1710000  11.9940000   1.1860000  20.3030000  12.8430000
   1.3170000  20.4700000  21.3090000  -1.8310000  22.1450000  23.0670000
  -0.2130000  20.4850000  23.4700000  -0.3610000  20.8430000  10.6930000
  -2.1790000  22.1650000  24.4060000  -2.2590000  22.7440000  22.4990000
  -0.5360000  20.5490000  24.8410000   0.4750000  19.9370000  23.1660000
   0.8070000  21.5560000  10.0520000  -0.2510000  19.8800000  10.6520000
  -1.1970000  21.0870000  10.2650000  -1.5110000  21.3700000  25.2930000
  -2.8750000  22.6970000  24.7210000  -0.0920000  19.9750000  25.4240000
   1.0260000  21.0470000   8.5970000   0.6690000  22.5130000   9.9700000
   1.6430000  21.3960000  10.5180000  -1.7170000  21.3930000  26.2000000
   2.2280000  21.6350000   7.9090000   0.2050000  21.2390000   8.1180000
   1.1350000  20.0860000   8.6770000   2.4080000  21.0990000   6.4620000
   2.1110000  22.5940000   7.8160000   3.0460000  21.4570000   8.3990000
   3.6400000  21.6290000   5.7520000   1.5850000  21.2810000   5.9820000
   2.5140000  20.1410000   6.5660000   3.7610000  21.0550000   4.3260000
   3.5180000  22.5860000   5.6470000   4.4530000  21.4590000   6.2540000
   2.9430000  21.2200000   3.8330000   3.8860000  20.1000000   4.4370000
   4.9160000  21.6580000   3.5740000   5.0700000  21.0600000   2.1590000
   4.8330000  22.6210000   3.4890000   5.7560000  21.4470000   4.0110000
   4.2550000  21.3180000   1.6990000   6.2490000  21.5790000   1.4010000
   5.1020000  20.0950000   2.2410000   6.2120000  22.5390000   1.3300000
   6.2550000  21.1970000   0.5220000   7.0500000  21.3290000   1.8670000
  -5.1090000  22.1550000  70.5530000  -3.9440000  21.5750000  69.4080000
  -4.0500000  21.6410000  71.8510000  -3.9320000  21.5790000  67.9450000
  -2.8120000  21.1070000  69.9640000  -4.3710000  21.7120000  73.2240000
  -2.8450000  21.1350000  71.4130000  -4.8950000  22.0000000  67.0170000
  -2.7620000  21.0090000  67.5040000  -1.6630000  20.5060000  68.8040000
  -3.4250000  21.3070000  74.1540000  -5.1890000  22.0590000  73.4970000
  -1.9070000  20.6750000  72.3640000  -4.6150000  21.8050000  65.6600000
  -5.6960000  22.3690000  67.3120000  -2.4970000  20.7440000  66.1410000
  -2.2130000  20.7530000  73.7250000  -3.7460000  21.3150000  75.6180000
  -1.1100000  20.2910000  72.0780000  -3.4450000  21.1500000  65.2290000
  -5.2030000  22.1710000  65.0390000  -1.7190000  20.3030000  65.8880000
  -1.5880000  20.4700000  74.3540000  -4.7370000  22.1450000  76.1120000
  -3.1190000  20.4850000  76.5140000  -3.2660000  20.8430000  63.7370000
  -5.0840000  22.1650000  77.4510000  -5.1640000  22.7440000  75.5430000
  -3.4410000  20.5490000  77.8860000  -2.4310000  19.9370000  76.2100000
  -2.0980000  21.5560000  63.0970000  -3.1570000  19.8800000  63.6970000
  -4.1020000  21.0870000  63.3090000  -4.4160000  21.3700000  78.3380000
  -5.7800000  22.6970000  77.7650000  -2.9980000  19.9750000  78.4690000
  -1.8790000  21.0470000  61.6410000  -2.2370000  22.5130000  63.0140000
  -1.2630000  21.3960000  63.5630000  -4.6220000  21.3930000  79.2440000
  -0.6770000  21.6350000  60.9530000  -2.7000000  21.2390000  61.1620000
  -1.7700000  20.0860000  61.7220000  -0.4970000  21.0990000  59.5060000
  -0.7940000  22.5940000  60.8610000   0.1410000  21.4570000  61.4440000
   0.7350000  21.6290000  58.7970000  -1.3200000  21.2810000  59.0270000
  -0.3920000  20.1410000  59.6100000   0.8560000  21.0550000  57.3710000
   0.6130000  22.5860000  58.6910000   1.5480000  21.4590000  59.2980000
   0.0370000  21.2200000  56.8770000   0.9800000  20.1000000  57.4820000
   2.0110000  21.6580000  56.6190000   2.1650000  21.0600000  55.2040000
   1.9280000  22.6210000  56.5340000   2.8510000  21.4470000  57.0560000
   1.3500000  21.3180000  54.7440000   3.3430000  21.5790000  54.4460000
   2.1970000  20.0950000  55.2860000   3.3070000  22.5390000  54.3750000
   3.3500000  21.1970000  53.5670000   4.1450000  21.3290000  54.9120000
  -2.2030000  29.9120000  17.5080000  -1.0390000  29.3320000  16.3640000
  -1.1450000  29.3970000  18.8070000  -1.0270000  29.3360000  14.9000000
   0.0930000  28.8640000  16.9190000  -1.4660000  29.4690000  20.1790000
   0.0610000  28.8920000  18.3690000  -1.9890000  29.7570000  13.9730000
   0.1430000  28.7660000  14.4590000   1.2420000  28.2630000  15.7600000
  -0.5190000  29.0640000  21.1090000  -2.2840000  29.8160000  20.4530000
   0.9980000  28.4320000  19.3200000  -1.7100000  29.5620000  12.6150000
  -2.7910000  30.1260000  14.2670000   0.4080000  28.5010000  13.0960000
   0.6920000  28.5100000  20.6800000  -0.8410000  29.0720000  22.5740000
   1.7950000  28.0480000  19.0330000  -0.5400000  28.9070000  12.1840000
  -2.2980000  29.9280000  11.9940000   1.1860000  28.0600000  12.8430000
   1.3170000  28.2270000  21.3090000  -1.8310000  29.9020000  23.0670000
  -0.2130000  28.2420000  23.4700000  -0.3610000  28.6000000  10.6930000
  -2.1790000  29.9220000  24.4060000  -2.2590000  30.5000000  22.4990000
  -0.5360000  28.3050000  24.8410000   0.4750000  27.6940000  23.1660000
   0.8070000  29.3130000  10.0520000  -0.2510000  27.6370000  10.6520000
  -1.1970000  28.8440000  10.2650000  -1.5110000  29.1270000  25.2930000
  -2.8750000  30.4530000  24.7210000  -0.0920000  27.7320000  25.4240000
   1.0260000  28.8030000   8.5970000   0.6690000  30.2700000   9.9700000
   1.6430000  29.1530000  10.5180000  -1.7170000  29.1500000  26.2000000
   2.2280000  29.3920000   7.9090000   0.2050000  28.9960000   8.1180000
   1.1350000  27.8430000   8.6770000   2.4080000  28.8560000   6.4620000
   2.1110000  30.3510000   7.8160000   3.0460000  29.2140000   8.3990000
   3.6400000  29.3860000   5.7520000   1.5850000  29.0380000   5.9820000
   2.5140000  27.8980000   6.5660000   3.7610000  28.8120000   4.3260000
   3.5180000  30.3420000   5.6470000   4.4530000  29.2160000   6.2540000
   2.9430000  28.9770000   3.8330000   3.8860000  27.8570000   4.4370000
   4.9160000  29.4150000   3.5740000   5.0700000  28.8170000   2.1590000
   4.8330000  30.3780000   3.4890000   5.7560000  29.2040000   4.0110000
   4.2550000  29.0750000   1.6990000   6.2490000  29.3360000   1.4010000
   5.1020000  27.8510000   2.2410000   6.2120000  30.2960000   1.3300000
   6.2550000  28.9540000   0.5220000   7.0500000  29.0860000   1.8670000
  -5.1090000  29.9120000  70.5530000  -3.9440000  29.3320000  69.4080000
  -4.0500000  29.3970000  71.8510000  -3.9320000  29.3360000  67.9450000
  -2.8120000  28.8640000  69.9640000  -4.3710000  29.4690000  73.2240000
  -2.8450000  28.8920000  71.4130000  -4.8950000  29.7570000  67.0170000
  -2.7620000  28.7660000  67.5040000  -1.6630000  28.2630000  68.8040000
  -3.4250000  29.0640000  74.1540000  -5.1890000  29.8160000  73.4970000
  -1.9070000  28.4320000  72.3640000  -4.6150000  29.5620000  65.6600000
  -5.6960000  30.1260000  67.3120000  -2.4970000  28.5010000  66.1410000
  -2.2130000  28.5100000  73.7250000  -3.7460000  29.0720000  75.6180000
  -1.1100000  28.0480000  72.0780000  -3.4450000  28.9070000  65.2290000
  -5.2030000  29.9280000  65.0390000  -1.7190000  28.0600000  65.8880000
  -1.5880000  28.2270000  74.3540000  -4.7370000  29.9020000  76.1120000
  -3.1190000  28.2420000  76.5140000  -3.2660000  28.6000000  63.7370000
  -5.0840000  29.9220000  77.4510000  -5.1640000  30.5000000  75.5430000
  -3.4410000  28.3050000  77.8860000  -2.4310000  27.6940000  76.2100000
  -2.0980000  29.3130000  63.0970000  -3.1570000  27.6370000  63.6970000
  -4.1020000  28.8440000  63.3090000  -4.4160000  29.1270000  78.3380000
  -5.7800000  30.4530000  77.7650000  -2.9980000  27.7320000  78.4690000
  -1.8790000  28.8030000  61.6410000  -2.2370000  30.2700000  63.0140000
  -1.2630000  29.1530000  63.5630000  -4.6220000  29.1500000  79.2440000
  -0.6770000  29.3920000  60.9530000  -2.7000000  28.9960000  61.1620000
  -1.7700000  27.8430000  61.7220000  -0.4970000  28.8560000  59.5060000
  -0.7940000  30.3510000  60.8610000   0.1410000  29.2140000  61.4440000
   0.7350000  29.3860000  58.7970000  -1.3200000  29.0380000  59.0270000
  -0.3920000  27.8980000  59.6100000   0.8560000  28.8120000  57.3710000
   0.6130000  30.3420000  58.6910000   1.5480000  29.2160000  59.2980000
   0.0370000  28.9770000  56.8770000   0.9800000  27.8570000  57.4820000
   2.0110000  29.4150000  56.6190000   2.1650000  28.8170000  55.2040000
   1.9280000  30.3780000  56.5340000   2.8510000  29.2040000  57.0560000
   1.3500000  29.0750000  54.7440000   3.3430000  29.3360000  54.4460000
   2.1970000  27.8510000  55.2860000   3.3070000  30.2960000  54.3750000
   3.3500000  28.9540000  53.5670000   4.1450000  29.0860000  54.9120000
  -2.2030000  37.6690000  17.5080000  -1.0390000  37.0880000  16.3640000
  -1.1450000  37.1540000  18.8070000  -1.0270000  37.0930000  14.9000000
   0.0930000  36.6210000  16.9190000  -1.4660000  37.2260000  20.1790000
   0.0610000  36.6490000  18.3690000  -1.9890000  37.5130000  13.9730000
   0.1430000  36.5230000  14.4590000   1.2420000  36.0190000  15.7600000
  -0.5190000  36.8210000  21.1090000  -2.2840000  37.5730000  20.4530000
   0.9980000  36.1890000  19.3200000  -1.7100000  37.3190000  12.6150000
  -2.7910000  37.8830000  14.2670000   0.4080000  36.2580000  13.0960000
   0.6920000  36.2670000  20.6800000  -0.8410000  36.8290000  22.5740000
   1.7950000  35.8050000  19.0330000  -0.5400000  36.6640000  12.1840000
  -2.2980000  37.6840000  11.9940000   1.1860000  35.8160000  12.8430000
   1.3170000  35.9840000  21.3090000  -1.8310000  37.6580000  23.0670000
  -0.2130000  35.9990000  23.4700000  -0.3610000  36.3570000  10.6930000
  -2.1790000  37.6790000  24.4060000  -2.2590000  38.2570000  22.4990000
  -0.5360000  36.0620000  24.8410000   0.4750000  35.4510000  23.1660000
   0.8070000  37.0700000  10.0520000  -0.2510000  35.3940000  10.6520000
  -1.1970000  36.6000000  10.2650000  -1.5110000  36.8840000  25.2930000
  -2.8750000  38.2100000  24.7210000  -0.0920000  35.4890000  25.4240000
   1.0260000  36.5600000   8.5970000   0.6690000  38.0270000   9.9700000
   1.6430000  36.9100000  10.5180000  -1.7170000  36.9070000  26.2000000
   2.2280000  37.1490000   7.9090000   0.2050000  36.7530000   8.1180000
   1.1350000  35.6000000   8.6770000   2.4080000  36.6130000   6.4620000
   2.1110000  38.1080000   7.8160000   3.0460000  36.9700000   8.3990000
   3.6400000  37.1430000   5.7520000   1.5850000  36.7950000   5.9820000
   2.5140000  35.6540000   6.5660000   3.7610000  36.5690000   4.3260000
   3.5180000  38.0990000   5.6470000   4.4530000  36.9730000   6.2540000
   2.9430000  36.7340000   3.8330000   3.8860000  35.6130000   4.4370000
   4.9160000  37.1710000   3.5740000   5.0700000  36.5740000   2.1590000
   4.8330000  38.1340000   3.4890000   5.7560000  36.9610000   4.0110000
   4.2550000  36.8320000   1.6990000   6.2490000  37.0930000   1.4010000
   5.1020000  35.6080000   2.2410000   6.2120000  38.0530000   1.3300000
   6.2550000  36.7110000   0.5220000   7.0500000  36.8420000   1.8670000
  -5.1090000  37.6690000  70.5530000  -3.9440000  37.0880000  69.4080000
  -4.0500000  37.1540000  71.8510000  -3.9320000  37.0930000  67.9450000
  -2.8120000  36.6210000  69.9640000  -4.3710000  37.2260000  73.2240000
  -2.8450000  36.6490000  71.4130000  -4.8950000  37.5130000  67.0170000
  -2.7620000  36.5230000  67.5040000  -1.6630000  36.0190000  68.8040000
  -3.4250000  36.8210000  74.1540000  -5.1890000  37.5730000  73.4970000
  -1.9070000  36.1890000  72.3640000  -4.6150000  37.3190000  65.6600000
  -5.6960000  37.8830000  67.3120000  -2.4970000  36.2580000  66.1410000
  -2.2130000  36.2670000  73.7250000  -3.7460000  36.8290000  75.6180000
  -1.1100000  35.8050000  72.0780000  -3.4450000  36.6640000  65.2290000
  -5.2030000  37.6840000  65.0390000  -1.7190000  35.8160000  65.8880000
  -1.5880000  35.9840000  74.3540000  -4.7370000  37.6580000  76.1120000
  -3.1190000  35.9990000  76.5140000  -3.2660000  36.3570000  63.7370000
  -5.0840000  37.6790000  77.4510000  -5.1640000  38.2570000  75.5430000
  -3.4410000  36.0620000  77.8860000  -2.4310000  35.4510000  76.2100000
  -2.0980000  37.0700000  63.0970000  -3.1570000  35.3940000  63.6970000
  -4.1020000  36.6000000  63.3090000  -4.4160000  36.8840000  78.3380000
  -5.7800000  38.2100000  77.7650000  -2.9980000  35.4890000  78.4690000
  -1.8790000  36.5600000  61.6410000  -2.2370000  38.0270000  63.0140000
  -1.2630000  36.9100000  63.5630000  -4.6220000  36.9070000  79.2440000
  -0.6770000  37.1490000  60.9530000  -2.7000000  36.7530000  61.1620000
  -1.7700000  35.6000000  61.7220000  -0.4970000  36.6130000  59.5060000
  -0.7940000  38.1080000  60.8610000   0.1410000  36.9700000  61.4440000
   0.7350000  37.1430000  58.7970000  -1.3200000  36.7950000  59.0270000
  -0.3920000  35.6540000  59.6100000   0.8560000  36.5690000  57.3710000
   0.6130000  38.0990000  58.6910000   1.5480000  36.9730000  59.2980000
   0.0370000  36.7340000  56.8770000   0.9800000  35.6130000  57.4820000
   2.0110000  37.1710000  56.6190000   2.1650000  36.5740000  55.2040000
   1.9280000  38.1340000  56.5340000   2.8510000  36.9610000  57.0560000
   1.3500000  36.8320000  54.7440000   3.3430000  37.0930000  54.4460000
   2.1970000  35.6080000  55.2860000   3.3070000  38.0530000  54.3750000
   3.3500000  36.7110000  53.5670000   4.1450000  36.8420000  54.9120000
  -2.2030000  45.4250000  17.5080000  -1.0390000  44.8450000  16.3640000
  -1.1450000  44.9110000  18.8070000  -1.0270000  44.8500000  14.9000000
   0.0930000  44.3770000  16.9190000  -1.4660000  44.9820000  20.1790000
   0.0610000  44.4050000  18.3690000  -1.9890000  45.2700000  13.9730000
   0.1430000  44.2800000  14.4590000   1.2420000  43.7760000  15.7600000
  -0.5190000  44.5780000  21.1090000  -2.2840000  45.3300000  20.4530000
   0.9980000  43.9450000  19.3200000  -1.7100000  45.0760000  12.6150000
  -2.7910000  45.6400000  14.2670000   0.4080000  44.0140000  13.0960000
   0.6920000  44.0240000  20.6800000  -0.8410000  44.5850000  22.5740000
   1.7950000  43.5620000  19.0330000  -0.5400000  44.4210000  12.1840000
  -2.2980000  45.4410000  11.9940000   1.1860000  43.5730000  12.8430000
   1.3170000  43.7410000  21.3090000  -1.8310000  45.4150000  23.0670000
  -0.2130000  43.7550000  23.4700000  -0.3610000  44.1140000  10.6930000
  -2.1790000  45.4350000  24.4060000  -2.2590000  46.0140000  22.4990000
  -0.5360000  43.8190000  24.8410000   0.4750000  43.2080000  23.1660000
   0.8070000  44.8270000  10.0520000  -0.2510000  43.1510000  10.6520000
  -1.1970000  44.3570000  10.2650000  -1.5110000  44.6400000  25.2930000
  -2.8750000  45.9670000  24.7210000  -0.0920000  43.2450000  25.4240000
   1.0260000  44.3170000   8.5970000   0.6690000  45.7830000   9.9700000
   1.6430000  44.6660000  10.5180000  -1.7170000  44.6640000  26.2000000
   2.2280000  44.9060000   7.9090000   0.2050000  44.5100000   8.1180000
   1.1350000  43.3570000   8.6770000   2.4080000  44.3700000   6.4620000
   2.1110000  45.8640000   7.8160000   3.0460000  44.7270000   8.3990000
   3.6400000  44.8990000   5.7520000   1.5850000  44.5510000   5.9820000
   2.5140000  43.4110000   6.5660000   3.7610000  44.3250000   4.3260000
   3.5180000  45.8560000   5.6470000   4.4530000  44.7300000   6.2540000
   2.9430000  44.4910000   3.8330000   3.8860000  43.3700000   4.4370000
   4.9160000  44.9280000   3.5740000   5.0700000  44.3310000   2.1590000
   4.8330000  45.8910000   3.4890000   5.7560000  44.7170000   4.0110000
   4.2550000  44.5880000   1.6990000   6.2490000  44.8500000   1.4010000
   5.1020000  43.3650000   2.2410000   6.2120000  45.8100000   1.3300000
   6.2550000  44.4670000   0.5220000   7.0500000  44.5990000   1.8670000
  -5.1090000  45.4250000  70.5530000  -3.9440000  44.8450000  69.4080000
  -4.0500000  44.9110000  71.8510000  -3.9320000  44.8500000  67.9450000
  -2.8120000  44.3770000  69.9640000  -4.3710000  44.9820000  73.2240000
  -2.8450000  44.4050000  71.4130000  -4.8950000  45.2700000  67.0170000
  -2.7620000  44.2800000  67.5040000  -1.6630000  43.7760000  68.8040000
  -3.4250000  44.5780000  74.1540000  -5.1890000  45.3300000  73.4970000
  -1.9070000  43.9450000  72.3640000  -4.6150000  45.0760000  65.6600000
  -5.6960000  45.6400000  67.3120000  -2.4970000  44.0140000  66.1410000
  -2.2130000  44.0240000  73.7250000  -3.7460000  44.5850000  75.6180000
  -1.1100000  43.5620000  72.0780000  -3.4450000  44.4210000  65.2290000
  -5.2030000  45.4410000  65.0390000  -1.7190000  43.5730000  65.8880000
  -1.5880000  43.7410000  74.3540000  -4.7370000  45.4150000  76.1120000
  -3.1190000  43.7550000  76.5140000  -3.2660000  44.1140000  63.7370000
  -5.0840000  45.4350000  77.4510000  -5.1640000  46.0140000  75.5430000
  -3.4410000  43.8190000  77.8860000  -2.4310000  43.2080000  76.2100000
  -2.0980000  44.8270000  63.0970000  -3.1570000  43.1510000  63.6970000
  -4.1020000  44.3570000  63.3090000  -4.4160000  44.6400000  78.3380000
  -5.7800000  45.9670000  77.7650000  -2.9980000  43.2450000  78.4690000
  -1.8790000  44.3170000  61.6410000  -2.2370000  45.7830000  63.0140000
  -1.2630000  44.6660000  63.5630000  -4.6220000  44.6640000  79.2440000
  -0.6770000  44.9060000  60.9530000  -2.7000000  44.5100000  61.1620000
  -1.7700000  43.3570000  61.7220000  -0.4970000  44.3700000  59.5060000
  -0.7940000  45.8640000  60.8610000   0.1410000  44.7270000  61.4440000
   0.7350000  44.8990000  58.7970000  -1.3200000  44.5510000  59.0270000
  -0.3920000  43.4110000  59.6100000   0.8560000  44.3250000  57.3710000
   0.6130000  45.8560000  58.6910000   1.5480000  44.7300000  59.2980000
   0.0370000  44.4910000  56.8770000   0.9800000  43.3700000  57.4820000
   2.0110000  44.9280000  56.6190000   2.1650000  44.3310000  55.2040000
   1.9280000  45.8910000  56.5340000   2.8510000  44.7170000  57.0560000
   1.3500000  44.5880000  54.7440000   3.3430000  44.8500000  54.4460000
   2.1970000  43.3650000  55.2860000   3.3070000  45.8100000  54.3750000
   3.3500000  44.4670000  53.5670000   4.1450000  44.5990000  54.9120000
  35.5810000   2.7630000  35.5360000  34.4160000   2.1830000  36.6810000
  34.5220000   2.2490000  34.2380000  34.4040000   2.1870000  38.1440000
  33.2840000   1.7150000  36.1250000  34.8430000   2.3200000  32.8650000
  33.3170000   1.7430000  34.6760000  35.3670000   2.6080000  39.0720000
  33.2340000   1.6170000  38.5850000  32.1350000   1.1140000  37.2850000
  33.8970000   1.9150000  31.9350000  35.6610000   2.6670000  32.5920000
  32.3790000   1.2830000  33.7250000  35.0870000   2.4130000  40.4290000
  36.1680000   2.9770000  38.7770000  32.9690000   1.3520000  39.9480000
  32.6850000   1.3610000  32.3640000  34.2180000   1.9230000  30.4710000
  31.5820000   0.8990000  34.0110000  33.9170000   1.7580000  40.8600000
  35.6750000   2.7790000  41.0500000  32.1910000   0.9110000  40.2010000
  32.0600000   1.0780000  31.7350000  35.2090000   2.7530000  29.9770000
  33.5910000   1.0930000  29.5750000  33.7380000   1.4510000  42.3520000
  35.5560000   2.7730000  28.6380000  35.6360000   3.3520000  30.5460000
  33.9130000   1.1570000  28.2030000  32.9030000   0.5450000  29.8790000
  32.5700000   2.1640000  42.9920000  33.6290000   0.4880000  42.3920000
  34.5740000   1.6950000  42.7800000  34.8880000   1.9780000  27.7510000
  36.2520000   3.3050000  28.3240000  33.4700000   0.5830000  27.6200000
  32.3510000   1.6550000  44.4480000  32.7090000   3.1210000  43.0750000
  31.7350000   2.0040000  42.5260000  35.0940000   2.0010000  26.8450000
  31.1490000   2.2430000  45.1360000  33.1720000   1.8470000  44.9270000
  32.2420000   0.6940000  44.3670000  30.9690000   1.7070000  46.5830000
  31.2660000   3.2020000  45.2280000  30.3310000   2.0650000  44.6450000
  29.7370000   2.2370000  47.2920000  31.7920000   1.8890000  47.0620000
  30.8640000   0.7490000  46.4790000  29.6160000   1.6630000  48.7180000
  29.8590000   3.1940000  47.3980000  28.9240000   2.0670000  46.7910000
  30.4350000   1.8280000  49.2120000  29.4920000   0.7080000  48.6070000
  28.4610000   2.2660000  49.4700000  28.3070000   1.6680000  50.8850000
  28.5440000   3.2290000  49.5550000  27.6210000   2.0550000  49.0330000
  29.1220000   1.9260000  51.3450000  27.1290000   2.1870000  51.6430000
  28.2750000   0.7030000  50.8030000  27.1650000   3.1470000  51.7140000
  27.1220000   1.8050000  52.5220000  26.3270000   1.9370000  51.1770000
  32.6750000   2.7630000  88.5810000  31.5110000   2.1830000  89.7250000
  31.6170000   2.2490000  87.2820000  31.4990000   2.1870000  91.1890000
  30.3790000   1.7150000  89.1700000  31.9380000   2.3200000  85.9100000
  30.4110000   1.7430000  87.7200000  32.4610000   2.6080000  92.1160000
  30.3290000   1.6170000  91.6300000  29.2300000   1.1140000  90.3290000
  30.9910000   1.9150000  84.9800000  32.7560000   2.6670000  85.6360000
  29.4740000   1.2830000  86.7690000  32.1820000   2.4130000  93.4740000
  33.2630000   2.9770000  91.8220000  30.0640000   1.3520000  92.9930000
  29.7800000   1.3610000  85.4090000  31.3130000   1.9230000  83.5150000
  28.6770000   0.8990000  87.0560000  31.0120000   1.7580000  93.9050000
  32.7700000   2.7790000  94.0950000  29.2860000   0.9110000  93.2460000
  29.1550000   1.0780000  84.7800000  32.3030000   2.7530000  83.0220000
  30.6850000   1.0930000  82.6190000  30.8330000   1.4510000  95.3960000
  32.6510000   2.7730000  81.6830000  32.7310000   3.3520000  83.5900000
  31.0080000   1.1570000  81.2480000  29.9980000   0.5450000  82.9230000
  29.6650000   2.1640000  96.0370000  30.7230000   0.4880000  95.4370000
  31.6690000   1.6950000  95.8240000  31.9830000   1.9780000  80.7960000
  33.3470000   3.3050000  81.3680000  30.5640000   0.5830000  80.6650000
  29.4460000   1.6550000  97.4920000  29.8030000   3.1210000  96.1190000
  28.8290000   2.0040000  95.5710000  32.1890000   2.0010000  79.8890000
  28.2440000   2.2430000  98.1800000  30.2670000   1.8470000  97.9710000
  29.3370000   0.6940000  97.4120000  28.0640000   1.7070000  99.6270000
  28.3610000   3.2020000  98.2730000  27.4260000   2.0650000  97.6900000
  26.8320000   2.2370000 100.3370000  28.8870000   1.8890000 100.1070000
  27.9580000   0.7490000  99.5230000  26.7110000   1.6630000 101.7630000
  26.9540000   3.1940000 100.4420000  26.0190000   2.0670000  99.8350000
  27.5290000   1.8280000 102.2560000  26.5860000   0.7080000 101.6520000
  25.5560000   2.2660000 102.5150000  25.4020000   1.6680000 103.9300000
  25.6390000   3.2290000 102.6000000  24.7160000   2.0550000 102.0780000
  26.2170000   1.9260000 104.3900000  24.2240000   2.1870000 104.6880000
  25.3700000   0.7030000 103.8480000  24.2600000   3.1470000 104.7590000
  24.2170000   1.8050000 105.5670000  23.4220000   1.9370000 104.2220000
  32.6750000  10.5200000  88.5810000  31.5110000   9.9400000  89.7250000
  31.6170000  10.0050000  87.2820000  31.4990000   9.9440000  91.1890000
  30.3790000   9.4720000  89.1700000  31.9380000  10.0770000  85.9100000
  30.4110000   9.5000000  87.7200000  32.4610000  10.3650000  92.1160000
  30.3290000   9.3740000  91.6300000  29.2300000   8.8710000  90.3290000
  30.9910000   9.6720000  84.9800000  32.7560000  10.4240000  85.6360000
  29.4740000   9.0400000  86.7690000  32.1820000  10.1700000  93.4740000
  33.2630000  10.7340000  91.8220000  30.0640000   9.1090000  92.9930000
  29.7800000   9.1180000  85.4090000  31.3130000   9.6800000  83.5150000
  28.6770000   8.6560000  87.0560000  31.0120000   9.5150000  93.9050000
  32.7700000  10.5360000  94.0950000  29.2860000   8.6680000  93.2460000
  29.1550000   8.8350000  84.7800000  32.3030000  10.5100000  83.0220000
  30.6850000   8.8500000  82.6190000  30.8330000   9.2080000  95.3960000
  32.6510000  10.5300000  81.6830000  32.7310000  11.1080000  83.5900000
  31.0080000   8.9130000  81.2480000  29.9980000   8.3020000  82.9230000
  29.6650000   9.9210000  96.0370000  30.7230000   8.2450000  95.4370000
  31.6690000   9.4520000  95.8240000  31.9830000   9.7350000  80.7960000
  33.3470000  11.0610000  81.3680000  30.5640000   8.3400000  80.6650000
  29.4460000   9.4110000  97.4920000  29.8030000  10.8780000  96.1190000
  28.8290000   9.7610000  95.5710000  32.1890000   9.7580000  79.8890000
  28.2440000  10.0000000  98.1800000  30.2670000   9.6040000  97.9710000
  29.3370000   8.4510000  97.4120000  28.0640000   9.4640000  99.6270000
  28.3610000  10.9590000  98.2730000  27.4260000   9.8220000  97.6900000
  26.8320000   9.9940000 100.3370000  28.8870000   9.6460000 100.1070000
  27.9580000   8.5060000  99.5230000  26.7110000   9.4200000 101.7630000
  26.9540000  10.9500000 100.4420000  26.0190000   9.8240000  99.8350000
  27.5290000   9.5850000 102.2560000  26.5860000   8.4650000 101.6520000
  25.5560000  10.0230000 102.5150000  25.4020000   9.4250000 103.9300000
  25.6390000  10.9860000 102.6000000  24.7160000   9.8120000 102.0780000
  26.2170000   9.6830000 104.3900000  24.2240000   9.9440000 104.6880000
  25.3700000   8.4590000 103.8480000  24.2600000  10.9040000 104.7590000
  24.2170000   9.5620000 105.5670000  23.4220000   9.6940000 104.2220000
  32.6750000  18.2770000  88.5810000  31.5110000  17.6960000  89.7250000
  31.6170000  17.7620000  87.2820000  31.4990000  17.7010000  91.1890000
  30.3790000  17.2290000  89.1700000  31.9380000  17.8340000  85.9100000
  30.4110000  17.2570000  87.7200000  32.4610000  18.1210000  92.1160000
  30.3290000  17.1310000  91.6300000  29.2300000  16.6270000  90.3290000
  30.9910000  17.4290000  84.9800000  32.7560000  18.1810000  85.6360000
  29.4740000  16.7970000  86.7690000  32.1820000  17.9270000  93.4740000
  33.2630000  18.4910000  91.8220000  30.0640000  16.8660000  92.9930000
  29.7800000  16.8750000  85.4090000  31.3130000  17.4370000  83.5150000
  28.6770000  16.4130000  87.0560000  31.0120000  17.2720000  93.9050000
  32.7700000  18.2920000  94.0950000  29.2860000  16.4240000  93.2460000
  29.1550000  16.5920000  84.7800000  32.3030000  18.2660000  83.0220000
  30.6850000  16.6070000  82.6190000  30.8330000  16.9650000  95.3960000
  32.6510000  18.2870000  81.6830000  32.7310000  18.8650000  83.5900000
  31.0080000  16.6700000  81.2480000  29.9980000  16.0590000  82.9230000
  29.6650000  17.6780000  96.0370000  30.7230000  16.0020000  95.4370000
  31.6690000  17.2080000  95.8240000  31.9830000  17.4920000  80.7960000
  33.3470000  18.8180000  81.3680000  30.5640000  16.0970000  80.6650000
  29.4460000  17.1680000  97.4920000  29.8030000  18.6350000  96.1190000
  28.8290000  17.5180000  95.5710000  32.1890000  17.5150000  79.8890000
  28.2440000  17.7570000  98.1800000  30.2670000  17.3610000  97.9710000
  29.3370000  16.2080000  97.4120000  28.0640000  17.2210000  99.6270000
  28.3610000  18.7160000  98.2730000  27.4260000  17.5780000  97.6900000
  26.8320000  17.7510000 100.3370000  28.8870000  17.4030000 100.1070000
  27.9580000  16.2620000  99.5230000  26.7110000  17.1770000 101.7630000
  26.9540000  18.7070000 100.4420000  26.0190000  17.5810000  99.8350000
  27.5290000  17.3420000 102.2560000  26.5860000  16.2210000 101.6520000
  25.5560000  17.7790000 102.5150000  25.4020000  17.1820000 103.9300000
  25.6390000  18.7420000 102.6000000  24.7160000  17.5690000 102.0780000
  26.2170000  17.4400000 104.3900000  24.2240000  17.7010000 104.6880000
  25.3700000  16.2160000 103.8480000  24.2600000  18.6610000 104.7590000
  24.2170000  17.3190000 105.5670000  23.4220000  17.4500000 104.2220000
  32.6750000  26.0330000  88.5810000  31.5110000  25.4530000  89.7250000
  31.6170000  25.5190000  87.2820000  31.4990000  25.4580000  91.1890000
  30.3790000  24.9850000  89.1700000  31.9380000  25.5900000  85.9100000
  30.4110000  25.0130000  87.7200000  32.4610000  25.8780000  92.1160000
  30.3290000  24.8880000  91.6300000  29.2300000  24.3840000  90.3290000
  30.9910000  25.1860000  84.9800000  32.7560000  25.9380000  85.6360000
  29.4740000  24.5530000  86.7690000  32.1820000  25.6840000  93.4740000
  33.2630000  26.2480000  91.8220000  30.0640000  24.6220000  92.9930000
  29.7800000  24.6320000  85.4090000  31.3130000  25.1930000  83.5150000
  28.6770000  24.1700000  87.0560000  31.0120000  25.0290000  93.9050000
  32.7700000  26.0490000  94.0950000  29.2860000  24.1810000  93.2460000
  29.1550000  24.3490000  84.7800000  32.3030000  26.0230000  83.0220000
  30.6850000  24.3630000  82.6190000  30.8330000  24.7220000  95.3960000
  32.6510000  26.0430000  81.6830000  32.7310000  26.6220000  83.5900000
  31.0080000  24.4270000  81.2480000  29.9980000  23.8160000  82.9230000
  29.6650000  25.4350000  96.0370000  30.7230000  23.7590000  95.4370000
  31.6690000  24.9650000  95.8240000  31.9830000  25.2480000  80.7960000
  33.3470000  26.5750000  81.3680000  30.5640000  23.8530000  80.6650000
  29.4460000  24.9250000  97.4920000  29.8030000  26.3910000  96.1190000
  28.8290000  25.2740000  95.5710000  32.1890000  25.2720000  79.8890000
  28.2440000  25.5140000  98.1800000  30.2670000  25.1180000  97.9710000
  29.3370000  23.9650000  97.4120000  28.0640000  24.9780000  99.6270000
  28.3610000  26.4720000  98.2730000  27.4260000  25.3350000  97.6900000
  26.8320000  25.5070000 100.3370000  28.8870000  25.1590000 100.1070000
  27.9580000  24.0190000  99.5230000  26.7110000  24.9330000 101.7630000
  26.9540000  26.4640000 100.4420000  26.0190000  25.3380000  99.8350000
  27.5290000  25.0990000 102.2560000  26.5860000  23.9780000 101.6520000
  25.5560000  25.5360000 102.5150000  25.4020000  24.9390000 103.9300000
  25.6390000  26.4990000 102.6000000  24.7160000  25.3250000 102.0780000
  26.2170000  25.1960000 104.3900000  24.2240000  25.4580000 104.6880000
  25.3700000  23.9730000 103.8480000  24.2600000  26.4180000 104.7590000
  24.2170000  25.0750000 105.5670000  23.4220000  25.2070000 104.2220000
  32.6750000  33.7900000  88.5810000  31.5110000  33.2100000  89.7250000
  31.6170000  33.2760000  87.2820000  31.4990000  33.2150000  91.1890000
  30.3790000  32.7420000  89.1700000  31.9380000  33.3470000  85.9100000
  30.4110000  32.7700000  87.7200000  32.4610000  33.6350000  92.1160000
  30.3290000  32.6440000  91.6300000  29.2300000  32.1410000  90.3290000
  30.9910000  32.9420000  84.9800000  32.7560000  33.6950000  85.6360000
  29.4740000  32.3100000  86.7690000  32.1820000  33.4400000  93.4740000
  33.2630000  34.0040000  91.8220000  30.0640000  32.3790000  92.9930000
  29.7800000  32.3890000  85.4090000  31.3130000  32.9500000  83.5150000
  28.6770000  31.9270000  87.0560000  31.0120000  32.7860000  93.9050000
  32.7700000  33.8060000  94.0950000  29.2860000  31.9380000  93.2460000
  29.1550000  32.1050000  84.7800000  32.3030000  33.7800000  83.0220000
  30.6850000  32.1200000  82.6190000  30.8330000  32.4780000  95.3960000
  32.6510000  33.8000000  81.6830000  32.7310000  34.3790000  83.5900000
  31.0080000  32.1840000  81.2480000  29.9980000  31.5720000  82.9230000
  29.6650000  33.1910000  96.0370000  30.7230000  31.5150000  95.4370000
  31.6690000  32.7220000  95.8240000  31.9830000  33.0050000  80.7960000
  33.3470000  34.3320000  81.3680000  30.5640000  31.6100000  80.6650000
  29.4460000  32.6820000  97.4920000  29.8030000  34.1480000  96.1190000
  28.8290000  33.0310000  95.5710000  32.1890000  33.0290000  79.8890000
  28.2440000  33.2700000  98.1800000  30.2670000  32.8740000  97.9710000
  29.3370000  31.7210000  97.4120000  28.0640000  32.7340000  99.6270000
  28.3610000  34.2290000  98.2730000  27.4260000  33.0920000  97.6900000
  26.8320000  33.2640000 100.3370000  28.8870000  32.9160000 100.1070000
  27.9580000  31.7760000  99.5230000  26.7110000  32.6900000 101.7630000
  26.9540000  34.2210000 100.4420000  26.0190000  33.0950000  99.8350000
  27.5290000  32.8550000 102.2560000  26.5860000  31.7350000 101.6520000
  25.5560000  33.2930000 102.5150000  25.4020000  32.6960000 103.9300000
  25.6390000  34.2560000 102.6000000  24.7160000  33.0820000 102.0780000
  26.2170000  32.9530000 104.3900000  24.2240000  33.2150000 104.6880000
  25.3700000  31.7300000 103.8480000  24.2600000  34.1750000 104.7590000
  24.2170000  32.8320000 105.5670000  23.4220000  32.9640000 104.2220000
  32.6750000  41.5470000  88.5810000  31.5110000  40.9670000  89.7250000
  31.6170000  41.0330000  87.2820000  31.4990000  40.9710000  91.1890000
  30.3790000  40.4990000  89.1700000  31.9380000  41.1040000  85.9100000
  30.4110000  40.5270000  87.7200000  32.4610000  41.3920000  92.1160000
  30.3290000  40.4010000  91.6300000  29.2300000  39.8980000  90.3290000
  30.9910000  40.6990000  84.9800000  32.7560000  41.4510000  85.6360000
  29.4740000  40.0670000  86.7690000  32.1820000  41.1970000  93.4740000
  33.2630000  41.7610000  91.8220000  30.0640000  40.1360000  92.9930000
  29.7800000  40.1450000  85.4090000  31.3130000  40.7070000  83.5150000
  28.6770000  39.6830000  87.0560000  31.0120000  40.5420000  93.9050000
  32.7700000  41.5630000  94.0950000  29.2860000  39.6950000  93.2460000
  29.1550000  39.8620000  84.7800000  32.3030000  41.5370000  83.0220000
  30.6850000  39.8770000  82.6190000  30.8330000  40.2350000  95.3960000
  32.6510000  41.5570000  81.6830000  32.7310000  42.1360000  83.5900000
  31.0080000  39.9410000  81.2480000  29.9980000  39.3290000  82.9230000
  29.6650000  40.9480000  96.0370000  30.7230000  39.2720000  95.4370000
  31.6690000  40.4790000  95.8240000  31.9830000  40.7620000  80.7960000
  33.3470000  42.0890000  81.3680000  30.5640000  39.3670000  80.6650000
  29.4460000  40.4390000  97.4920000  29.8030000  41.9050000  96.1190000
  28.8290000  40.7880000  95.5710000  32.1890000  40.7850000  79.8890000
  28.2440000  41.0270000  98.1800000  30.2670000  40.6310000  97.9710000
  29.3370000  39.4780000  97.4120000  28.0640000  40.4910000  99.6270000
  28.3610000  41.9860000  98.2730000  27.4260000  40.8490000  97.6900000
  26.8320000  41.0210000 100.3370000  28.8870000  40.6730000 100.1070000
  27.9580000  39.5330000  99.5230000  26.7110000  40.4470000 101.7630000
  26.9540000  41.9780000 100.4420000  26.0190000  40.8510000  99.8350000
  27.5290000  40.6120000 102.2560000  26.5860000  39.4920000 101.6520000
  25.5560000  41.0500000 102.5150000  25.4020000  40.4520000 103.9300000
  25.6390000  42.0130000 102.6000000  24.7160000  40.8390000 102.0780000
  26.2170000  40.7100000 104.3900000  24.2240000  40.9710000 104.6880000
  25.3700000  39.4870000 103.8480000  24.2600000  41.9310000 104.7590000
  24.2170000  40.5890000 105.5670000  23.4220000  40.7210000 104.2220000
  35.5810000  10.5200000  35.5360000  34.4160000   9.9400000  36.6810000
  34.5220000  10.0050000  34.2380000  34.4040000   9.9440000  38.1440000
  33.2840000   9.4720000  36.1250000  34.8430000  10.0770000  32.8650000
  33.3170000   9.5000000  34.6760000  35.3670000  10.3650000  39.0720000
  33.2340000   9.3740000  38.5850000  32.1350000   8.8710000  37.2850000
  33.8970000   9.6720000  31.9350000  35.6610000  10.4240000  32.5920000
  32.3790000   9.0400000  33.7250000  35.0870000  10.1700000  40.4290000
  36.1680000  10.7340000  38.7770000  32.9690000   9.1090000  39.9480000
  32.6850000   9.1180000  32.3640000  34.2180000   9.6800000  30.4710000
  31.5820000   8.6560000  34.0110000  33.9170000   9.5150000  40.8600000
  35.6750000  10.5360000  41.0500000  32.1910000   8.6680000  40.2010000
  32.0600000   8.8350000  31.7350000  35.2090000  10.5100000  29.9770000
  33.5910000   8.8500000  29.5750000  33.7380000   9.2080000  42.3520000
  35.5560000  10.5300000  28.6380000  35.6360000  11.1080000  30.5460000
  33.9130000   8.9130000  28.2030000  32.9030000   8.3020000  29.8790000
  32.5700000   9.9210000  42.9920000  33.6290000   8.2450000  42.3920000
  34.5740000   9.4520000  42.7800000  34.8880000   9.7350000  27.7510000
  36.2520000  11.0610000  28.3240000  33.4700000   8.3400000  27.6200000
  32.3510000   9.4110000  44.4480000  32.7090000  10.8780000  43.0750000
  31.7350000   9.7610000  42.5260000  35.0940000   9.7580000  26.8450000
  31.1490000  10.0000000  45.1360000  33.1720000   9.6040000  44.9270000
  32.2420000   8.4510000  44.3670000  30.9690000   9.4640000  46.5830000
  31.2660000  10.9590000  45.2280000  30.3310000   9.8220000  44.6450000
  29.7370000   9.9940000  47.2920000  31.7920000   9.6460000  47.0620000
  30.8640000   8.5060000  46.4790000  29.6160000   9.4200000  48.7180000
  29.8590000  10.9500000  47.3980000  28.9240000   9.8240000  46.7910000
  30.4350000   9.5850000  49.2120000  29.4920000   8.4650000  48.6070000
  28.4610000  10.0230000  49.4700000  28.3070000   9.4250000  50.8850000
  28.5440000  10.9860000  49.5550000  27.6210000   9.8120000  49.0330000
  29.1220000   9.6830000  51.3450000  27.1290000   9.9440000  51.6430000
  28.2750000   8.4590000  50.8030000  27.1650000  10.9040000  51.7140000
  27.1220000   9.5620000  52.5220000  26.3270000   9.6940000  51.1770000
  35.5810000  18.2770000  35.5360000  34.4160000  17.6960000  36.6810000
  34.5220000  17.7620000  34.2380000  34.4040000  17.7010000  38.1440000
  33.2840000  17.2290000  36.1250000  34.8430000  17.8340000  32.8650000
  33.3170000  17.2570000  34.6760000  35.3670000  18.1210000  39.0720000
  33.2340000  17.1310000  38.5850000  32.1350000  16.6270000  37.2850000
  33.8970000  17.4290000  31.9350000  35.6610000  18.1810000  32.5920000
  32.3790000  16.7970000  33.7250000  35.0870000  17.9270000  40.4290000
  36.1680000  18.4910000  38.7770000  32.9690000  16.8660000  39.9480000
  32.6850000  16.8750000  32.3640000  34.2180000  17.4370000  30.4710000
  31.5820000  16.4130000  34.0110000  33.9170000  17.2720000  40.8600000
  35.6750000  18.2920000  41.0500000  32.1910000  16.4240000  40.2010000
  32.0600000  16.5920000  31.7350000  35.2090000  18.2660000  29.9770000
  33.5910000  16.6070000  29.5750000  33.7380000  16.9650000  42.3520000
  35.5560000  18.2870000  28.6380000  35.6360000  18.8650000  30.5460000
  33.9130000  16.6700000  28.2030000  32.9030000  16.0590000  29.8790000
  32.5700000  17.6780000  42.9920000  33.6290000  16.0020000  42.3920000
  34.5740000  17.2080000  42.7800000  34.8880000  17.4920000  27.7510000
  36.2520000  18.8180000  28.3240000  33.4700000  16.0970000  27.6200000
  32.3510000  17.1680000  44.4480000  32.7090000  18.6350000  43.0750000
  31.7350000  17.5180000  42.5260000  35.0940000  17.5150000  26.8450000
  31.1490000  17.7570000  45.1360000  33.1720000  17.3610000  44.9270000
  32.2420000  16.2080000  44.3670000  30.9690000  17.2210000  46.5830000
  31.2660000  18.7160000  45.2280000  30.3310000  17.5780000  44.6450000
  29.7370000  17.7510000  47.2920000  31.7920000  17.4030000  47.0620000
  30.8640000  16.2620000  46.4790000  29.6160000  17.1770000  48.7180000
  29.8590000  18.7070000  47.3980000  28.9240000  17.5810000  46.7910000
  30.4350000  17.3420000  49.2120000  29.4920000  16.2210000  48.6070000
  28.4610000  17.7790000  49.4700000  28.3070000  17.1820000  50.8850000
  28.5440000  18.7420000  49.5550000  27.6210000  17.5690000  49.0330000
  29.1220000  17.4400000  51.3450000  27.1290000  17.7010000  51.6430000
  28.2750000  16.2160000  50.8030000  27.1650000  18.6610000  51.7140000
  27.1220000  17.3190000  52.5220000  26.3270000  17.4500000  51.1770000
  35.5810000  26.0330000  35.5360000  34.4160000  25.4530000  36.6810000
  34.5220000  25.5190000  34.2380000  34.4040000  25.4580000  38.1440000
  33.2840000  24.9850000  36.1250000  34.8430000  25.5900000  32.8650000
  33.3170000  25.0130000  34.6760000  35.3670000  25.8780000  39.0720000
  33.2340000  24.8880000  38.5850000  32.1350000  24.3840000  37.2850000
  33.8970000  25.1860000  31.9350000  35.6610000  25.9380000  32.5920000
  32.3790000  24.5530000  33.7250000  35.0870000  25.6840000  40.4290000
  36.1680000  26.2480000  38.7770000  32.9690000  24.6220000  39.9480000
  32.6850000  24.6320000  32.3640000  34.2180000  25.1930000  30.4710000
  31.5820000  24.1700000  34.0110000  33.9170000  25.0290000  40.8600000
  35.6750000  26.0490000  41.0500000  32.1910000  24.1810000  40.2010000
  32.0600000  24.3490000  31.7350000  35.2090000  26.0230000  29.9770000
  33.5910000  24.3630000  29.5750000  33.7380000  24.7220000  42.3520000
  35.5560000  26.0430000  28.6380000  35.6360000  26.6220000  30.5460000
  33.9130000  24.4270000  28.2030000  32.9030000  23.8160000  29.8790000
  32.5700000  25.4350000  42.9920000  33.6290000  23.7590000  42.3920000
  34.5740000  24.9650000  42.7800000  34.8880000  25.2480000  27.7510000
  36.2520000  26.5750000  28.3240000  33.4700000  23.8530000  27.6200000
  32.3510000  24.9250000  44.4480000  32.7090000  26.3910000  43.0750000
  31.7350000  25.2740000  42.5260000  35.0940000  25.2720000  26.8450000
  31.1490000  25.5140000  45.1360000  33.1720000  25.1180000  44.9270000
  32.2420000  23.9650000  44.3670000  30.9690000  24.9780000  46.5830000
  31.2660000  26.4720000  45.2280000  30.3310000  25.3350000  44.6450000
  29.7370000  25.5070000  47.2920000  31.7920000  25.1590000  47.0620000
  30.8640000  24.0190000  46.4790000  29.6160000  24.9330000  48.7180000
  29.8590000  26.4640000  47.3980000  28.9240000  25.3380000  46.7910000
  30.4350000  25.0990000  49.2120000  29.4920000  23.9780000  48.6070000
  28.4610000  25.5360000  49.4700000  28.3070000  24.9390000  50.8850000
  28.5440000  26.4990000  49.5550000  27.6210000  25.3250000  49.0330000
  29.1220000  25.1960000  51.3450000  27.1290000  25.4580000  51.6430000
  28.2750000  23.9730000  50.8030000  27.1650000  26.4180000  51.7140000
  27.1220000  25.0750000  52.5220000  26.3270000  25.2070000  51.1770000
  35.5810000  33.7900000  35.5360000  34.4160000  33.2100000  36.6810000
  34.5220000  33.2760000  34.2380000  34.4040000  33.2150000  38.1440000
  33.2840000  32.7420000  36.1250000  34.8430000  33.3470000  32.8650000
  33.3170000  32.7700000  34.6760000  35.3670000  33.6350000  39.0720000
  33.2340000  32.6440000  38.5850000  32.1350000  32.1410000  37.2850000
  33.8970000  32.9420000  31.9350000  35.6610000  33.6950000  32.5920000
  32.3790000  32.3100000  33.7250000  35.0870000  33.4400000  40.4290000
  36.1680000  34.0040000  38.7770000  32.9690000  32.3790000  39.9480000
  32.6850000  32.3890000  32.3640000  34.2180000  32.9500000  30.4710000
  31.5820000  31.9270000  34.0110000  33.9170000  32.7860000  40.8600000
  35.6750000  33.8060000  41.0500000  32.1910000  31.9380000  40.2010000
  32.0600000  32.1050000  31.7350000  35.2090000  33.7800000  29.9770000
  33.5910000  32.1200000  29.5750000  33.7380000  32.4780000  42.3520000
  35.5560000  33.8000000  28.6380000  35.6360000  34.3790000  30.5460000
  33.9130000  32.1840000  28.2030000  32.9030000  31.5720000  29.8790000
  32.5700000  33.1910000  42.9920000  33.6290000  31.5150000  42.3920000
  34.5740000  32.7220000  42.7800000  34.8880000  33.0050000  27.7510000
  36.2520000  34.3320000  28.3240000  33.4700000  31.6100000  27.6200000
  32.3510000  32.6820000  44.4480000  32.7090000  34.1480000  43.0750000
  31.7350000  33.0310000  42.5260000  35.0940000  33.0290000  26.8450000
  31.1490000  33.2700000  45.1360000  33.1720000  32.8740000  44.9270000
  32.2420000  31.7210000  44.3670000  30.9690000  32.7340000  46.5830000
  31.2660000  34.2290000  45.2280000  30.3310000  33.0920000  44.6450000
  29.7370000  33.2640000  47.2920000  31.7920000  32.9160000  47.0620000
  30.8640000  31.7760000  46.4790000  29.6160000  32.6900000  48.7180000
  29.8590000  34.2210000  47.3980000  28.9240000  33.0950000  46.7910000
  30.4350000  32.8550000  49.2120000  29.4920000  31.7350000  48.6070000
  28.4610000  33.2930000  49.4700000  28.3070000  32.6960000  50.8850000
  28.5440000  34.2560000  49.5550000  27.6210000  33.0820000  49.0330000
  29.1220000  32.9530000  51.3450000  27.1290000  33.2150000  51.6430000
  28.2750000  31.7300000  50.8030000  27.1650000  34.1750000  51.7140000
  27.1220000  32.8320000  52.5220000  26.3270000  32.9640000  51.1770000
  35.5810000  41.5470000  35.5360000  34.4160000  40.9670000  36.6810000
  34.5220000  41.0330000  34.2380000  34.4040000  40.9710000  38.1440000
  33.2840000  40.4990000  36.1250000  34.8430000  41.1040000  32.8650000
  33.3170000  40.5270000  34.6760000  35.3670000  41.3920000  39.0720000
  33.2340000  40.4010000  38.5850000  32.1350000  39.8980000  37.2850000
  33.8970000  40.6990000  31.9350000  35.6610000  41.4510000  32.5920000
  32.3790000  40.0670000  33.7250000  35.0870000  41.1970000  40.4290000
  36.1680000  41.7610000  38.7770000  32.9690000  40.1360000  39.9480000
  32.6850000  40.1450000  32.3640000  34.2180000  40.7070000  30.4710000
  31.5820000  39.6830000  34.0110000  33.9170000  40.5420000  40.8600000
  35.6750000  41.5630000  41.0500000  32.1910000  39.6950000  40.2010000
  32.0600000  39.8620000  31.7350000  35.2090000  41.5370000  29.9770000
  33.5910000  39.8770000  29.5750000  33.7380000  40.2350000  42.3520000
  35.5560000  41.5570000  28.6380000  35.6360000  42.1360000  30.5460000
  33.9130000  39.9410000  28.2030000  32.9030000  39.3290000  29.8790000
  32.5700000  40.9480000  42.9920000  33.6290000  39.2720000  42.3920000
  34.5740000  40.4790000  42.7800000  34.8880000  40.7620000  27.7510000
  36.2520000  42.0890000  28.3240000  33.4700000  39.3670000  27.6200000
  32.3510000  40.4390000  44.4480000  32.7090000  41.9050000  43.0750000
  31.7350000  40.7880000  42.5260000  35.0940000  40.7850000  26.8450000
  31.1490000  41.0270000  45.1360000  33.1720000  40.6310000  44.9270000
  32.2420000  39.4780000  44.3670000  30.9690000  40.4910000  46.5830000
  31.2660000  41.9860000  45.2280000  30.3310000  40.8490000  44.6450000
  29.7370000  41.0210000  47.2920000  31.7920000  40.6730000  47.0620000
  30.8640000  39.5330000  46.4790000  29.6160000  40.4470000  48.7180000
  29.8590000  41.9780000  47.3980000  28.9240000  40.8510000  46.7910000
  30.4350000  40.6120000  49.2120000  29.4920000  39.4920000  48.6070000
  28.4610000  41.0500000  49.4700000  28.3070000  40.4520000  50.8850000
  28.5440000  42.0130000  49.5550000  27.6210000  40.8390000  49.0330000
  29.1220000  40.7100000  51.3450000  27.1290000  40.9710000  51.6430000
  28.2750000  39.4870000  50.8030000  27.1650000  41.9310000  51.7140000
  27.1220000  40.5890000  52.5220000  26.3270000  40.7210000  51.1770000
  31.0560000   8.8720000  17.5080000  32.2200000   9.4520000  16.3640000
  32.1140000   9.3870000  18.8070000  32.2330000   9.4480000  14.9000000
  33.3530000   9.9200000  16.9190000  31.7930000   9.3150000  20.1790000
  33.3200000   9.8920000  18.3690000  31.2700000   9.0270000  13.9730000
  33.4020000  10.0180000  14.4590000  34.5010000  10.5210000  15.7600000
  32.7400000   9.7200000  21.1090000  30.9750000   8.9680000  20.4530000
  34.2570000  10.3520000  19.3200000  31.5490000   9.2220000  12.6150000
  30.4690000   8.6580000  14.2670000  33.6670000  10.2830000  13.0960000
  33.9510000  10.2740000  20.6800000  32.4180000   9.7120000  22.5740000
  35.0540000  10.7360000  19.0330000  32.7190000   9.8770000  12.1840000
  30.9610000   8.8560000  11.9940000  34.4450000  10.7240000  12.8430000
  34.5760000  10.5570000  21.3090000  31.4280000   8.8820000  23.0670000
  33.0460000  10.5420000  23.4700000  32.8980000  10.1840000  10.6930000
  31.0800000   8.8620000  24.4060000  31.0000000   8.2840000  22.4990000
  32.7230000  10.4790000  24.8410000  33.7340000  11.0900000  23.1660000
  34.0660000   9.4710000  10.0520000  33.0080000  11.1470000  10.6520000
  32.0620000   9.9400000  10.2650000  31.7480000   9.6570000  25.2930000
  30.3850000   8.3310000  24.7210000  33.1670000  11.0520000  25.4240000
  34.2850000   9.9810000   8.5970000  33.9280000   8.5140000   9.9700000
  34.9020000   9.6310000  10.5180000  31.5420000   9.6340000  26.2000000
  35.4870000   9.3920000   7.9090000  33.4640000   9.7880000   8.1180000
  34.3940000  10.9410000   8.6770000  35.6670000   9.9280000   6.4620000
  35.3700000   8.4330000   7.8160000  36.3050000   9.5700000   8.3990000
  36.8990000   9.3980000   5.7520000  34.8440000   9.7460000   5.9820000
  35.7730000  10.8860000   6.5660000  37.0200000   9.9720000   4.3260000
  36.7780000   8.4420000   5.6470000  37.7120000   9.5680000   6.2540000
  36.2020000   9.8070000   3.8330000  37.1450000  10.9270000   4.4370000
  38.1760000   9.3690000   3.5740000  38.3290000   9.9670000   2.1590000
  38.0920000   8.4060000   3.4890000  39.0150000   9.5800000   4.0110000
  37.5140000   9.7090000   1.6990000  39.5080000   9.4480000   1.4010000
  38.3620000  10.9330000   2.2410000  39.4710000   8.4880000   1.3300000
  39.5140000   9.8300000   0.5220000  40.3090000   9.6980000   1.8670000
  28.1500000   8.8720000  70.5530000  29.3150000   9.4520000  69.4080000
  29.2090000   9.3870000  71.8510000  29.3270000   9.4480000  67.9450000
  30.4470000   9.9200000  69.9640000  28.8880000   9.3150000  73.2240000
  30.4140000   9.8920000  71.4130000  28.3650000   9.0270000  67.0170000
  30.4970000  10.0180000  67.5040000  31.5960000  10.5210000  68.8040000
  29.8340000   9.7200000  74.1540000  28.0700000   8.9680000  73.4970000
  31.3520000  10.3520000  72.3640000  28.6440000   9.2220000  65.6600000
  27.5630000   8.6580000  67.3120000  30.7620000  10.2830000  66.1410000
  31.0460000  10.2740000  73.7250000  29.5130000   9.7120000  75.6180000
  32.1490000  10.7360000  72.0780000  29.8140000   9.8770000  65.2290000
  28.0560000   8.8560000  65.0390000  31.5400000  10.7240000  65.8880000
  31.6710000  10.5570000  74.3540000  28.5230000   8.8820000  76.1120000
  30.1400000  10.5420000  76.5140000  29.9930000  10.1840000  63.7370000
  28.1750000   8.8620000  77.4510000  28.0950000   8.2840000  75.5430000
  29.8180000  10.4790000  77.8860000  30.8280000  11.0900000  76.2100000
  31.1610000   9.4710000  63.0970000  30.1020000  11.1470000  63.6970000
  29.1570000   9.9400000  63.3090000  28.8430000   9.6570000  78.3380000
  27.4790000   8.3310000  77.7650000  30.2610000  11.0520000  78.4690000
  31.3800000   9.9810000  61.6410000  31.0230000   8.5140000  63.0140000
  31.9960000   9.6310000  63.5630000  28.6370000   9.6340000  79.2440000
  32.5820000   9.3920000  60.9530000  30.5590000   9.7880000  61.1620000
  31.4890000  10.9410000  61.7220000  32.7620000   9.9280000  59.5060000
  32.4650000   8.4330000  60.8610000  33.4000000   9.5700000  61.4440000
  33.9940000   9.3980000  58.7970000  31.9390000   9.7460000  59.0270000
  32.8670000  10.8860000  59.6100000  34.1150000   9.9720000  57.3710000
  33.8720000   8.4420000  58.6910000  34.8070000   9.5680000  59.2980000
  33.2970000   9.8070000  56.8770000  34.2400000  10.9270000  57.4820000
  35.2700000   9.3690000  56.6190000  35.4240000   9.9670000  55.2040000
  35.1870000   8.4060000  56.5340000  36.1100000   9.5800000  57.0560000
  34.6090000   9.7090000  54.7440000  36.6020000   9.4480000  54.4460000
  35.4560000  10.9330000  55.2860000  36.5660000   8.4880000  54.3750000
  36.6090000   9.8300000  53.5670000  37.4040000   9.6980000  54.9120000
  31.0560000  16.6290000  17.5080000  32.2200000  17.2090000  16.3640000
  32.1140000  17.1430000  18.8070000  32.2330000  17.2050000  14.9000000
  33.3530000  17.6770000  16.9190000  31.7930000  17.0720000  20.1790000
  33.3200000  17.6490000  18.3690000  31.2700000  16.7840000  13.9730000
  33.4020000  17.7750000  14.4590000  34.5010000  18.2780000  15.7600000
  32.7400000  17.4770000  21.1090000  30.9750000  16.7250000  20.4530000
  34.2570000  18.1090000  19.3200000  31.5490000  16.9790000  12.6150000
  30.4690000  16.4150000  14.2670000  33.6670000  18.0400000  13.0960000
  33.9510000  18.0310000  20.6800000  32.4180000  17.4690000  22.5740000
  35.0540000  18.4930000  19.0330000  32.7190000  17.6340000  12.1840000
  30.9610000  16.6130000  11.9940000  34.4450000  18.4810000  12.8430000
  34.5760000  18.3140000  21.3090000  31.4280000  16.6390000  23.0670000
  33.0460000  18.2990000  23.4700000  32.8980000  17.9410000  10.6930000
  31.0800000  16.6190000  24.4060000  31.0000000  16.0400000  22.4990000
  32.7230000  18.2350000  24.8410000  33.7340000  18.8470000  23.1660000
  34.0660000  17.2280000  10.0520000  33.0080000  18.9040000  10.6520000
  32.0620000  17.6970000  10.2650000  31.7480000  17.4140000  25.2930000
  30.3850000  16.0870000  24.7210000  33.1670000  18.8090000  25.4240000
  34.2850000  17.7370000   8.5970000  33.9280000  16.2710000   9.9700000
  34.9020000  17.3880000  10.5180000  31.5420000  17.3910000  26.2000000
  35.4870000  17.1490000   7.9090000  33.4640000  17.5450000   8.1180000
  34.3940000  18.6980000   8.6770000  35.6670000  17.6850000   6.4620000
  35.3700000  16.1900000   7.8160000  36.3050000  17.3270000   8.3990000
  36.8990000  17.1550000   5.7520000  34.8440000  17.5030000   5.9820000
  35.7730000  18.6430000   6.5660000  37.0200000  17.7290000   4.3260000
  36.7780000  16.1980000   5.6470000  37.7120000  17.3250000   6.2540000
  36.2020000  17.5640000   3.8330000  37.1450000  18.6840000   4.4370000
  38.1760000  17.1260000   3.5740000  38.3290000  17.7240000   2.1590000
  38.0920000  16.1630000   3.4890000  39.0150000  17.3370000   4.0110000
  37.5140000  17.4660000   1.6990000  39.5080000  17.2050000   1.4010000
  38.3620000  18.6890000   2.2410000  39.4710000  16.2450000   1.3300000
  39.5140000  17.5870000   0.5220000  40.3090000  17.4550000   1.8670000
  28.1500000  16.6290000  70.5530000  29.3150000  17.2090000  69.4080000
  29.2090000  17.1430000  71.8510000  29.3270000  17.2050000  67.9450000
  30.4470000  17.6770000  69.9640000  28.8880000  17.0720000  73.2240000
  30.4140000  17.6490000  71.4130000  28.3650000  16.7840000  67.0170000
  30.4970000  17.7750000  67.5040000  31.5960000  18.2780000  68.8040000
  29.8340000  17.4770000  74.1540000  28.0700000  16.7250000  73.4970000
  31.3520000  18.1090000  72.3640000  28.6440000  16.9790000  65.6600000
  27.5630000  16.4150000  67.3120000  30.7620000  18.0400000  66.1410000
  31.0460000  18.0310000  73.7250000  29.5130000  17.4690000  75.6180000
  32.1490000  18.4930000  72.0780000  29.8140000  17.6340000  65.2290000
  28.0560000  16.6130000  65.0390000  31.5400000  18.4810000  65.8880000
  31.6710000  18.3140000  74.3540000  28.5230000  16.6390000  76.1120000
  30.1400000  18.2990000  76.5140000  29.9930000  17.9410000  63.7370000
  28.1750000  16.6190000  77.4510000  28.0950000  16.0400000  75.5430000
  29.8180000  18.2350000  77.8860000  30.8280000  18.8470000  76.2100000
  31.1610000  17.2280000  63.0970000  30.1020000  18.9040000  63.6970000
  29.1570000  17.6970000  63.3090000  28.8430000  17.4140000  78.3380000
  27.4790000  16.0870000  77.7650000  30.2610000  18.8090000  78.4690000
  31.3800000  17.7370000  61.6410000  31.0230000  16.2710000  63.0140000
  31.9960000  17.3880000  63.5630000  28.6370000  17.3910000  79.2440000
  32.5820000  17.1490000  60.9530000  30.5590000  17.5450000  61.1620000
  31.4890000  18.6980000  61.7220000  32.7620000  17.6850000  59.5060000
  32.4650000  16.1900000  60.8610000  33.4000000  17.3270000  61.4440000
  33.9940000  17.1550000  58.7970000  31.9390000  17.5030000  59.0270000
  32.8670000  18.6430000  59.6100000  34.1150000  17.7290000  57.3710000
  33.8720000  16.1980000  58.6910000  34.8070000  17.3250000  59.2980000
  33.2970000  17.5640000  56.8770000  34.2400000  18.6840000  57.4820000
  35.2700000  17.1260000  56.6190000  35.4240000  17.7240000  55.2040000
  35.1870000  16.1630000  56.5340000  36.1100000  17.3370000  57.0560000
  34.6090000  17.4660000  54.7440000  36.6020000  17.2050000  54.4460000
  35.4560000  18.6890000  55.2860000  36.5660000  16.2450000  54.3750000
  36.6090000  17.5870000  53.5670000  37.4040000  17.4550000  54.9120000
  31.0560000   1.1150000  17.5080000  32.2200000   1.6960000  16.3640000
  32.1140000   1.6300000  18.8070000  32.2330000   1.6910000  14.9000000
  33.3530000   2.1630000  16.9190000  31.7930000   1.5580000  20.1790000
  33.3200000   2.1350000  18.3690000  31.2700000   1.2710000  13.9730000
  33.4020000   2.2610000  14.4590000  34.5010000   2.7650000  15.7600000
  32.7400000   1.9630000  21.1090000  30.9750000   1.2110000  20.4530000
  34.2570000   2.5950000  19.3200000  31.5490000   1.4650000  12.6150000
  30.4690000   0.9010000  14.2670000  33.6670000   2.5260000  13.0960000
  33.9510000   2.5170000  20.6800000  32.4180000   1.9550000  22.5740000
  35.0540000   2.9790000  19.0330000  32.7190000   2.1200000  12.1840000
  30.9610000   1.1000000  11.9940000  34.4450000   2.9680000  12.8430000
  34.5760000   2.8000000  21.3090000  31.4280000   1.1260000  23.0670000
  33.0460000   2.7850000  23.4700000  32.8980000   2.4270000  10.6930000
  31.0800000   1.1050000  24.4060000  31.0000000   0.5270000  22.4990000
  32.7230000   2.7220000  24.8410000  33.7340000   3.3330000  23.1660000
  34.0660000   1.7140000  10.0520000  33.0080000   3.3900000  10.6520000
  32.0620000   2.1840000  10.2650000  31.7480000   1.9000000  25.2930000
  30.3850000   0.5740000  24.7210000  33.1670000   3.2950000  25.4240000
  34.2850000   2.2240000   8.5970000  33.9280000   0.7570000   9.9700000
  34.9020000   1.8740000  10.5180000  31.5420000   1.8770000  26.2000000
  35.4870000   1.6350000   7.9090000  33.4640000   2.0310000   8.1180000
  34.3940000   3.1840000   8.6770000  35.6670000   2.1710000   6.4620000
  35.3700000   0.6760000   7.8160000  36.3050000   1.8140000   8.3990000
  36.8990000   1.6410000   5.7520000  34.8440000   1.9890000   5.9820000
  35.7730000   3.1300000   6.5660000  37.0200000   2.2150000   4.3260000
  36.7780000   0.6850000   5.6470000  37.7120000   1.8110000   6.2540000
  36.2020000   2.0500000   3.8330000  37.1450000   3.1710000   4.4370000
  38.1760000   1.6130000   3.5740000  38.3290000   2.2100000   2.1590000
  38.0920000   0.6500000   3.4890000  39.0150000   1.8230000   4.0110000
  37.5140000   1.9520000   1.6990000  39.5080000   1.6910000   1.4010000
  38.3620000   3.1760000   2.2410000  39.4710000   0.7310000   1.3300000
  39.5140000   2.0730000   0.5220000  40.3090000   1.9420000   1.8670000
  28.1500000   1.1150000  70.5530000  29.3150000   1.6960000  69.4080000
  29.2090000   1.6300000  71.8510000  29.3270000   1.6910000  67.9450000
  30.4470000   2.1630000  69.9640000  28.8880000   1.5580000  73.2240000
  30.4140000   2.1350000  71.4130000  28.3650000   1.2710000  67.0170000
  30.4970000   2.2610000  67.5040000  31.5960000   2.7650000  68.8040000
  29.8340000   1.9630000  74.1540000  28.0700000   1.2110000  73.4970000
  31.3520000   2.5950000  72.3640000  28.6440000   1.4650000  65.6600000
  27.5630000   0.9010000  67.3120000  30.7620000   2.5260000  66.1410000
  31.0460000   2.5170000  73.7250000  29.5130000   1.9550000  75.6180000
  32.1490000   2.9790000  72.0780000  29.8140000   2.1200000  65.2290000
  28.0560000   1.1000000  65.0390000  31.5400000   2.9680000  65.8880000
  31.6710000   2.8000000  74.3540000  28.5230000   1.1260000  76.1120000
  30.1400000   2.7850000  76.5140000  29.9930000   2.4270000  63.7370000
  28.1750000   1.1050000  77.4510000  28.0950000   0.5270000  75.5430000
  29.8180000   2.7220000  77.8860000  30.8280000   3.3330000  76.2100000
  31.1610000   1.7140000  63.0970000  30.1020000   3.3900000  63.6970000
  29.1570000   2.1840000  63.3090000  28.8430000   1.9000000  78.3380000
  27.4790000   0.5740000  77.7650000  30.2610000   3.2950000  78.4690000
  31.3800000   2.2240000  61.6410000  31.0230000   0.7570000  63.0140000
  31.9960000   1.8740000  63.5630000  28.6370000   1.8770000  79.2440000
  32.5820000   1.6350000  60.9530000  30.5590000   2.0310000  61.1620000
  31.4890000   3.1840000  61.7220000  32.7620000   2.1710000  59.5060000
  32.4650000   0.6760000  60.8610000  33.4000000   1.8140000  61.4440000
  33.9940000   1.6410000  58.7970000  31.9390000   1.9890000  59.0270000
  32.8670000   3.1300000  59.6100000  34.1150000   2.2150000  57.3710000
  33.8720000   0.6850000  58.6910000  34.8070000   1.8110000  59.2980000
  33.2970000   2.0500000  56.8770000  34.2400000   3.1710000  57.4820000
  35.2700000   1.6130000  56.6190000  35.4240000   2.2100000  55.2040000
  35.1870000   0.6500000  56.5340000  36.1100000   1.8230000  57.0560000
  34.6090000   1.9520000  54.7440000  36.6020000   1.6910000  54.4460000
  35.4560000   3.1760000  55.2860000  36.5660000   0.7310000  54.3750000
  36.6090000   2.0730000  53.5670000  37.4040000   1.9420000  54.9120000
  31.0560000  24.3860000  17.5080000  32.2200000  24.9660000  16.3640000
  32.1140000  24.9000000  18.8070000  32.2330000  24.9610000  14.9000000
  33.3530000  25.4340000  16.9190000  31.7930000  24.8290000  20.1790000
  33.3200000  25.4060000  18.3690000  31.2700000  24.5410000  13.9730000
  33.4020000  25.5320000  14.4590000  34.5010000  26.0350000  15.7600000
  32.7400000  25.2340000  21.1090000  30.9750000  24.4810000  20.4530000
  34.2570000  25.8660000  19.3200000  31.5490000  24.7360000  12.6150000
  30.4690000  24.1720000  14.2670000  33.6670000  25.7970000  13.0960000
  33.9510000  25.7870000  20.6800000  32.4180000  25.2260000  22.5740000
  35.0540000  26.2490000  19.0330000  32.7190000  25.3900000  12.1840000
  30.9610000  24.3700000  11.9940000  34.4450000  26.2380000  12.8430000
  34.5760000  26.0710000  21.3090000  31.4280000  24.3960000  23.0670000
  33.0460000  26.0560000  23.4700000  32.8980000  25.6980000  10.6930000
  31.0800000  24.3760000  24.4060000  31.0000000  23.7970000  22.4990000
  32.7230000  25.9920000  24.8410000  33.7340000  26.6040000  23.1660000
  34.0660000  24.9850000  10.0520000  33.0080000  26.6610000  10.6520000
  32.0620000  25.4540000  10.2650000  31.7480000  25.1710000  25.2930000
  30.3850000  23.8440000  24.7210000  33.1670000  26.5660000  25.4240000
  34.2850000  25.4940000   8.5970000  33.9280000  24.0280000   9.9700000
  34.9020000  25.1450000  10.5180000  31.5420000  25.1470000  26.2000000
  35.4870000  24.9060000   7.9090000  33.4640000  25.3020000   8.1180000
  34.3940000  26.4550000   8.6770000  35.6670000  25.4420000   6.4620000
  35.3700000  23.9470000   7.8160000  36.3050000  25.0840000   8.3990000
  36.8990000  24.9120000   5.7520000  34.8440000  25.2600000   5.9820000
  35.7730000  26.4000000   6.5660000  37.0200000  25.4860000   4.3260000
  36.7780000  23.9550000   5.6470000  37.7120000  25.0810000   6.2540000
  36.2020000  25.3210000   3.8330000  37.1450000  26.4410000   4.4370000
  38.1760000  24.8830000   3.5740000  38.3290000  25.4800000   2.1590000
  38.0920000  23.9200000   3.4890000  39.0150000  25.0940000   4.0110000
  37.5140000  25.2230000   1.6990000  39.5080000  24.9610000   1.4010000
  38.3620000  26.4460000   2.2410000  39.4710000  24.0010000   1.3300000
  39.5140000  25.3440000   0.5220000  40.3090000  25.2120000   1.8670000
  28.1500000  24.3860000  70.5530000  29.3150000  24.9660000  69.4080000
  29.2090000  24.9000000  71.8510000  29.3270000  24.9610000  67.9450000
  30.4470000  25.4340000  69.9640000  28.8880000  24.8290000  73.2240000
  30.4140000  25.4060000  71.4130000  28.3650000  24.5410000  67.0170000
  30.4970000  25.5320000  67.5040000  31.5960000  26.0350000  68.8040000
  29.8340000  25.2340000  74.1540000  28.0700000  24.4810000  73.4970000
  31.3520000  25.8660000  72.3640000  28.6440000  24.7360000  65.6600000
  27.5630000  24.1720000  67.3120000  30.7620000  25.7970000  66.1410000
  31.0460000  25.7870000  73.7250000  29.5130000  25.2260000  75.6180000
  32.1490000  26.2490000  72.0780000  29.8140000  25.3900000  65.2290000
  28.0560000  24.3700000  65.0390000  31.5400000  26.2380000  65.8880000
  31.6710000  26.0710000  74.3540000  28.5230000  24.3960000  76.1120000
  30.1400000  26.0560000  76.5140000  29.9930000  25.6980000  63.7370000
  28.1750000  24.3760000  77.4510000  28.0950000  23.7970000  75.5430000
  29.8180000  25.9920000  77.8860000  30.8280000  26.6040000  76.2100000
  31.1610000  24.9850000  63.0970000  30.1020000  26.6610000  63.6970000
  29.1570000  25.4540000  63.3090000  28.8430000  25.1710000  78.3380000
  27.4790000  23.8440000  77.7650000  30.2610000  26.5660000  78.4690000
  31.3800000  25.4940000  61.6410000  31.0230000  24.0280000  63.0140000
  31.9960000  25.1450000  63.5630000  28.6370000  25.1470000  79.2440000
  32.5820000  24.9060000  60.9530000  30.5590000  25.3020000  61.1620000
  31.4890000  26.4550000  61.7220000  32.7620000  25.4420000  59.5060000
  32.4650000  23.9470000  60.8610000  33.4000000  25.0840000  61.4440000
  33.9940000  24.9120000  58.7970000  31.9390000  25.2600000  59.0270000
  32.8670000  26.4000000  59.6100000  34.1150000  25.4860000  57.3710000
  33.8720000  23.9550000  58.6910000  34.8070000  25.0810000  59.2980000
  33.2970000  25.3210000  56.8770000  34.2400000  26.4410000  57.4820000
  35.2700000  24.8830000  56.6190000  35.4240000  25.4800000  55.2040000
  35.1870000  23.9200000  56.5340000  36.1100000  25.0940000  57.0560000
  34.6090000  25.2230000  54.7440000  36.6020000  24.9610000  54.4460000
  35.4560000  26.4460000  55.2860000  36.5660000  24.0010000  54.3750000
  36.6090000  25.3440000  53.5670000  37.4040000  25.2120000  54.9120000
  31.0560000  32.1430000  17.5080000  32.2200000  32.7230000  16.3640000
  32.1140000  32.6570000  18.8070000  32.2330000  32.7180000  14.9000000
  33.3530000  33.1910000  16.9190000  31.7930000  32.5860000  20.1790000
  33.3200000  33.1630000  18.3690000  31.2700000  32.2980000  13.9730000
  33.4020000  33.2880000  14.4590000  34.5010000  33.7920000  15.7600000
  32.7400000  32.9900000  21.1090000  30.9750000  32.2380000  20.4530000
  34.2570000  33.6230000  19.3200000  31.5490000  32.4920000  12.6150000
  30.4690000  31.9280000  14.2670000  33.6670000  33.5540000  13.0960000
  33.9510000  33.5440000  20.6800000  32.4180000  32.9830000  22.5740000
  35.0540000  34.0060000  19.0330000  32.7190000  33.1470000  12.1840000
  30.9610000  32.1270000  11.9940000  34.4450000  33.9950000  12.8430000
  34.5760000  33.8270000  21.3090000  31.4280000  32.1530000  23.0670000
  33.0460000  33.8130000  23.4700000  32.8980000  33.4540000  10.6930000
  31.0800000  32.1330000  24.4060000  31.0000000  31.5540000  22.4990000
  32.7230000  33.7490000  24.8410000  33.7340000  34.3600000  23.1660000
  34.0660000  32.7410000  10.0520000  33.0080000  34.4170000  10.6520000
  32.0620000  33.2110000  10.2650000  31.7480000  32.9280000  25.2930000
  30.3850000  31.6010000  24.7210000  33.1670000  34.3230000  25.4240000
  34.2850000  33.2510000   8.5970000  33.9280000  31.7850000   9.9700000
  34.9020000  32.9020000  10.5180000  31.5420000  32.9040000  26.2000000
  35.4870000  32.6620000   7.9090000  33.4640000  33.0580000   8.1180000
  34.3940000  34.2110000   8.6770000  35.6670000  33.1980000   6.4620000
  35.3700000  31.7040000   7.8160000  36.3050000  32.8410000   8.3990000
  36.8990000  32.6690000   5.7520000  34.8440000  33.0170000   5.9820000
  35.7730000  34.1570000   6.5660000  37.0200000  33.2430000   4.3260000
  36.7780000  31.7120000   5.6470000  37.7120000  32.8380000   6.2540000
  36.2020000  33.0770000   3.8330000  37.1450000  34.1980000   4.4370000
  38.1760000  32.6400000   3.5740000  38.3290000  33.2370000   2.1590000
  38.0920000  31.6770000   3.4890000  39.0150000  32.8510000   4.0110000
  37.5140000  32.9800000   1.6990000  39.5080000  32.7180000   1.4010000
  38.3620000  34.2030000   2.2410000  39.4710000  31.7580000   1.3300000
  39.5140000  33.1010000   0.5220000  40.3090000  32.9690000   1.8670000
  28.1500000  32.1430000  70.5530000  29.3150000  32.7230000  69.4080000
  29.2090000  32.6570000  71.8510000  29.3270000  32.7180000  67.9450000
  30.4470000  33.1910000  69.9640000  28.8880000  32.5860000  73.2240000
  30.4140000  33.1630000  71.4130000  28.3650000  32.2980000  67.0170000
  30.4970000  33.2880000  67.5040000  31.5960000  33.7920000  68.8040000
  29.8340000  32.9900000  74.1540000  28.0700000  32.2380000  73.4970000
  31.3520000  33.6230000  72.3640000  28.6440000  32.4920000  65.6600000
  27.5630000  31.9280000  67.3120000  30.7620000  33.5540000  66.1410000
  31.0460000  33.5440000  73.7250000  29.5130000  32.9830000  75.6180000
  32.1490000  34.0060000  72.0780000  29.8140000  33.1470000  65.2290000
  28.0560000  32.1270000  65.0390000  31.5400000  33.9950000  65.8880000
  31.6710000  33.8270000  74.3540000  28.5230000  32.1530000  76.1120000
  30.1400000  33.8130000  76.5140000  29.9930000  33.4540000  63.7370000
  28.1750000  32.1330000  77.4510000  28.0950000  31.5540000  75.5430000
  29.8180000  33.7490000  77.8860000  30.8280000  34.3600000  76.2100000
  31.1610000  32.7410000  63.0970000  30.1020000  34.4170000  63.6970000
  29.1570000  33.2110000  63.3090000  28.8430000  32.9280000  78.3380000
  27.4790000  31.6010000  77.7650000  30.2610000  34.3230000  78.4690000
  31.3800000  33.2510000  61.6410000  31.0230000  31.7850000  63.0140000
  31.9960000  32.9020000  63.5630000  28.6370000  32.9040000  79.2440000
  32.5820000  32.6620000  60.9530000  30.5590000  33.0580000  61.1620000
  31.4890000  34.2110000  61.7220000  32.7620000  33.1980000  59.5060000
  32.4650000  31.7040000  60.8610000  33.4000000  32.8410000  61.4440000
  33.9940000  32.6690000  58.7970000  31.9390000  33.0170000  59.0270000
  32.8670000  34.1570000  59.6100000  34.1150000  33.2430000  57.3710000
  33.8720000  31.7120000  58.6910000  34.8070000  32.8380000  59.2980000
  33.2970000  33.0770000  56.8770000  34.2400000  34.1980000  57.4820000
  35.2700000  32.6400000  56.6190000  35.4240000  33.2370000  55.2040000
  35.1870000  31.6770000  56.5340000  36.1100000  32.8510000  57.0560000
  34.6090000  32.9800000  54.7440000  36.6020000  32.7180000  54.4460000
  35.4560000  34.2030000  55.2860000  36.5660000  31.7580000  54.3750000
  36.6090000  33.1010000  53.5670000  37.4040000  32.9690000  54.9120000
  31.0560000  39.8990000  17.5080000  32.2200000  40.4800000  16.3640000
  32.1140000  40.4140000  18.8070000  32.2330000  40.4750000  14.9000000
  33.3530000  40.9470000  16.9190000  31.7930000  40.3420000  20.1790000
  33.3200000  40.9190000  18.3690000  31.2700000  40.0550000  13.9730000
  33.4020000  41.0450000  14.4590000  34.5010000  41.5490000  15.7600000
  32.7400000  40.7470000  21.1090000  30.9750000  39.9950000  20.4530000
  34.2570000  41.3790000  19.3200000  31.5490000  40.2490000  12.6150000
  30.4690000  39.6850000  14.2670000  33.6670000  41.3100000  13.0960000
  33.9510000  41.3010000  20.6800000  32.4180000  40.7390000  22.5740000
  35.0540000  41.7630000  19.0330000  32.7190000  40.9040000  12.1840000
  30.9610000  39.8840000  11.9940000  34.4450000  41.7520000  12.8430000
  34.5760000  41.5840000  21.3090000  31.4280000  39.9100000  23.0670000
  33.0460000  41.5690000  23.4700000  32.8980000  41.2110000  10.6930000
  31.0800000  39.8890000  24.4060000  31.0000000  39.3110000  22.4990000
  32.7230000  41.5060000  24.8410000  33.7340000  42.1170000  23.1660000
  34.0660000  40.4980000  10.0520000  33.0080000  42.1740000  10.6520000
  32.0620000  40.9680000  10.2650000  31.7480000  40.6840000  25.2930000
  30.3850000  39.3580000  24.7210000  33.1670000  42.0790000  25.4240000
  34.2850000  41.0080000   8.5970000  33.9280000  39.5410000   9.9700000
  34.9020000  40.6580000  10.5180000  31.5420000  40.6610000  26.2000000
  35.4870000  40.4190000   7.9090000  33.4640000  40.8150000   8.1180000
  34.3940000  41.9680000   8.6770000  35.6670000  40.9550000   6.4620000
  35.3700000  39.4600000   7.8160000  36.3050000  40.5980000   8.3990000
  36.8990000  40.4250000   5.7520000  34.8440000  40.7730000   5.9820000
  35.7730000  41.9140000   6.5660000  37.0200000  40.9990000   4.3260000
  36.7780000  39.4690000   5.6470000  37.7120000  40.5950000   6.2540000
  36.2020000  40.8340000   3.8330000  37.1450000  41.9550000   4.4370000
  38.1760000  40.3970000   3.5740000  38.3290000  40.9940000   2.1590000
  38.0920000  39.4340000   3.4890000  39.0150000  40.6070000   4.0110000
  37.5140000  40.7360000   1.6990000  39.5080000  40.4750000   1.4010000
  38.3620000  41.9600000   2.2410000  39.4710000  39.5150000   1.3300000
  39.5140000  40.8570000   0.5220000  40.3090000  40.7260000   1.8670000
  28.1500000  39.8990000  70.5530000  29.3150000  40.4800000  69.4080000
  29.2090000  40.4140000  71.8510000  29.3270000  40.4750000  67.9450000
  30.4470000  40.9470000  69.9640000  28.8880000  40.3420000  73.2240000
  30.4140000  40.9190000  71.4130000  28.3650000  40.0550000  67.0170000
  30.4970000  41.0450000  67.5040000  31.5960000  41.5490000  68.8040000
  29.8340000  40.7470000  74.1540000  28.0700000  39.9950000  73.4970000
  31.3520000  41.3790000  72.3640000  28.6440000  40.2490000  65.6600000
  27.5630000  39.6850000  67.3120000  30.7620000  41.3100000  66.1410000
  31.0460000  41.3010000  73.7250000  29.5130000  40.7390000  75.6180000
  32.1490000  41.7630000  72.0780000  29.8140000  40.9040000  65.2290000
  28.0560000  39.8840000  65.0390000  31.5400000  41.7520000  65.8880000
  31.6710000  41.5840000  74.3540000  28.5230000  39.9100000  76.1120000
  30.1400000  41.5690000  76.5140000  29.9930000  41.2110000  63.7370000
  28.1750000  39.8890000  77.4510000  28.0950000  39.3110000  75.5430000
  29.8180000  41.5060000  77.8860000  30.8280000  42.1170000  76.2100000
  31.1610000  40.4980000  63.0970000  30.1020000  42.1740000  63.6970000
  29.1570000  40.9680000  63.3090000  28.8430000  40.6840000  78.3380000
  27.4790000  39.3580000  77.7650000  30.2610000  42.0790000  78.4690000
  31.3800000  41.0080000  61.6410000  31.0230000  39.5410000  63.0140000
  31.9960000  40.6580000  63.5630000  28.6370000  40.6610000  79.2440000
  32.5820000  40.4190000  60.9530000  30.5590000  40.8150000  61.1620000
  31.4890000  41.9680000  61.7220000  32.7620000  40.9550000  59.5060000
  32.4650000  39.4600000  60.8610000  33.4000000  40.5980000  61.4440000
  33.9940000  40.4250000  58.7970000  31.9390000  40.7730000  59.0270000
  32.8670000  41.9140000  59.6100000  34.1150000  40.9990000  57.3710000
  33.8720000  39.4690000  58.6910000  34.8070000  40.5950000  59.2980000
  33.2970000  40.8340000  56.8770000  34.2400000  41.9550000  57.4820000
  35.2700000  40.3970000  56.6190000  35.4240000  40.9940000  55.2040000
  35.1870000  39.4340000  56.5340000  36.1100000  40.6070000  57.0560000
  34.6090000  40.7360000  54.7440000  36.6020000  40.4750000  54.4460000
  35.4560000  41.9600000  55.2860000  36.5660000  39.5150000  54.3750000
  36.6090000  40.8570000  53.5670000  37.4040000  40.7260000  54.9120000
  -0.5840000   4.9940000  88.5810000  -1.7480000   5.5740000  89.7250000
  -1.6420000   5.5080000  87.2820000  -1.7600000   5.5690000  91.1890000
  -2.8800000   6.0420000  89.1700000  -1.3210000   5.4370000  85.9100000
  -2.8480000   6.0140000  87.7200000  -0.7980000   5.1490000  92.1160000
  -2.9300000   6.1400000  91.6300000  -4.0290000   6.6430000  90.3290000
  -2.2680000   5.8420000  84.9800000  -0.5030000   5.0890000  85.6360000
  -3.7850000   6.4740000  86.7690000  -1.0770000   5.3440000  93.4740000
   0.0040000   4.7800000  91.8220000  -3.1950000   6.4050000  92.9930000
  -3.4790000   6.3950000  85.4090000  -1.9460000   5.8340000  83.5150000
  -4.5820000   6.8570000  87.0560000  -2.2470000   5.9980000  93.9050000
  -0.4890000   4.9780000  94.0950000  -3.9730000   6.8460000  93.2460000
  -4.1040000   6.6790000  84.7800000  -0.9560000   5.0040000  83.0220000
  -2.5740000   6.6640000  82.6190000  -2.4260000   6.3060000  95.3960000
  -0.6080000   4.9840000  81.6830000  -0.5280000   4.4050000  83.5900000
  -2.2510000   6.6000000  81.2480000  -3.2620000   7.2120000  82.9230000
  -3.5940000   5.5930000  96.0370000  -2.5360000   7.2690000  95.4370000
  -1.5900000   6.0620000  95.8240000  -1.2760000   5.7790000  80.7960000
   0.0880000   4.4520000  81.3680000  -2.6950000   7.1740000  80.6650000
  -3.8130000   6.1020000  97.4920000  -3.4560000   4.6360000  96.1190000
  -4.4300000   5.7530000  95.5710000  -1.0700000   5.7550000  79.8890000
  -5.0150000   5.5140000  98.1800000  -2.9920000   5.9100000  97.9710000
  -3.9220000   7.0630000  97.4120000  -5.1950000   6.0500000  99.6270000
  -4.8980000   4.5550000  98.2730000  -5.8330000   5.6920000  97.6900000
  -6.4270000   5.5200000 100.3370000  -4.3720000   5.8680000 100.1070000
  -5.3010000   7.0080000  99.5230000  -6.5480000   6.0940000 101.7630000
  -6.3060000   4.5630000 100.4420000  -7.2400000   5.6890000  99.8350000
  -5.7300000   5.9290000 102.2560000  -6.6730000   7.0490000 101.6520000
  -7.7030000   5.4910000 102.5150000  -7.8570000   6.0880000 103.9300000
  -7.6200000   4.5280000 102.6000000  -8.5430000   5.7020000 102.0780000
  -7.0420000   5.8310000 104.3900000  -9.0360000   5.5690000 104.6880000
  -7.8900000   7.0540000 103.8480000  -8.9990000   4.6090000 104.7590000
  -9.0420000   5.9520000 105.5670000  -9.8370000   5.8200000 104.2220000
  -0.5840000  12.7510000  88.5810000  -1.7480000  13.3310000  89.7250000
  -1.6420000  13.2650000  87.2820000  -1.7600000  13.3260000  91.1890000
  -2.8800000  13.7990000  89.1700000  -1.3210000  13.1940000  85.9100000
  -2.8480000  13.7710000  87.7200000  -0.7980000  12.9060000  92.1160000
  -2.9300000  13.8960000  91.6300000  -4.0290000  14.4000000  90.3290000
  -2.2680000  13.5980000  84.9800000  -0.5030000  12.8460000  85.6360000
  -3.7850000  14.2310000  86.7690000  -1.0770000  13.1000000  93.4740000
   0.0040000  12.5360000  91.8220000  -3.1950000  14.1620000  92.9930000
  -3.4790000  14.1520000  85.4090000  -1.9460000  13.5910000  83.5150000
  -4.5820000  14.6140000  87.0560000  -2.2470000  13.7550000  93.9050000
  -0.4890000  12.7350000  94.0950000  -3.9730000  14.6030000  93.2460000
  -4.1040000  14.4350000  84.7800000  -0.9560000  12.7610000  83.0220000
  -2.5740000  14.4210000  82.6190000  -2.4260000  14.0620000  95.3960000
  -0.6080000  12.7410000  81.6830000  -0.5280000  12.1620000  83.5900000
  -2.2510000  14.3570000  81.2480000  -3.2620000  14.9680000  82.9230000
  -3.5940000  13.3490000  96.0370000  -2.5360000  15.0250000  95.4370000
  -1.5900000  13.8190000  95.8240000  -1.2760000  13.5360000  80.7960000
   0.0880000  12.2090000  81.3680000  -2.6950000  14.9310000  80.6650000
  -3.8130000  13.8590000  97.4920000  -3.4560000  12.3930000  96.1190000
  -4.4300000  13.5100000  95.5710000  -1.0700000  13.5120000  79.8890000
  -5.0150000  13.2700000  98.1800000  -2.9920000  13.6660000  97.9710000
  -3.9220000  14.8190000  97.4120000  -5.1950000  13.8060000  99.6270000
  -4.8980000  12.3120000  98.2730000  -5.8330000  13.4490000  97.6900000
  -6.4270000  13.2770000 100.3370000  -4.3720000  13.6250000 100.1070000
  -5.3010000  14.7650000  99.5230000  -6.5480000  13.8510000 101.7630000
  -6.3060000  12.3200000 100.4420000  -7.2400000  13.4460000  99.8350000
  -5.7300000  13.6850000 102.2560000  -6.6730000  14.8060000 101.6520000
  -7.7030000  13.2480000 102.5150000  -7.8570000  13.8450000 103.9300000
  -7.6200000  12.2850000 102.6000000  -8.5430000  13.4590000 102.0780000
  -7.0420000  13.5880000 104.3900000  -9.0360000  13.3260000 104.6880000
  -7.8900000  14.8110000 103.8480000  -8.9990000  12.3660000 104.7590000
  -9.0420000  13.7090000 105.5670000  -9.8370000  13.5770000 104.2220000
  -0.5840000  20.5070000  88.5810000  -1.7480000  21.0880000  89.7250000
  -1.6420000  21.0220000  87.2820000  -1.7600000  21.0830000  91.1890000
  -2.8800000  21.5550000  89.1700000  -1.3210000  20.9500000  85.9100000
  -2.8480000  21.5270000  87.7200000  -0.7980000  20.6630000  92.1160000
  -2.9300000  21.6530000  91.6300000  -4.0290000  22.1570000  90.3290000
  -2.2680000  21.3550000  84.9800000  -0.5030000  20.6030000  85.6360000
  -3.7850000  21.9870000  86.7690000  -1.0770000  20.8570000  93.4740000
   0.0040000  20.2930000  91.8220000  -3.1950000  21.9180000  92.9930000
  -3.4790000  21.9090000  85.4090000  -1.9460000  21.3470000  83.5150000
  -4.5820000  22.3710000  87.0560000  -2.2470000  21.5120000  93.9050000
  -0.4890000  20.4920000  94.0950000  -3.9730000  22.3600000  93.2460000
  -4.1040000  22.1920000  84.7800000  -0.9560000  20.5180000  83.0220000
  -2.5740000  22.1770000  82.6190000  -2.4260000  21.8190000  95.3960000
  -0.6080000  20.4970000  81.6830000  -0.5280000  19.9190000  83.5900000
  -2.2510000  22.1140000  81.2480000  -3.2620000  22.7250000  82.9230000
  -3.5940000  21.1060000  96.0370000  -2.5360000  22.7820000  95.4370000
  -1.5900000  21.5760000  95.8240000  -1.2760000  21.2920000  80.7960000
   0.0880000  19.9660000  81.3680000  -2.6950000  22.6870000  80.6650000
  -3.8130000  21.6160000  97.4920000  -3.4560000  20.1490000  96.1190000
  -4.4300000  21.2660000  95.5710000  -1.0700000  21.2690000  79.8890000
  -5.0150000  21.0270000  98.1800000  -2.9920000  21.4230000  97.9710000
  -3.9220000  22.5760000  97.4120000  -5.1950000  21.5630000  99.6270000
  -4.8980000  20.0680000  98.2730000  -5.8330000  21.2060000  97.6900000
  -6.4270000  21.0330000 100.3370000  -4.3720000  21.3810000 100.1070000
  -5.3010000  22.5220000  99.5230000  -6.5480000  21.6070000 101.7630000
  -6.3060000  20.0770000 100.4420000  -7.2400000  21.2030000  99.8350000
  -5.7300000  21.4420000 102.2560000  -6.6730000  22.5630000 101.6520000
  -7.7030000  21.0050000 102.5150000  -7.8570000  21.6020000 103.9300000
  -7.6200000  20.0420000 102.6000000  -8.5430000  21.2150000 102.0780000
  -7.0420000  21.3440000 104.3900000  -9.0360000  21.0830000 104.6880000
  -7.8900000  22.5680000 103.8480000  -8.9990000  20.1230000 104.7590000
  -9.0420000  21.4650000 105.5670000  -9.8370000  21.3340000 104.2220000
  -0.5840000  28.2640000  88.5810000  -1.7480000  28.8440000  89.7250000
  -1.6420000  28.7790000  87.2820000  -1.7600000  28.8400000  91.1890000
  -2.8800000  29.3120000  89.1700000  -1.3210000  28.7070000  85.9100000
  -2.8480000  29.2840000  87.7200000  -0.7980000  28.4190000  92.1160000
  -2.9300000  29.4100000  91.6300000  -4.0290000  29.9130000  90.3290000
  -2.2680000  29.1120000  84.9800000  -0.5030000  28.3600000  85.6360000
  -3.7850000  29.7440000  86.7690000  -1.0770000  28.6140000  93.4740000
   0.0040000  28.0500000  91.8220000  -3.1950000  29.6750000  92.9930000
  -3.4790000  29.6660000  85.4090000  -1.9460000  29.1040000  83.5150000
  -4.5820000  30.1280000  87.0560000  -2.2470000  29.2690000  93.9050000
  -0.4890000  28.2480000  94.0950000  -3.9730000  30.1160000  93.2460000
  -4.1040000  29.9490000  84.7800000  -0.9560000  28.2740000  83.0220000
  -2.5740000  29.9340000  82.6190000  -2.4260000  29.5760000  95.3960000
  -0.6080000  28.2540000  81.6830000  -0.5280000  27.6760000  83.5900000
  -2.2510000  29.8710000  81.2480000  -3.2620000  30.4820000  82.9230000
  -3.5940000  28.8630000  96.0370000  -2.5360000  30.5390000  95.4370000
  -1.5900000  29.3320000  95.8240000  -1.2760000  29.0490000  80.7960000
   0.0880000  27.7230000  81.3680000  -2.6950000  30.4440000  80.6650000
  -3.8130000  29.3730000  97.4920000  -3.4560000  27.9060000  96.1190000
  -4.4300000  29.0230000  95.5710000  -1.0700000  29.0260000  79.8890000
  -5.0150000  28.7840000  98.1800000  -2.9920000  29.1800000  97.9710000
  -3.9220000  30.3330000  97.4120000  -5.1950000  29.3200000  99.6270000
  -4.8980000  27.8250000  98.2730000  -5.8330000  28.9620000  97.6900000
  -6.4270000  28.7900000 100.3370000  -4.3720000  29.1380000 100.1070000
  -5.3010000  30.2780000  99.5230000  -6.5480000  29.3640000 101.7630000
  -6.3060000  27.8340000 100.4420000  -7.2400000  28.9600000  99.8350000
  -5.7300000  29.1990000 102.2560000  -6.6730000  30.3190000 101.6520000
  -7.7030000  28.7610000 102.5150000  -7.8570000  29.3590000 103.9300000
  -7.6200000  27.7980000 102.6000000  -8.5430000  28.9720000 102.0780000
  -7.0420000  29.1010000 104.3900000  -9.0360000  28.8400000 104.6880000
  -7.8900000  30.3250000 103.8480000  -8.9990000  27.8800000 104.7590000
  -9.0420000  29.2220000 105.5670000  -9.8370000  29.0900000 104.2220000
  -0.5840000  36.0210000  88.5810000  -1.7480000  36.6010000  89.7250000
  -1.6420000  36.5350000  87.2820000  -1.7600000  36.5970000  91.1890000
  -2.8800000  37.0690000  89.1700000  -1.3210000  36.4640000  85.9100000
  -2.8480000  37.0410000  87.7200000  -0.7980000  36.1760000  92.1160000
  -2.9300000  37.1670000  91.6300000  -4.0290000  37.6700000  90.3290000
  -2.2680000  36.8690000  84.9800000  -0.5030000  36.1170000  85.6360000
  -3.7850000  37.5010000  86.7690000  -1.0770000  36.3710000  93.4740000
   0.0040000  35.8070000  91.8220000  -3.1950000  37.4320000  92.9930000
  -3.4790000  37.4230000  85.4090000  -1.9460000  36.8610000  83.5150000
  -4.5820000  37.8850000  87.0560000  -2.2470000  37.0260000  93.9050000
  -0.4890000  36.0050000  94.0950000  -3.9730000  37.8730000  93.2460000
  -4.1040000  37.7060000  84.7800000  -0.9560000  36.0310000  83.0220000
  -2.5740000  37.6910000  82.6190000  -2.4260000  37.3330000  95.3960000
  -0.6080000  36.0110000  81.6830000  -0.5280000  35.4320000  83.5900000
  -2.2510000  37.6270000  81.2480000  -3.2620000  38.2390000  82.9230000
  -3.5940000  36.6200000  96.0370000  -2.5360000  38.2960000  95.4370000
  -1.5900000  37.0890000  95.8240000  -1.2760000  36.8060000  80.7960000
   0.0880000  35.4790000  81.3680000  -2.6950000  38.2010000  80.6650000
  -3.8130000  37.1290000  97.4920000  -3.4560000  35.6630000  96.1190000
  -4.4300000  36.7800000  95.5710000  -1.0700000  36.7830000  79.8890000
  -5.0150000  36.5410000  98.1800000  -2.9920000  36.9370000  97.9710000
  -3.9220000  38.0900000  97.4120000  -5.1950000  37.0770000  99.6270000
  -4.8980000  35.5820000  98.2730000  -5.8330000  36.7190000  97.6900000
  -6.4270000  36.5470000 100.3370000  -4.3720000  36.8950000 100.1070000
  -5.3010000  38.0350000  99.5230000  -6.5480000  37.1210000 101.7630000
  -6.3060000  35.5900000 100.4420000  -7.2400000  36.7170000  99.8350000
  -5.7300000  36.9560000 102.2560000  -6.6730000  38.0760000 101.6520000
  -7.7030000  36.5180000 102.5150000  -7.8570000  37.1160000 103.9300000
  -7.6200000  35.5550000 102.6000000  -8.5430000  36.7290000 102.0780000
  -7.0420000  36.8580000 104.3900000  -9.0360000  36.5970000 104.6880000
  -7.8900000  38.0810000 103.8480000  -8.9990000  35.6370000 104.7590000
  -9.0420000  36.9790000 105.5670000  -9.8370000  36.8470000 104.2220000
  -0.5840000  43.7780000  88.5810000  -1.7480000  44.3580000  89.7250000
  -1.6420000  44.2920000  87.2820000  -1.7600000  44.3530000  91.1890000
  -2.8800000  44.8260000  89.1700000  -1.3210000  44.2210000  85.9100000
  -2.8480000  44.7980000  87.7200000  -0.7980000  43.9330000  92.1160000
  -2.9300000  44.9240000  91.6300000  -4.0290000  45.4270000  90.3290000
  -2.2680000  44.6260000  84.9800000  -0.5030000  43.8730000  85.6360000
  -3.7850000  45.2580000  86.7690000  -1.0770000  44.1280000  93.4740000
   0.0040000  43.5640000  91.8220000  -3.1950000  45.1890000  92.9930000
  -3.4790000  45.1790000  85.4090000  -1.9460000  44.6180000  83.5150000
  -4.5820000  45.6410000  87.0560000  -2.2470000  44.7820000  93.9050000
  -0.4890000  43.7620000  94.0950000  -3.9730000  45.6300000  93.2460000
  -4.1040000  45.4630000  84.7800000  -0.9560000  43.7880000  83.0220000
  -2.5740000  45.4480000  82.6190000  -2.4260000  45.0900000  95.3960000
  -0.6080000  43.7680000  81.6830000  -0.5280000  43.1890000  83.5900000
  -2.2510000  45.3840000  81.2480000  -3.2620000  45.9960000  82.9230000
  -3.5940000  44.3770000  96.0370000  -2.5360000  46.0530000  95.4370000
  -1.5900000  44.8460000  95.8240000  -1.2760000  44.5630000  80.7960000
   0.0880000  43.2360000  81.3680000  -2.6950000  45.9580000  80.6650000
  -3.8130000  44.8860000  97.4920000  -3.4560000  43.4200000  96.1190000
  -4.4300000  44.5370000  95.5710000  -1.0700000  44.5390000  79.8890000
  -5.0150000  44.2980000  98.1800000  -2.9920000  44.6940000  97.9710000
  -3.9220000  45.8470000  97.4120000  -5.1950000  44.8340000  99.6270000
  -4.8980000  43.3390000  98.2730000  -5.8330000  44.4760000  97.6900000
  -6.4270000  44.3040000 100.3370000  -4.3720000  44.6520000 100.1070000
  -5.3010000  45.7920000  99.5230000  -6.5480000  44.8780000 101.7630000
  -6.3060000  43.3470000 100.4420000  -7.2400000  44.4730000  99.8350000
  -5.7300000  44.7130000 102.2560000  -6.6730000  45.8330000 101.6520000
  -7.7030000  44.2750000 102.5150000  -7.8570000  44.8720000 103.9300000
  -7.6200000  43.3120000 102.6000000  -8.5430000  44.4860000 102.0780000
  -7.0420000  44.6150000 104.3900000  -9.0360000  44.3530000 104.6880000
  -7.8900000  45.8380000 103.8480000  -8.9990000  43.3930000 104.7590000
  -9.0420000  44.7360000 105.5670000  -9.8370000  44.6040000 104.2220000
   2.3220000   4.9940000  35.5360000   1.1570000   5.5740000  36.6810000
   1.2630000   5.5080000  34.2380000   1.1450000   5.5690000  38.1440000
   0.0250000   6.0420000  36.1250000   1.5840000   5.4370000  32.8650000
   0.0580000   6.0140000  34.6760000   2.1080000   5.1490000  39.0720000
  -0.0250000   6.1400000  38.5850000  -1.1240000   6.6430000  37.2850000
   0.6380000   5.8420000  31.9350000   2.4020000   5.0890000  32.5920000
  -0.8800000   6.4740000  33.7250000   1.8280000   5.3440000  40.4290000
   2.9090000   4.7800000  38.7770000  -0.2900000   6.4050000  39.9480000
  -0.5740000   6.3950000  32.3640000   0.9590000   5.8340000  30.4710000
  -1.6770000   6.8570000  34.0110000   0.6580000   5.9980000  40.8600000
   2.4160000   4.9780000  41.0500000  -1.0680000   6.8460000  40.2010000
  -1.1990000   6.6790000  31.7350000   1.9500000   5.0040000  29.9770000
   0.3320000   6.6640000  29.5750000   0.4790000   6.3060000  42.3520000
   2.2970000   4.9840000  28.6380000   2.3770000   4.4050000  30.5460000
   0.6540000   6.6000000  28.2030000  -0.3560000   7.2120000  29.8790000
  -0.6890000   5.5930000  42.9920000   0.3700000   7.2690000  42.3920000
   1.3150000   6.0620000  42.7800000   1.6290000   5.7790000  27.7510000
   2.9930000   4.4520000  28.3240000   0.2110000   7.1740000  27.6200000
  -0.9080000   6.1020000  44.4480000  -0.5500000   4.6360000  43.0750000
  -1.5240000   5.7530000  42.5260000   1.8350000   5.7550000  26.8450000
  -2.1100000   5.5140000  45.1360000  -0.0870000   5.9100000  44.9270000
  -1.0170000   7.0630000  44.3670000  -2.2900000   6.0500000  46.5830000
  -1.9930000   4.5550000  45.2280000  -2.9280000   5.6920000  44.6450000
  -3.5220000   5.5200000  47.2920000  -1.4670000   5.8680000  47.0620000
  -2.3950000   7.0080000  46.4790000  -3.6430000   6.0940000  48.7180000
  -3.4000000   4.5630000  47.3980000  -4.3350000   5.6890000  46.7910000
  -2.8250000   5.9290000  49.2120000  -3.7670000   7.0490000  48.6070000
  -4.7980000   5.4910000  49.4700000  -4.9520000   6.0880000  50.8850000
  -4.7150000   4.5280000  49.5550000  -5.6380000   5.7020000  49.0330000
  -4.1370000   5.8310000  51.3450000  -6.1300000   5.5690000  51.6430000
  -4.9840000   7.0540000  50.8030000  -6.0940000   4.6090000  51.7140000
  -6.1370000   5.9520000  52.5220000  -6.9320000   5.8200000  51.1770000
   2.3220000  12.7510000  35.5360000   1.1570000  13.3310000  36.6810000
   1.2630000  13.2650000  34.2380000   1.1450000  13.3260000  38.1440000
   0.0250000  13.7990000  36.1250000   1.5840000  13.1940000  32.8650000
   0.0580000  13.7710000  34.6760000   2.1080000  12.9060000  39.0720000
  -0.0250000  13.8960000  38.5850000  -1.1240000  14.4000000  37.2850000
   0.6380000  13.5980000  31.9350000   2.4020000  12.8460000  32.5920000
  -0.8800000  14.2310000  33.7250000   1.8280000  13.1000000  40.4290000
   2.9090000  12.5360000  38.7770000  -0.2900000  14.1620000  39.9480000
  -0.5740000  14.1520000  32.3640000   0.9590000  13.5910000  30.4710000
  -1.6770000  14.6140000  34.0110000   0.6580000  13.7550000  40.8600000
   2.4160000  12.7350000  41.0500000  -1.0680000  14.6030000  40.2010000
  -1.1990000  14.4350000  31.7350000   1.9500000  12.7610000  29.9770000
   0.3320000  14.4210000  29.5750000   0.4790000  14.0620000  42.3520000
   2.2970000  12.7410000  28.6380000   2.3770000  12.1620000  30.5460000
   0.6540000  14.3570000  28.2030000  -0.3560000  14.9680000  29.8790000
  -0.6890000  13.3490000  42.9920000   0.3700000  15.0250000  42.3920000
   1.3150000  13.8190000  42.7800000   1.6290000  13.5360000  27.7510000
   2.9930000  12.2090000  28.3240000   0.2110000  14.9310000  27.6200000
  -0.9080000  13.8590000  44.4480000  -0.5500000  12.3930000  43.0750000
  -1.5240000  13.5100000  42.5260000   1.8350000  13.5120000  26.8450000
  -2.1100000  13.2700000  45.1360000  -0.0870000  13.6660000  44.9270000
  -1.0170000  14.8190000  44.3670000  -2.2900000  13.8060000  46.5830000
  -1.9930000  12.3120000  45.2280000  -2.9280000  13.4490000  44.6450000
  -3.5220000  13.2770000  47.2920000  -1.4670000  13.6250000  47.0620000
  -2.3950000  14.7650000  46.4790000  -3.6430000  13.8510000  48.7180000
  -3.4000000  12.3200000  47.3980000  -4.3350000  13.4460000  46.7910000
  -2.8250000  13.6850000  49.2120000  -3.7670000  14.8060000  48.6070000
  -4.7980000  13.2480000  49.4700000  -4.9520000  13.8450000  50.8850000
  -4.7150000  12.2850000  49.5550000  -5.6380000  13.4590000  49.0330000
  -4.1370000  13.5880000  51.3450000  -6.1300000  13.3260000  51.6430000
  -4.9840000  14.8110000  50.8030000  -6.0940000  12.3660000  51.7140000
  -6.1370000  13.7090000  52.5220000  -6.9320000  13.5770000  51.1770000
   2.3220000  20.5070000  35.5360000   1.1570000  21.0880000  36.6810000
   1.2630000  21.0220000  34.2380000   1.1450000  21.0830000  38.1440000
   0.0250000  21.5550000  36.1250000   1.5840000  20.9500000  32.8650000
   0.0580000  21.5270000  34.6760000   2.1080000  20.6630000  39.0720000
  -0.0250000  21.6530000  38.5850000  -1.1240000  22.1570000  37.2850000
   0.6380000  21.3550000  31.9350000   2.4020000  20.6030000  32.5920000
  -0.8800000  21.9870000  33.7250000   1.8280000  20.8570000  40.4290000
   2.9090000  20.2930000  38.7770000  -0.2900000  21.9180000  39.9480000
  -0.5740000  21.9090000  32.3640000   0.9590000  21.3470000  30.4710000
  -1.6770000  22.3710000  34.0110000   0.6580000  21.5120000  40.8600000
   2.4160000  20.4920000  41.0500000  -1.0680000  22.3600000  40.2010000
  -1.1990000  22.1920000  31.7350000   1.9500000  20.5180000  29.9770000
   0.3320000  22.1770000  29.5750000   0.4790000  21.8190000  42.3520000
   2.2970000  20.4970000  28.6380000   2.3770000  19.9190000  30.5460000
   0.6540000  22.1140000  28.2030000  -0.3560000  22.7250000  29.8790000
  -0.6890000  21.1060000  42.9920000   0.3700000  22.7820000  42.3920000
   1.3150000  21.5760000  42.7800000   1.6290000  21.2920000  27.7510000
   2.9930000  19.9660000  28.3240000   0.2110000  22.6870000  27.6200000
  -0.9080000  21.6160000  44.4480000  -0.5500000  20.1490000  43.0750000
  -1.5240000  21.2660000  42.5260000   1.8350000  21.2690000  26.8450000
  -2.1100000  21.0270000  45.1360000  -0.0870000  21.4230000  44.9270000
  -1.0170000  22.5760000  44.3670000  -2.2900000  21.5630000  46.5830000
  -1.9930000  20.0680000  45.2280000  -2.9280000  21.2060000  44.6450000
  -3.5220000  21.0330000  47.2920000  -1.4670000  21.3810000  47.0620000
  -2.3950000  22.5220000  46.4790000  -3.6430000  21.6070000  48.7180000
  -3.4000000  20.0770000  47.3980000  -4.3350000  21.2030000  46.7910000
  -2.8250000  21.4420000  49.2120000  -3.7670000  22.5630000  48.6070000
  -4.7980000  21.0050000  49.4700000  -4.9520000  21.6020000  50.8850000
  -4.7150000  20.0420000  49.5550000  -5.6380000  21.2150000  49.0330000
  -4.1370000  21.3440000  51.3450000  -6.1300000  21.0830000  51.6430000
  -4.9840000  22.5680000  50.8030000  -6.0940000  20.1230000  51.7140000
  -6.1370000  21.4650000  52.5220000  -6.9320000  21.3340000  51.1770000
   2.3220000  28.2640000  35.5360000   1.1570000  28.8440000  36.6810000
   1.2630000  28.7790000  34.2380000   1.1450000  28.8400000  38.1440000
   0.0250000  29.3120000  36.1250000   1.5840000  28.7070000  32.8650000
   0.0580000  29.2840000  34.6760000   2.1080000  28.4190000  39.0720000
  -0.0250000  29.4100000  38.5850000  -1.1240000  29.9130000  37.2850000
   0.6380000  29.1120000  31.9350000   2.4020000  28.3600000  32.5920000
  -0.8800000  29.7440000  33.7250000   1.8280000  28.6140000  40.4290000
   2.9090000  28.0500000  38.7770000  -0.2900000  29.6750000  39.9480000
  -0.5740000  29.6660000  32.3640000   0.9590000  29.1040000  30.4710000
  -1.6770000  30.1280000  34.0110000   0.6580000  29.2690000  40.8600000
   2.4160000  28.2480000  41.0500000  -1.0680000  30.1160000  40.2010000
  -1.1990000  29.9490000  31.7350000   1.9500000  28.2740000  29.9770000
   0.3320000  29.9340000  29.5750000   0.4790000  29.5760000  42.3520000
   2.2970000  28.2540000  28.6380000   2.3770000  27.6760000  30.5460000
   0.6540000  29.8710000  28.2030000  -0.3560000  30.4820000  29.8790000
  -0.6890000  28.8630000  42.9920000   0.3700000  30.5390000  42.3920000
   1.3150000  29.3320000  42.7800000   1.6290000  29.0490000  27.7510000
   2.9930000  27.7230000  28.3240000   0.2110000  30.4440000  27.6200000
  -0.9080000  29.3730000  44.4480000  -0.5500000  27.9060000  43.0750000
  -1.5240000  29.0230000  42.5260000   1.8350000  29.0260000  26.8450000
  -2.1100000  28.7840000  45.1360000  -0.0870000  29.1800000  44.9270000
  -1.0170000  30.3330000  44.3670000  -2.2900000  29.3200000  46.5830000
  -1.9930000  27.8250000  45.2280000  -2.9280000  28.9620000  44.6450000
  -3.5220000  28.7900000  47.2920000  -1.4670000  29.1380000  47.0620000
  -2.3950000  30.2780000  46.4790000  -3.6430000  29.3640000  48.7180000
  -3.4000000  27.8340000  47.3980000  -4.3350000  28.9600000  46.7910000
  -2.8250000  29.1990000  49.2120000  -3.7670000  30.3190000  48.6070000
  -4.7980000  28.7610000  49.4700000  -4.9520000  29.3590000  50.8850000
  -4.7150000  27.7980000  49.5550000  -5.6380000  28.9720000  49.0330000
  -4.1370000  29.1010000  51.3450000  -6.1300000  28.8400000  51.6430000
  -4.9840000  30.3250000  50.8030000  -6.0940000  27.8800000  51.7140000
  -6.1370000  29.2220000  52.5220000  -6.9320000  29.0900000  51.1770000
   2.3220000  36.0210000  35.5360000   1.1570000  36.6010000  36.6810000
   1.2630000  36.5350000  34.2380000   1.1450000  36.5970000  38.1440000
   0.0250000  37.0690000  36.1250000   1.5840000  36.4640000  32.8650000
   0.0580000  37.0410000  34.6760000   2.1080000  36.1760000  39.0720000
  -0.0250000  37.1670000  38.5850000  -1.1240000  37.6700000  37.2850000
   0.6380000  36.8690000  31.9350000   2.4020000  36.1170000  32.5920000
  -0.8800000  37.5010000  33.7250000   1.8280000  36.3710000  40.4290000
   2.9090000  35.8070000  38.7770000  -0.2900000  37.4320000  39.9480000
  -0.5740000  37.4230000  32.3640000   0.9590000  36.8610000  30.4710000
  -1.6770000  37.8850000  34.0110000   0.6580000  37.0260000  40.8600000
   2.4160000  36.0050000  41.0500000  -1.0680000  37.8730000  40.2010000
  -1.1990000  37.7060000  31.7350000   1.9500000  36.0310000  29.9770000
   0.3320000  37.6910000  29.5750000   0.4790000  37.3330000  42.3520000
   2.2970000  36.0110000  28.6380000   2.3770000  35.4320000  30.5460000
   0.6540000  37.6270000  28.2030000  -0.3560000  38.2390000  29.8790000
  -0.6890000  36.6200000  42.9920000   0.3700000  38.2960000  42.3920000
   1.3150000  37.0890000  42.7800000   1.6290000  36.8060000  27.7510000
   2.9930000  35.4790000  28.3240000   0.2110000  38.2010000  27.6200000
  -0.9080000  37.1290000  44.4480000  -0.5500000  35.6630000  43.0750000
  -1.5240000  36.7800000  42.5260000   1.8350000  36.7830000  26.8450000
  -2.1100000  36.5410000  45.1360000  -0.0870000  36.9370000  44.9270000
  -1.0170000  38.0900000  44.3670000  -2.2900000  37.0770000  46.5830000
  -1.9930000  35.5820000  45.2280000  -2.9280000  36.7190000  44.6450000
  -3.5220000  36.5470000  47.2920000  -1.4670000  36.8950000  47.0620000
  -2.3950000  38.0350000  46.4790000  -3.6430000  37.1210000  48.7180000
  -3.4000000  35.5900000  47.3980000  -4.3350000  36.7170000  46.7910000
  -2.8250000  36.9560000  49.2120000  -3.7670000  38.0760000  48.6070000
  -4.7980000  36.5180000  49.4700000  -4.9520000  37.1160000  50.8850000
  -4.7150000  35.5550000  49.5550000  -5.6380000  36.7290000  49.0330000
  -4.1370000  36.8580000  51.3450000  -6.1300000  36.5970000  51.6430000
  -4.9840000  38.0810000  50.8030000  -6.0940000  35.6370000  51.7140000
  -6.1370000  36.9790000  52.5220000  -6.9320000  36.8470000  51.1770000
   2.3220000  43.7780000  35.5360000   1.1570000  44.3580000  36.6810000
   1.2630000  44.2920000  34.2380000   1.1450000  44.3530000  38.1440000
   0.0250000  44.8260000  36.1250000   1.5840000  44.2210000  32.8650000
   0.0580000  44.7980000  34.6760000   2.1080000  43.9330000  39.0720000
  -0.0250000  44.9240000  38.5850000  -1.1240000  45.4270000  37.2850000
   0.6380000  44.6260000  31.9350000   2.4020000  43.8730000  32.5920000
  -0.8800000  45.2580000  33.7250000   1.8280000  44.1280000  40.4290000
   2.9090000  43.5640000  38.7770000  -0.2900000  45.1890000  39.9480000
  -0.5740000  45.1790000  32.3640000   0.9590000  44.6180000  30.4710000
  -1.6770000  45.6410000  34.0110000   0.6580000  44.7820000  40.8600000
   2.4160000  43.7620000  41.0500000  -1.0680000  45.6300000  40.2010000
  -1.1990000  45.4630000  31.7350000   1.9500000  43.7880000  29.9770000
   0.3320000  45.4480000  29.5750000   0.4790000  45.0900000  42.3520000
   2.2970000  43.7680000  28.6380000   2.3770000  43.1890000  30.5460000
   0.6540000  45.3840000  28.2030000  -0.3560000  45.9960000  29.8790000
  -0.6890000  44.3770000  42.9920000   0.3700000  46.0530000  42.3920000
   1.3150000  44.8460000  42.7800000   1.6290000  44.5630000  27.7510000
   2.9930000  43.2360000  28.3240000   0.2110000  45.9580000  27.6200000
  -0.9080000  44.8860000  44.4480000  -0.5500000  43.4200000  43.0750000
  -1.5240000  44.5370000  42.5260000   1.8350000  44.5390000  26.8450000
  -2.1100000  44.2980000  45.1360000  -0.0870000  44.6940000  44.9270000
  -1.0170000  45.8470000  44.3670000  -2.2900000  44.8340000  46.5830000
  -1.9930000  43.3390000  45.2280000  -2.9280000  44.4760000  44.6450000
  -3.5220000  44.3040000  47.2920000  -1.4670000  44.6520000  47.0620000
  -2.3950000  45.7920000  46.4790000  -3.6430000  44.8780000  48.7180000
  -3.4000000  43.3470000  47.3980000  -4.3350000  44.4730000  46.7910000
  -2.8250000  44.7130000  49.2120000  -3.7670000  45.8330000  48.6070000
  -4.7980000  44.2750000  49.4700000  -4.9520000  44.8720000  50.8850000
  -4.7150000  43.3120000  49.5550000  -5.6380000  44.4860000  49.0330000
  -4.1370000  44.6150000  51.3450000  -6.1300000  44.3530000  51.6430000
  -4.9840000  45.8380000  50.8030000  -6.0940000  43.3930000  51.7140000
  -6.1370000  44.7360000  52.5220000  -6.9320000  44.6040000  51.1770000
