%VERSION  VERSION_STAMP = V0001.000  DATE = 08/18/26  17:36:22                  
%FLAG TITLE                                                                     
%FORMAT(20a4)                                                                   
default_name                                                                    
%FLAG POINTERS                                                                  
%FORMAT(10I8)                                                                   
    5597      12    2796    1885    5593     990    2884     117       0       0
   15149     921    1885     990     117      29      53      32      18       0
       0       0       0       0       0       0       0       1      77       0
       0
%FLAG ATOM_NAME                                                                 
%FORMAT(20a4)                                                                   
C1  C2  C3  C4  C5  C6  C7  C8  N1  C9  C10 C11 C12 C13 C14 C15 C16 C17 C18 C19 
N2  C20 C21 C22 C23 C24 C25 C26 H1  C27 C28 Cl1 C29 C30 H2  H3  H4  H5  H6  C31 
H7  H8  H9  H10 H11 H12 H13 H14 H15 H16 H17 H18 H19 H20 H21 H22 H23 H24 H25 C32 
H26 H27 H28 C33 H29 H30 H31 O1  O2  H32 C34 H33 H34 H35 O3  O4  H36 N1  C1  C2  
H1  H2  H3  N1  C1  C2  H1  H2  H3  N1  C1  C2  H1  H2  H3  N1  C1  C2  H1  H2  
H3  N1  C1  C2  H1  H2  H3  N1  C1  C2  H1  H2  H3  N1  C1  C2  H1  H2  H3  N1  
C1  C2  H1  H2  H3  N1  C1  C2  H1  H2  H3  N1  C1  C2  H1  H2  H3  N1  C1  C2  
H1  H2  H3  N1  C1  C2  H1  H2  H3  N1  C1  C2  H1  H2  H3  N1  C1  C2  H1  H2  
H3  N1  C1  C2  H1  H2  H3  N1  C1  C2  H1  H2  H3  N1  C1  C2  H1  H2  H3  N1  
C1  C2  H1  H2  H3  N1  C1  C2  H1  H2  H3  N1  C1  C2  H1  H2  H3  N1  C1  C2  
H1  H2  H3  N1  C1  C2  H1  H2  H3  N1  C1  C2  H1  H2  H3  N1  C1  C2  H1  H2  
H3  N1  C1  C2  H1  H2  H3  N1  C1  C2  H1  H2  H3  N1  C1  C2  H1  H2  H3  N1  
C1  C2  H1  H2  H3  N1  C1  C2  H1  H2  H3  N1  C1  C2  H1  H2  H3  N1  C1  C2  
H1  H2  H3  N1  C1  C2  H1  H2  H3  N1  C1  C2  H1  H2  H3  N1  C1  C2  H1  H2  
H3  N1  C1  C2  H1  H2  H3  N1  C1  C2  H1  H2  H3  N1  C1  C2  H1  H2  H3  N1  
C1  C2  H1  H2  H3  N1  C1  C2  H1  H2  H3  N1  C1  C2  H1  H2  H3  N1  C1  C2  
H1  H2  H3  N1  C1  C2  H1  H2  H3  N1  C1  C2  H1  H2  H3  N1  C1  C2  H1  H2  
H3  N1  C1  C2  H1  H2  H3  N1  C1  C2  H1  H2  H3  N1  C1  C2  H1  H2  H3  N1  
C1  C2  H1  H2  H3  N1  C1  C2  H1  H2  H3  N1  C1  C2  H1  H2  H3  N1  C1  C2  
H1  H2  H3  N1  C1  C2  H1  H2  H3  N1  C1  C2  H1  H2  H3  N1  C1  C2  H1  H2  
H3  N1  C1  C2  H1  H2  H3  N1  C1  C2  H1  H2  H3  N1  C1  C2  H1  H2  H3  N1  
C1  C2  H1  H2  H3  N1  C1  C2  H1  H2  H3  N1  C1  C2  H1  H2  H3  N1  C1  C2  
H1  H2  H3  N1  C1  C2  H1  H2  H3  N1  C1  C2  H1  H2  H3  N1  C1  C2  H1  H2  
H3  N1  C1  C2  H1  H2  H3  N1  C1  C2  H1  H2  H3  N1  C1  C2  H1  H2  H3  N1  
C1  C2  H1  H2  H3  N1  C1  C2  H1  H2  H3  N1  C1  C2  H1  H2  H3  N1  C1  C2  
H1  H2  H3  N1  C1  C2  H1  H2  H3  N1  C1  C2  H1  H2  H3  N1  C1  C2  H1  H2  
H3  N1  C1  C2  H1  H2  H3  N1  C1  C2  H1  H2  H3  N1  C1  C2  H1  H2  H3  N1  
C1  C2  H1  H2  H3  N1  C1  C2  H1  H2  H3  N1  C1  C2  H1  H2  H3  N1  C1  C2  
H1  H2  H3  N1  C1  C2  H1  H2  H3  N1  C1  C2  H1  H2  H3  N1  C1  C2  H1  H2  
H3  N1  C1  C2  H1  H2  H3  N1  C1  C2  H1  H2  H3  N1  C1  C2  H1  H2  H3  N1  
C1  C2  H1  H2  H3  N1  C1  C2  H1  H2  H3  N1  C1  C2  H1  H2  H3  N1  C1  C2  
H1  H2  H3  N1  C1  C2  H1  H2  H3  N1  C1  C2  H1  H2  H3  N1  C1  C2  H1  H2  
H3  N1  C1  C2  H1  H2  H3  N1  C1  C2  H1  H2  H3  N1  C1  C2  H1  H2  H3  N1  
C1  C2  H1  H2  H3  N1  C1  C2  H1  H2  H3  N1  C1  C2  H1  H2  H3  N1  C1  C2  
H1  H2  H3  N1  C1  C2  H1  H2  H3  N1  C1  C2  H1  H2  H3  N1  C1  C2  H1  H2  
H3  N1  C1  C2  H1  H2  H3  N1  C1  C2  H1  H2  H3  N1  C1  C2  H1  H2  H3  N1  
C1  C2  H1  H2  H3  N1  C1  C2  H1  H2  H3  N1  C1  C2  H1  H2  H3  N1  C1  C2  
H1  H2  H3  N1  C1  C2  H1  H2  H3  N1  C1  C2  H1  H2  H3  N1  C1  C2  H1  H2  
H3  N1  C1  C2  H1  H2  H3  N1  C1  C2  H1  H2  H3  N1  C1  C2  H1  H2  H3  N1  
C1  C2  H1  H2  H3  N1  C1  C2  H1  H2  H3  N1  C1  C2  H1  H2  H3  N1  C1  C2  
H1  H2  H3  N1  C1  C2  H1  H2  H3  N1  C1  C2  H1  H2  H3  N1  C1  C2  H1  H2  
H3  N1  C1  C2  H1  H2  H3  N1  C1  C2  H1  H2  H3  N1  C1  C2  H1  H2  H3  N1  
C1  C2  H1  H2  H3  N1  C1  C2  H1  H2  H3  N1  C1  C2  H1  H2  H3  N1  C1  C2  
H1  H2  H3  N1  C1  C2  H1  H2  H3  N1  C1  C2  H1  H2  H3  N1  C1  C2  H1  H2  
H3  N1  C1  C2  H1  H2  H3  N1  C1  C2  H1  H2  H3  N1  C1  C2  H1  H2  H3  N1  
C1  C2  H1  H2  H3  N1  C1  C2  H1  H2  H3  N1  C1  C2  H1  H2  H3  N1  C1  C2  
H1  H2  H3  N1  C1  C2  H1  H2  H3  N1  C1  C2  H1  H2  H3  N1  C1  C2  H1  H2  
H3  N1  C1  C2  H1  H2  H3  N1  C1  C2  H1  H2  H3  N1  C1  C2  H1  H2  H3  N1  
C1  C2  H1  H2  H3  N1  C1  C2  H1  H2  H3  N1  C1  C2  H1  H2  H3  N1  C1  C2  
H1  H2  H3  N1  C1  C2  H1  H2  H3  N1  C1  C2  H1  H2  H3  N1  C1  C2  H1  H2  
H3  N1  C1  C2  H1  H2  H3  N1  C1  C2  H1  H2  H3  N1  C1  C2  H1  H2  H3  N1  
C1  C2  H1  H2  H3  N1  C1  C2  H1  H2  H3  N1  C1  C2  H1  H2  H3  N1  C1  C2  
H1  H2  H3  N1  C1  C2  H1  H2  H3  N1  C1  C2  H1  H2  H3  N1  C1  C2  H1  H2  
H3  N1  C1  C2  H1  H2  H3  N1  C1  C2  H1  H2  H3  N1  C1  C2  H1  H2  H3  N1  
C1  C2  H1  H2  H3  N1  C1  C2  H1  H2  H3  N1  C1  C2  H1  H2  H3  N1  C1  C2  
H1  H2  H3  N1  C1  C2  H1  H2  H3  N1  C1  C2  H1  H2  H3  N1  C1  C2  H1  H2  
H3  N1  C1  C2  H1  H2  H3  N1  C1  C2  H1  H2  H3  N1  C1  C2  H1  H2  H3  N1  
C1  C2  H1  H2  H3  N1  C1  C2  H1  H2  H3  N1  C1  C2  H1  H2  H3  N1  C1  C2  
H1  H2  H3  N1  C1  C2  H1  H2  H3  N1  C1  C2  H1  H2  H3  N1  C1  C2  H1  H2  
H3  N1  C1  C2  H1  H2  H3  N1  C1  C2  H1  H2  H3  N1  C1  C2  H1  H2  H3  N1  
C1  C2  H1  H2  H3  N1  C1  C2  H1  H2  H3  N1  C1  C2  H1  H2  H3  N1  C1  C2  
H1  H2  H3  N1  C1  C2  H1  H2  H3  N1  C1  C2  H1  H2  H3  N1  C1  C2  H1  H2  
H3  N1  C1  C2  H1  H2  H3  N1  C1  C2  H1  H2  H3  N1  C1  C2  H1  H2  H3  N1  
C1  C2  H1  H2  H3  N1  C1  C2  H1  H2  H3  N1  C1  C2  H1  H2  H3  N1  C1  C2  
H1  H2  H3  N1  C1  C2  H1  H2  H3  N1  C1  C2  H1  H2  H3  N1  C1  C2  H1  H2  
H3  N1  C1  C2  H1  H2  H3  N1  C1  C2  H1  H2  H3  N1  C1  C2  H1  H2  H3  N1  
C1  C2  H1  H2  H3  N1  C1  C2  H1  H2  H3  N1  C1  C2  H1  H2  H3  N1  C1  C2  
H1  H2  H3  N1  C1  C2  H1  H2  H3  N1  C1  C2  H1  H2  H3  N1  C1  C2  H1  H2  
H3  N1  C1  C2  H1  H2  H3  N1  C1  C2  H1  H2  H3  N1  C1  C2  H1  H2  H3  N1  
C1  C2  H1  H2  H3  N1  C1  C2  H1  H2  H3  N1  C1  C2  H1  H2  H3  N1  C1  C2  
H1  H2  H3  N1  C1  C2  H1  H2  H3  N1  C1  C2  H1  H2  H3  N1  C1  C2  H1  H2  
H3  N1  C1  C2  H1  H2  H3  N1  C1  C2  H1  H2  H3  N1  C1  C2  H1  H2  H3  N1  
C1  C2  H1  H2  H3  N1  C1  C2  H1  H2  H3  N1  C1  C2  H1  H2  H3  N1  C1  C2  
H1  H2  H3  N1  C1  C2  H1  H2  H3  N1  C1  C2  H1  H2  H3  N1  C1  C2  H1  H2  
H3  N1  C1  C2  H1  H2  H3  N1  C1  C2  H1  H2  H3  N1  C1  C2  H1  H2  H3  N1  
C1  C2  H1  H2  H3  N1  C1  C2  H1  H2  H3  N1  C1  C2  H1  H2  H3  N1  C1  C2  
H1  H2  H3  N1  C1  C2  H1  H2  H3  N1  C1  C2  H1  H2  H3  N1  C1  C2  H1  H2  
H3  N1  C1  C2  H1  H2  H3  N1  C1  C2  H1  H2  H3  N1  C1  C2  H1  H2  H3  N1  
C1  C2  H1  H2  H3  N1  C1  C2  H1  H2  H3  N1  C1  C2  H1  H2  H3  N1  C1  C2  
H1  H2  H3  N1  C1  C2  H1  H2  H3  N1  C1  C2  H1  H2  H3  N1  C1  C2  H1  H2  
H3  N1  C1  C2  H1  H2  H3  N1  C1  C2  H1  H2  H3  N1  C1  C2  H1  H2  H3  N1  
C1  C2  H1  H2  H3  N1  C1  C2  H1  H2  H3  N1  C1  C2  H1  H2  H3  N1  C1  C2  
H1  H2  H3  N1  C1  C2  H1  H2  H3  N1  C1  C2  H1  H2  H3  N1  C1  C2  H1  H2  
H3  N1  C1  C2  H1  H2  H3  N1  C1  C2  H1  H2  H3  N1  C1  C2  H1  H2  H3  N1  
C1  C2  H1  H2  H3  N1  C1  C2  H1  H2  H3  N1  C1  C2  H1  H2  H3  N1  C1  C2  
H1  H2  H3  N1  C1  C2  H1  H2  H3  N1  C1  C2  H1  H2  H3  N1  C1  C2  H1  H2  
H3  N1  C1  C2  H1  H2  H3  N1  C1  C2  H1  H2  H3  N1  C1  C2  H1  H2  H3  N1  
C1  C2  H1  H2  H3  N1  C1  C2  H1  H2  H3  N1  C1  C2  H1  H2  H3  N1  C1  C2  
H1  H2  H3  N1  C1  C2  H1  H2  H3  N1  C1  C2  H1  H2  H3  N1  C1  C2  H1  H2  
H3  N1  C1  C2  H1  H2  H3  N1  C1  C2  H1  H2  H3  N1  C1  C2  H1  H2  H3  N1  
C1  C2  H1  H2  H3  N1  C1  C2  H1  H2  H3  N1  C1  C2  H1  H2  H3  N1  C1  C2  
H1  H2  H3  N1  C1  C2  H1  H2  H3  N1  C1  C2  H1  H2  H3  N1  C1  C2  H1  H2  
H3  N1  C1  C2  H1  H2  H3  N1  C1  C2  H1  H2  H3  N1  C1  C2  H1  H2  H3  N1  
C1  C2  H1  H2  H3  N1  C1  C2  H1  H2  H3  N1  C1  C2  H1  H2  H3  N1  C1  C2  
H1  H2  H3  N1  C1  C2  H1  H2  H3  N1  C1  C2  H1  H2  H3  N1  C1  C2  H1  H2  
H3  N1  C1  C2  H1  H2  H3  N1  C1  C2  H1  H2  H3  N1  C1  C2  H1  H2  H3  N1  
C1  C2  H1  H2  H3  N1  C1  C2  H1  H2  H3  N1  C1  C2  H1  H2  H3  N1  C1  C2  
H1  H2  H3  N1  C1  C2  H1  H2  H3  N1  C1  C2  H1  H2  H3  N1  C1  C2  H1  H2  
H3  N1  C1  C2  H1  H2  H3  N1  C1  C2  H1  H2  H3  N1  C1  C2  H1  H2  H3  N1  
C1  C2  H1  H2  H3  N1  C1  C2  H1  H2  H3  N1  C1  C2  H1  H2  H3  N1  C1  C2  
H1  H2  H3  N1  C1  C2  H1  H2  H3  N1  C1  C2  H1  H2  H3  N1  C1  C2  H1  H2  
H3  N1  C1  C2  H1  H2  H3  N1  C1  C2  H1  H2  H3  N1  C1  C2  H1  H2  H3  N1  
C1  C2  H1  H2  H3  N1  C1  C2  H1  H2  H3  N1  C1  C2  H1  H2  H3  N1  C1  C2  
H1  H2  H3  N1  C1  C2  H1  H2  H3  N1  C1  C2  H1  H2  H3  N1  C1  C2  H1  H2  
H3  N1  C1  C2  H1  H2  H3  N1  C1  C2  H1  H2  H3  N1  C1  C2  H1  H2  H3  N1  
C1  C2  H1  H2  H3  N1  C1  C2  H1  H2  H3  N1  C1  C2  H1  H2  H3  N1  C1  C2  
H1  H2  H3  N1  C1  C2  H1  H2  H3  N1  C1  C2  H1  H2  H3  N1  C1  C2  H1  H2  
H3  N1  C1  C2  H1  H2  H3  N1  C1  C2  H1  H2  H3  N1  C1  C2  H1  H2  H3  N1  
C1  C2  H1  H2  H3  N1  C1  C2  H1  H2  H3  N1  C1  C2  H1  H2  H3  N1  C1  C2  
H1  H2  H3  N1  C1  C2  H1  H2  H3  N1  C1  C2  H1  H2  H3  N1  C1  C2  H1  H2  
H3  N1  C1  C2  H1  H2  H3  N1  C1  C2  H1  H2  H3  N1  C1  C2  H1  H2  H3  N1  
C1  C2  H1  H2  H3  N1  C1  C2  H1  H2  H3  N1  C1  C2  H1  H2  H3  N1  C1  C2  
H1  H2  H3  N1  C1  C2  H1  H2  H3  N1  C1  C2  H1  H2  H3  N1  C1  C2  H1  H2  
H3  N1  C1  C2  H1  H2  H3  N1  C1  C2  H1  H2  H3  N1  C1  C2  H1  H2  H3  N1  
C1  C2  H1  H2  H3  N1  C1  C2  H1  H2  H3  N1  C1  C2  H1  H2  H3  N1  C1  C2  
H1  H2  H3  N1  C1  C2  H1  H2  H3  N1  C1  C2  H1  H2  H3  N1  C1  C2  H1  H2  
H3  N1  C1  C2  H1  H2  H3  N1  C1  C2  H1  H2  H3  N1  C1  C2  H1  H2  H3  N1  
C1  C2  H1  H2  H3  N1  C1  C2  H1  H2  H3  N1  C1  C2  H1  H2  H3  N1  C1  C2  
H1  H2  H3  N1  C1  C2  H1  H2  H3  N1  C1  C2  H1  H2  H3  N1  C1  C2  H1  H2  
H3  N1  C1  C2  H1  H2  H3  N1  C1  C2  H1  H2  H3  N1  C1  C2  H1  H2  H3  N1  
C1  C2  H1  H2  H3  N1  C1  C2  H1  H2  H3  N1  C1  C2  H1  H2  H3  N1  C1  C2  
H1  H2  H3  N1  C1  C2  H1  H2  H3  N1  C1  C2  H1  H2  H3  N1  C1  C2  H1  H2  
H3  N1  C1  C2  H1  H2  H3  N1  C1  C2  H1  H2  H3  N1  C1  C2  H1  H2  H3  N1  
C1  C2  H1  H2  H3  N1  C1  C2  H1  H2  H3  N1  C1  C2  H1  H2  H3  N1  C1  C2  
H1  H2  H3  N1  C1  C2  H1  H2  H3  N1  C1  C2  H1  H2  H3  N1  C1  C2  H1  H2  
H3  N1  C1  C2  H1  H2  H3  N1  C1  C2  H1  H2  H3  N1  C1  C2  H1  H2  H3  N1  
C1  C2  H1  H2  H3  N1  C1  C2  H1  H2  H3  N1  C1  C2  H1  H2  H3  N1  C1  C2  
H1  H2  H3  N1  C1  C2  H1  H2  H3  N1  C1  C2  H1  H2  H3  N1  C1  C2  H1  H2  
H3  N1  C1  C2  H1  H2  H3  N1  C1  C2  H1  H2  H3  N1  C1  C2  H1  H2  H3  N1  
C1  C2  H1  H2  H3  N1  C1  C2  H1  H2  H3  N1  C1  C2  H1  H2  H3  N1  C1  C2  
H1  H2  H3  N1  C1  C2  H1  H2  H3  N1  C1  C2  H1  H2  H3  N1  C1  C2  H1  H2  
H3  N1  C1  C2  H1  H2  H3  N1  C1  C2  H1  H2  H3  N1  C1  C2  H1  H2  H3  N1  
C1  C2  H1  H2  H3  N1  C1  C2  H1  H2  H3  N1  C1  C2  H1  H2  H3  N1  C1  C2  
H1  H2  H3  N1  C1  C2  H1  H2  H3  N1  C1  C2  H1  H2  H3  N1  C1  C2  H1  H2  
H3  N1  C1  C2  H1  H2  H3  N1  C1  C2  H1  H2  H3  N1  C1  C2  H1  H2  H3  N1  
C1  C2  H1  H2  H3  N1  C1  C2  H1  H2  H3  N1  C1  C2  H1  H2  H3  N1  C1  C2  
H1  H2  H3  N1  C1  C2  H1  H2  H3  N1  C1  C2  H1  H2  H3  N1  C1  C2  H1  H2  
H3  N1  C1  C2  H1  H2  H3  N1  C1  C2  H1  H2  H3  N1  C1  C2  H1  H2  H3  N1  
C1  C2  H1  H2  H3  N1  C1  C2  H1  H2  H3  N1  C1  C2  H1  H2  H3  N1  C1  C2  
H1  H2  H3  N1  C1  C2  H1  H2  H3  N1  C1  C2  H1  H2  H3  N1  C1  C2  H1  H2  
H3  N1  C1  C2  H1  H2  H3  N1  C1  C2  H1  H2  H3  N1  C1  C2  H1  H2  H3  N1  
C1  C2  H1  H2  H3  N1  C1  C2  H1  H2  H3  N1  C1  C2  H1  H2  H3  N1  C1  C2  
H1  H2  H3  N1  C1  C2  H1  H2  H3  N1  C1  C2  H1  H2  H3  N1  C1  C2  H1  H2  
H3  N1  C1  C2  H1  H2  H3  N1  C1  C2  H1  H2  H3  N1  C1  C2  H1  H2  H3  N1  
C1  C2  H1  H2  H3  N1  C1  C2  H1  H2  H3  N1  C1  C2  H1  H2  H3  N1  C1  C2  
H1  H2  H3  N1  C1  C2  H1  H2  H3  N1  C1  C2  H1  H2  H3  N1  C1  C2  H1  H2  
H3  N1  C1  C2  H1  H2  H3  N1  C1  C2  H1  H2  H3  N1  C1  C2  H1  H2  H3  N1  
C1  C2  H1  H2  H3  N1  C1  C2  H1  H2  H3  N1  C1  C2  H1  H2  H3  N1  C1  C2  
H1  H2  H3  N1  C1  C2  H1  H2  H3  N1  C1  C2  H1  H2  H3  N1  C1  C2  H1  H2  
H3  N1  C1  C2  H1  H2  H3  N1  C1  C2  H1  H2  H3  N1  C1  C2  H1  H2  H3  N1  
C1  C2  H1  H2  H3  N1  C1  C2  H1  H2  H3  N1  C1  C2  H1  H2  H3  N1  C1  C2  
H1  H2  H3  N1  C1  C2  H1  H2  H3  N1  C1  C2  H1  H2  H3  N1  C1  C2  H1  H2  
H3  N1  C1  C2  H1  H2  H3  N1  C1  C2  H1  H2  H3  N1  C1  C2  H1  H2  H3  N1  
C1  C2  H1  H2  H3  N1  C1  C2  H1  H2  H3  N1  C1  C2  H1  H2  H3  N1  C1  C2  
H1  H2  H3  N1  C1  C2  H1  H2  H3  N1  C1  C2  H1  H2  H3  N1  C1  C2  H1  H2  
H3  N1  C1  C2  H1  H2  H3  N1  C1  C2  H1  H2  H3  N1  C1  C2  H1  H2  H3  N1  
C1  C2  H1  H2  H3  N1  C1  C2  H1  H2  H3  N1  C1  C2  H1  H2  H3  N1  C1  C2  
H1  H2  H3  N1  C1  C2  H1  H2  H3  N1  C1  C2  H1  H2  H3  N1  C1  C2  H1  H2  
H3  N1  C1  C2  H1  H2  H3  N1  C1  C2  H1  H2  H3  N1  C1  C2  H1  H2  H3  N1  
C1  C2  H1  H2  H3  N1  C1  C2  H1  H2  H3  N1  C1  C2  H1  H2  H3  N1  C1  C2  
H1  H2  H3  N1  C1  C2  H1  H2  H3  N1  C1  C2  H1  H2  H3  N1  C1  C2  H1  H2  
H3  N1  C1  C2  H1  H2  H3  N1  C1  C2  H1  H2  H3  N1  C1  C2  H1  H2  H3  N1  
C1  C2  H1  H2  H3  N1  C1  C2  H1  H2  H3  N1  C1  C2  H1  H2  H3  N1  C1  C2  
H1  H2  H3  N1  C1  C2  H1  H2  H3  N1  C1  C2  H1  H2  H3  N1  C1  C2  H1  H2  
H3  N1  C1  C2  H1  H2  H3  N1  C1  C2  H1  H2  H3  N1  C1  C2  H1  H2  H3  N1  
C1  C2  H1  H2  H3  N1  C1  C2  H1  H2  H3  N1  C1  C2  H1  H2  H3  N1  C1  C2  
H1  H2  H3  N1  C1  C2  H1  H2  H3  N1  C1  C2  H1  H2  H3  N1  C1  C2  H1  H2  
H3  N1  C1  C2  H1  H2  H3  N1  C1  C2  H1  H2  H3  N1  C1  C2  H1  H2  H3  N1  
C1  C2  H1  H2  H3  N1  C1  C2  H1  H2  H3  N1  C1  C2  H1  H2  H3  N1  C1  C2  
H1  H2  H3  N1  C1  C2  H1  H2  H3  N1  C1  C2  H1  H2  H3  N1  C1  C2  H1  H2  
H3  N1  C1  C2  H1  H2  H3  N1  C1  C2  H1  H2  H3  N1  C1  C2  H1  H2  H3  N1  
C1  C2  H1  H2  H3  N1  C1  C2  H1  H2  H3  N1  C1  C2  H1  H2  H3  N1  C1  C2  
H1  H2  H3  N1  C1  C2  H1  H2  H3  N1  C1  C2  H1  H2  H3  N1  C1  C2  H1  H2  
H3  N1  C1  C2  H1  H2  H3  N1  C1  C2  H1  H2  H3  N1  C1  C2  H1  H2  H3  N1  
C1  C2  H1  H2  H3  N1  C1  C2  H1  H2  H3  N1  C1  C2  H1  H2  H3  N1  C1  C2  
H1  H2  H3  N1  C1  C2  H1  H2  H3  N1  C1  C2  H1  H2  H3  N1  C1  C2  H1  H2  
H3  N1  C1  C2  H1  H2  H3  N1  C1  C2  H1  H2  H3  N1  C1  C2  H1  H2  H3  N1  
C1  C2  H1  H2  H3  N1  C1  C2  H1  H2  H3  N1  C1  C2  H1  H2  H3  N1  C1  C2  
H1  H2  H3  N1  C1  C2  H1  H2  H3  N1  C1  C2  H1  H2  H3  N1  C1  C2  H1  H2  
H3  N1  C1  C2  H1  H2  H3  N1  C1  C2  H1  H2  H3  N1  C1  C2  H1  H2  H3  N1  
C1  C2  H1  H2  H3  N1  C1  C2  H1  H2  H3  N1  C1  C2  H1  H2  H3  N1  C1  C2  
H1  H2  H3  N1  C1  C2  H1  H2  H3  N1  C1  C2  H1  H2  H3  N1  C1  C2  H1  H2  
H3  N1  C1  C2  H1  H2  H3  N1  C1  C2  H1  H2  H3  N1  C1  C2  H1  H2  H3  N1  
C1  C2  H1  H2  H3  N1  C1  C2  H1  H2  H3  N1  C1  C2  H1  H2  H3  N1  C1  C2  
H1  H2  H3  N1  C1  C2  H1  H2  H3  N1  C1  C2  H1  H2  H3  N1  C1  C2  H1  H2  
H3  N1  C1  C2  H1  H2  H3  N1  C1  C2  H1  H2  H3  N1  C1  C2  H1  H2  H3  N1  
C1  C2  H1  H2  H3  N1  C1  C2  H1  H2  H3  N1  C1  C2  H1  H2  H3  N1  C1  C2  
H1  H2  H3  N1  C1  C2  H1  H2  H3  N1  C1  C2  H1  H2  H3  N1  C1  C2  H1  H2  
H3  N1  C1  C2  H1  H2  H3  N1  C1  C2  H1  H2  H3  N1  C1  C2  H1  H2  H3  N1  
C1  C2  H1  H2  H3  N1  C1  C2  H1  H2  H3  N1  C1  C2  H1  H2  H3  N1  C1  C2  
H1  H2  H3  N1  C1  C2  H1  H2  H3  N1  C1  C2  H1  H2  H3  N1  C1  C2  H1  H2  
H3  N1  C1  C2  H1  H2  H3  N1  C1  C2  H1  H2  H3  N1  C1  C2  H1  H2  H3  N1  
C1  C2  H1  H2  H3  N1  C1  C2  H1  H2  H3  N1  C1  C2  H1  H2  H3  N1  C1  C2  
H1  H2  H3  N1  C1  C2  H1  H2  H3  N1  C1  C2  H1  H2  H3  N1  C1  C2  H1  H2  
H3  N1  C1  C2  H1  H2  H3  N1  C1  C2  H1  H2  H3  N1  C1  C2  H1  H2  H3  N1  
C1  C2  H1  H2  H3  N1  C1  C2  H1  H2  H3  N1  C1  C2  H1  H2  H3  N1  C1  C2  
H1  H2  H3  N1  C1  C2  H1  H2  H3  N1  C1  C2  H1  H2  H3  N1  C1  C2  H1  H2  
H3  N1  C1  C2  H1  H2  H3  N1  C1  C2  H1  H2  H3  N1  C1  C2  H1  H2  H3  N1  
C1  C2  H1  H2  H3  N1  C1  C2  H1  H2  H3  N1  C1  C2  H1  H2  H3  N1  C1  C2  
H1  H2  H3  N1  C1  C2  H1  H2  H3  N1  C1  C2  H1  H2  H3  N1  C1  C2  H1  H2  
H3  N1  C1  C2  H1  H2  H3  N1  C1  C2  H1  H2  H3  N1  C1  C2  H1  H2  H3  N1  
C1  C2  H1  H2  H3  N1  C1  C2  H1  H2  H3  N1  C1  C2  H1  H2  H3  N1  C1  C2  
H1  H2  H3  N1  C1  C2  H1  H2  H3  N1  C1  C2  H1  H2  H3  N1  C1  C2  H1  H2  
H3  N1  C1  C2  H1  H2  H3  N1  C1  C2  H1  H2  H3  N1  C1  C2  H1  H2  H3  N1  
C1  C2  H1  H2  H3  N1  C1  C2  H1  H2  H3  N1  C1  C2  H1  H2  H3  N1  C1  C2  
H1  H2  H3  N1  C1  C2  H1  H2  H3  N1  C1  C2  H1  H2  H3  N1  C1  C2  H1  H2  
H3  N1  C1  C2  H1  H2  H3  N1  C1  C2  H1  H2  H3  N1  C1  C2  H1  H2  H3  N1  
C1  C2  H1  H2  H3  N1  C1  C2  H1  H2  H3  N1  C1  C2  H1  H2  H3  N1  C1  C2  
H1  H2  H3  N1  C1  C2  H1  H2  H3  N1  C1  C2  H1  H2  H3  N1  C1  C2  H1  H2  
H3  N1  C1  C2  H1  H2  H3  N1  C1  C2  H1  H2  H3  N1  C1  C2  H1  H2  H3  N1  
C1  C2  H1  H2  H3  N1  C1  C2  H1  H2  H3  N1  C1  C2  H1  H2  H3  N1  C1  C2  
H1  H2  H3  N1  C1  C2  H1  H2  H3  N1  C1  C2  H1  H2  H3  N1  C1  C2  H1  H2  
H3  N1  C1  C2  H1  H2  H3  N1  C1  C2  H1  H2  H3  N1  C1  C2  H1  H2  H3  N1  
C1  C2  H1  H2  H3  N1  C1  C2  H1  H2  H3  N1  C1  C2  H1  H2  H3  N1  C1  C2  
H1  H2  H3  N1  C1  C2  H1  H2  H3  N1  C1  C2  H1  H2  H3  N1  C1  C2  H1  H2  
H3  N1  C1  C2  H1  H2  H3  N1  C1  C2  H1  H2  H3  N1  C1  C2  H1  H2  H3  N1  
C1  C2  H1  H2  H3  N1  C1  C2  H1  H2  H3  N1  C1  C2  H1  H2  H3  N1  C1  C2  
H1  H2  H3  N1  C1  C2  H1  H2  H3  N1  C1  C2  H1  H2  H3  N1  C1  C2  H1  H2  
H3  N1  C1  C2  H1  H2  H3  N1  C1  C2  H1  H2  H3  N1  C1  C2  H1  H2  H3  N1  
C1  C2  H1  H2  H3  N1  C1  C2  H1  H2  H3  N1  C1  C2  H1  H2  H3  N1  C1  C2  
H1  H2  H3  N1  C1  C2  H1  H2  H3  N1  C1  C2  H1  H2  H3  N1  C1  C2  H1  H2  
H3  N1  C1  C2  H1  H2  H3  N1  C1  C2  H1  H2  H3  N1  C1  C2  H1  H2  H3  N1  
C1  C2  H1  H2  H3  N1  C1  C2  H1  H2  H3  N1  C1  C2  H1  H2  H3  N1  C1  C2  
H1  H2  H3  N1  C1  C2  H1  H2  H3  N1  C1  C2  H1  H2  H3  N1  C1  C2  H1  H2  
H3  N1  C1  C2  H1  H2  H3  N1  C1  C2  H1  H2  H3  N1  C1  C2  H1  H2  H3  N1  
C1  C2  H1  H2  H3  N1  C1  C2  H1  H2  H3  N1  C1  C2  H1  H2  H3  N1  C1  C2  
H1  H2  H3  N1  C1  C2  H1  H2  H3  N1  C1  C2  H1  H2  H3  N1  C1  C2  H1  H2  
H3  N1  C1  C2  H1  H2  H3  N1  C1  C2  H1  H2  H3  N1  C1  C2  H1  H2  H3  N1  
C1  C2  H1  H2  H3  N1  C1  C2  H1  H2  H3  N1  C1  C2  H1  H2  H3  N1  C1  C2  
H1  H2  H3  N1  C1  C2  H1  H2  H3  N1  C1  C2  H1  H2  H3  N1  C1  C2  H1  H2  
H3  N1  C1  C2  H1  H2  H3  N1  C1  C2  H1  H2  H3  N1  C1  C2  H1  H2  H3  N1  
C1  C2  H1  H2  H3  N1  C1  C2  H1  H2  H3  N1  C1  C2  H1  H2  H3  N1  C1  C2  
H1  H2  H3  N1  C1  C2  H1  H2  H3  N1  C1  C2  H1  H2  H3  N1  C1  C2  H1  H2  
H3  N1  C1  C2  H1  H2  H3  N1  C1  C2  H1  H2  H3  N1  C1  C2  H1  H2  H3  N1  
C1  C2  H1  H2  H3  N1  C1  C2  H1  H2  H3  N1  C1  C2  H1  H2  H3  N1  C1  C2  
H1  H2  H3  N1  C1  C2  H1  H2  H3  N1  C1  C2  H1  H2  H3  N1  C1  C2  H1  H2  
H3  N1  C1  C2  H1  H2  H3  N1  C1  C2  H1  H2  H3  N1  C1  C2  H1  H2  H3  N1  
C1  C2  H1  H2  H3  N1  C1  C2  H1  H2  H3  N1  C1  C2  H1  H2  H3  N1  C1  C2  
H1  H2  H3  N1  C1  C2  H1  H2  H3  N1  C1  C2  H1  H2  H3  N1  C1  C2  H1  H2  
H3  N1  C1  C2  H1  H2  H3  N1  C1  C2  H1  H2  H3  N1  C1  C2  H1  H2  H3  N1  
C1  C2  H1  H2  H3  N1  C1  C2  H1  H2  H3  N1  C1  C2  H1  H2  H3  N1  C1  C2  
H1  H2  H3  N1  C1  C2  H1  H2  H3  N1  C1  C2  H1  H2  H3  N1  C1  C2  H1  H2  
H3  N1  C1  C2  H1  H2  H3  N1  C1  C2  H1  H2  H3  N1  C1  C2  H1  H2  H3  N1  
C1  C2  H1  H2  H3  N1  C1  C2  H1  H2  H3  N1  C1  C2  H1  H2  H3  N1  C1  C2  
H1  H2  H3  N1  C1  C2  H1  H2  H3  N1  C1  C2  H1  H2  H3  N1  C1  C2  H1  H2  
H3  N1  C1  C2  H1  H2  H3  N1  C1  C2  H1  H2  H3  N1  C1  C2  H1  H2  H3  N1  
C1  C2  H1  H2  H3  N1  C1  C2  H1  H2  H3  N1  C1  C2  H1  H2  H3  N1  C1  C2  
H1  H2  H3  N1  C1  C2  H1  H2  H3  N1  C1  C2  H1  H2  H3  N1  C1  C2  H1  H2  
H3  N1  C1  C2  H1  H2  H3  N1  C1  C2  H1  H2  H3  N1  C1  C2  H1  H2  H3  N1  
C1  C2  H1  H2  H3  N1  C1  C2  H1  H2  H3  N1  C1  C2  H1  H2  H3  N1  C1  C2  
H1  H2  H3  N1  C1  C2  H1  H2  H3  N1  C1  C2  H1  H2  H3  N1  C1  C2  H1  H2  
H3  N1  C1  C2  H1  H2  H3  N1  C1  C2  H1  H2  H3  N1  C1  C2  H1  H2  H3  N1  
C1  C2  H1  H2  H3  N1  C1  C2  H1  H2  H3  N1  C1  C2  H1  H2  H3  N1  C1  C2  
H1  H2  H3  N1  C1  C2  H1  H2  H3  N1  C1  C2  H1  H2  H3  N1  C1  C2  H1  H2  
H3  N1  C1  C2  H1  H2  H3  N1  C1  C2  H1  H2  H3  N1  C1  C2  H1  H2  H3  N1  
C1  C2  H1  H2  H3  N1  C1  C2  H1  H2  H3  N1  C1  C2  H1  H2  H3  N1  C1  C2  
H1  H2  H3  N1  C1  C2  H1  H2  H3  N1  C1  C2  H1  H2  H3  N1  C1  C2  H1  H2  
H3  N1  C1  C2  H1  H2  H3  N1  C1  C2  H1  H2  H3  N1  C1  C2  H1  H2  H3  N1  
C1  C2  H1  H2  H3  N1  C1  C2  H1  H2  H3  N1  C1  C2  H1  H2  H3  N1  C1  C2  
H1  H2  H3  N1  C1  C2  H1  H2  H3  N1  C1  C2  H1  H2  H3  N1  C1  C2  H1  H2  
H3  N1  C1  C2  H1  H2  H3  N1  C1  C2  H1  H2  H3  N1  C1  C2  H1  H2  H3  N1  
C1  C2  H1  H2  H3  N1  C1  C2  H1  H2  H3  N1  C1  C2  H1  H2  H3  N1  C1  C2  
H1  H2  H3  N1  C1  C2  H1  H2  H3  N1  C1  C2  H1  H2  H3  N1  C1  C2  H1  H2  
H3  N1  C1  C2  H1  H2  H3  N1  C1  C2  H1  H2  H3  N1  C1  C2  H1  H2  H3  N1  
C1  C2  H1  H2  H3  N1  C1  C2  H1  H2  H3  N1  C1  C2  H1  H2  H3  N1  C1  C2  
H1  H2  H3  N1  C1  C2  H1  H2  H3  N1  C1  C2  H1  H2  H3  N1  C1  C2  H1  H2  
H3  N1  C1  C2  H1  H2  H3  N1  C1  C2  H1  H2  H3  N1  C1  C2  H1  H2  H3  N1  
C1  C2  H1  H2  H3  N1  C1  C2  H1  H2  H3  N1  C1  C2  H1  H2  H3  N1  C1  C2  
H1  H2  H3  N1  C1  C2  H1  H2  H3  N1  C1  C2  H1  H2  H3  N1  C1  C2  H1  H2  
H3  N1  C1  C2  H1  H2  H3  N1  C1  C2  H1  H2  H3  N1  C1  C2  H1  H2  H3  N1  
C1  C2  H1  H2  H3  N1  C1  C2  H1  H2  H3  N1  C1  C2  H1  H2  H3  N1  C1  C2  
H1  H2  H3  N1  C1  C2  H1  H2  H3  N1  C1  C2  H1  H2  H3  N1  C1  C2  H1  H2  
H3  N1  C1  C2  H1  H2  H3  N1  C1  C2  H1  H2  H3  N1  C1  C2  H1  H2  H3  N1  
C1  C2  H1  H2  H3  N1  C1  C2  H1  H2  H3  N1  C1  C2  H1  H2  H3  N1  C1  C2  
H1  H2  H3  N1  C1  C2  H1  H2  H3  N1  C1  C2  H1  H2  H3  N1  C1  C2  H1  H2  
H3  N1  C1  C2  H1  H2  H3  N1  C1  C2  H1  H2  H3  N1  C1  C2  H1  H2  H3  N1  
C1  C2  H1  H2  H3  N1  C1  C2  H1  H2  H3  N1  C1  C2  H1  H2  H3  N1  C1  C2  
H1  H2  H3  N1  C1  C2  H1  H2  H3  N1  C1  C2  H1  H2  H3  N1  C1  C2  H1  H2  
H3  N1  C1  C2  H1  H2  H3  N1  C1  C2  H1  H2  H3  N1  C1  C2  H1  H2  H3  N1  
C1  C2  H1  H2  H3  N1  C1  C2  H1  H2  H3  N1  C1  C2  H1  H2  H3  
%FLAG CHARGE                                                                    
%FORMAT(5E16.8)                                                                 
 -2.69690040E+00  1.96800840E-01 -2.66592249E+00 -4.37335200E-01 -2.48916618E+00
 -6.19558200E-01 -1.05689340E+00  7.26340878E+00 -2.91921246E+00 -7.33629798E+00
  1.65822930E+00 -4.03077276E+00  4.23486252E+00 -4.03077276E+00 -4.95646560E-01
 -1.48329522E+00 -4.95646560E-01  1.65822930E+00 -5.75824680E+00  4.73415354E+00
 -8.96172714E+00  2.50738848E+00 -2.66592249E+00  3.91779450E-01 -2.69690040E+00
 -6.19558200E-01 -2.48916618E+00 -4.37335200E-01  3.18890250E+00  3.42761463E+00
 -1.58716233E+00 -1.61085132E+00  1.93156380E-01 -1.58716233E+00  3.18890250E+00
  1.04231556E+00  1.04231556E+00  1.04231556E+00  2.86090110E+00  1.18208060E+01
  3.17068020E+00  1.27009431E+00  1.27009431E+00  1.27009431E+00  2.78801190E+00
  2.53289970E+00  1.06053786E+00  1.02409326E+00  1.02409326E+00  1.06053786E+00
  1.02409326E+00  1.02409326E+00  2.53289970E+00  2.78801190E+00  1.04231556E+00
  1.04231556E+00  1.04231556E+00  3.17068020E+00  2.86090110E+00  1.18208060E+01
  1.27009431E+00  1.27009431E+00  1.27009431E+00 -1.58716233E+00  1.04231556E+00
  1.04231556E+00  1.04231556E+00 -1.09534245E+01 -9.78537510E+00  8.36403570E+00
 -1.58716233E+00  1.04231556E+00  1.04231556E+00  1.04231556E+00 -1.09534245E+01
 -9.78537510E+00  8.36403570E+00 -6.84794034E+00 -8.20003500E-01  3.80299401E+00
  1.28831661E+00  1.28831661E+00  1.28831661E+00 -6.84794034E+00 -8.20003500E-01
  3.80299401E+00  1.28831661E+00  1.28831661E+00  1.28831661E+00 -6.84794034E+00
 -8.20003500E-01  3.80299401E+00  1.28831661E+00  1.28831661E+00  1.28831661E+00
 -6.84794034E+00 -8.20003500E-01  3.80299401E+00  1.28831661E+00  1.28831661E+00
  1.28831661E+00 -6.84794034E+00 -8.20003500E-01  3.80299401E+00  1.28831661E+00
  1.28831661E+00  1.28831661E+00 -6.84794034E+00 -8.20003500E-01  3.80299401E+00
  1.28831661E+00  1.28831661E+00  1.28831661E+00 -6.84794034E+00 -8.20003500E-01
  3.80299401E+00  1.28831661E+00  1.28831661E+00  1.28831661E+00 -6.84794034E+00
 -8.20003500E-01  3.80299401E+00  1.28831661E+00  1.28831661E+00  1.28831661E+00
 -6.84794034E+00 -8.20003500E-01  3.80299401E+00  1.28831661E+00  1.28831661E+00
  1.28831661E+00 -6.84794034E+00 -8.20003500E-01  3.80299401E+00  1.28831661E+00
  1.28831661E+00  1.28831661E+00 -6.84794034E+00 -8.20003500E-01  3.80299401E+00
  1.28831661E+00  1.28831661E+00  1.28831661E+00 -6.84794034E+00 -8.20003500E-01
  3.80299401E+00  1.28831661E+00  1.28831661E+00  1.28831661E+00 -6.84794034E+00
 -8.20003500E-01  3.80299401E+00  1.28831661E+00  1.28831661E+00  1.28831661E+00
 -6.84794034E+00 -8.20003500E-01  3.80299401E+00  1.28831661E+00  1.28831661E+00
  1.28831661E+00 -6.84794034E+00 -8.20003500E-01  3.80299401E+00  1.28831661E+00
  1.28831661E+00  1.28831661E+00 -6.84794034E+00 -8.20003500E-01  3.80299401E+00
  1.28831661E+00  1.28831661E+00  1.28831661E+00 -6.84794034E+00 -8.20003500E-01
  3.80299401E+00  1.28831661E+00  1.28831661E+00  1.28831661E+00 -6.84794034E+00
 -8.20003500E-01  3.80299401E+00  1.28831661E+00  1.28831661E+00  1.28831661E+00
 -6.84794034E+00 -8.20003500E-01  3.80299401E+00  1.28831661E+00  1.28831661E+00
  1.28831661E+00 -6.84794034E+00 -8.20003500E-01  3.80299401E+00  1.28831661E+00
  1.28831661E+00  1.28831661E+00 -6.84794034E+00 -8.20003500E-01  3.80299401E+00
  1.28831661E+00  1.28831661E+00  1.28831661E+00 -6.84794034E+00 -8.20003500E-01
  3.80299401E+00  1.28831661E+00  1.28831661E+00  1.28831661E+00 -6.84794034E+00
 -8.20003500E-01  3.80299401E+00  1.28831661E+00  1.28831661E+00  1.28831661E+00
 -6.84794034E+00 -8.20003500E-01  3.80299401E+00  1.28831661E+00  1.28831661E+00
  1.28831661E+00 -6.84794034E+00 -8.20003500E-01  3.80299401E+00  1.28831661E+00
  1.28831661E+00  1.28831661E+00 -6.84794034E+00 -8.20003500E-01  3.80299401E+00
  1.28831661E+00  1.28831661E+00  1.28831661E+00 -6.84794034E+00 -8.20003500E-01
  3.80299401E+00  1.28831661E+00  1.28831661E+00  1.28831661E+00 -6.84794034E+00
 -8.20003500E-01  3.80299401E+00  1.28831661E+00  1.28831661E+00  1.28831661E+00
 -6.84794034E+00 -8.20003500E-01  3.80299401E+00  1.28831661E+00  1.28831661E+00
  1.28831661E+00 -6.84794034E+00 -8.20003500E-01  3.80299401E+00  1.28831661E+00
  1.28831661E+00  1.28831661E+00 -6.84794034E+00 -8.20003500E-01  3.80299401E+00
  1.28831661E+00  1.28831661E+00  1.28831661E+00 -6.84794034E+00 -8.20003500E-01
  3.80299401E+00  1.28831661E+00  1.28831661E+00  1.28831661E+00 -6.84794034E+00
 -8.20003500E-01  3.80299401E+00  1.28831661E+00  1.28831661E+00  1.28831661E+00
 -6.84794034E+00 -8.20003500E-01  3.80299401E+00  1.28831661E+00  1.28831661E+00
  1.28831661E+00 -6.84794034E+00 -8.20003500E-01  3.80299401E+00  1.28831661E+00
  1.28831661E+00  1.28831661E+00 -6.84794034E+00 -8.20003500E-01  3.80299401E+00
  1.28831661E+00  1.28831661E+00  1.28831661E+00 -6.84794034E+00 -8.20003500E-01
  3.80299401E+00  1.28831661E+00  1.28831661E+00  1.28831661E+00 -6.84794034E+00
 -8.20003500E-01  3.80299401E+00  1.28831661E+00  1.28831661E+00  1.28831661E+00
 -6.84794034E+00 -8.20003500E-01  3.80299401E+00  1.28831661E+00  1.28831661E+00
  1.28831661E+00 -6.84794034E+00 -8.20003500E-01  3.80299401E+00  1.28831661E+00
  1.28831661E+00  1.28831661E+00 -6.84794034E+00 -8.20003500E-01  3.80299401E+00
  1.28831661E+00  1.28831661E+00  1.28831661E+00 -6.84794034E+00 -8.20003500E-01
  3.80299401E+00  1.28831661E+00  1.28831661E+00  1.28831661E+00 -6.84794034E+00
 -8.20003500E-01  3.80299401E+00  1.28831661E+00  1.28831661E+00  1.28831661E+00
 -6.84794034E+00 -8.20003500E-01  3.80299401E+00  1.28831661E+00  1.28831661E+00
  1.28831661E+00 -6.84794034E+00 -8.20003500E-01  3.80299401E+00  1.28831661E+00
  1.28831661E+00  1.28831661E+00 -6.84794034E+00 -8.20003500E-01  3.80299401E+00
  1.28831661E+00  1.28831661E+00  1.28831661E+00 -6.84794034E+00 -8.20003500E-01
  3.80299401E+00  1.28831661E+00  1.28831661E+00  1.28831661E+00 -6.84794034E+00
 -8.20003500E-01  3.80299401E+00  1.28831661E+00  1.28831661E+00  1.28831661E+00
 -6.84794034E+00 -8.20003500E-01  3.80299401E+00  1.28831661E+00  1.28831661E+00
  1.28831661E+00 -6.84794034E+00 -8.20003500E-01  3.80299401E+00  1.28831661E+00
  1.28831661E+00  1.28831661E+00 -6.84794034E+00 -8.20003500E-01  3.80299401E+00
  1.28831661E+00  1.28831661E+00  1.28831661E+00 -6.84794034E+00 -8.20003500E-01
  3.80299401E+00  1.28831661E+00  1.28831661E+00  1.28831661E+00 -6.84794034E+00
 -8.20003500E-01  3.80299401E+00  1.28831661E+00  1.28831661E+00  1.28831661E+00
 -6.84794034E+00 -8.20003500E-01  3.80299401E+00  1.28831661E+00  1.28831661E+00
  1.28831661E+00 -6.84794034E+00 -8.20003500E-01  3.80299401E+00  1.28831661E+00
  1.28831661E+00  1.28831661E+00 -6.84794034E+00 -8.20003500E-01  3.80299401E+00
  1.28831661E+00  1.28831661E+00  1.28831661E+00 -6.84794034E+00 -8.20003500E-01
  3.80299401E+00  1.28831661E+00  1.28831661E+00  1.28831661E+00 -6.84794034E+00
 -8.20003500E-01  3.80299401E+00  1.28831661E+00  1.28831661E+00  1.28831661E+00
 -6.84794034E+00 -8.20003500E-01  3.80299401E+00  1.28831661E+00  1.28831661E+00
  1.28831661E+00 -6.84794034E+00 -8.20003500E-01  3.80299401E+00  1.28831661E+00
  1.28831661E+00  1.28831661E+00 -6.84794034E+00 -8.20003500E-01  3.80299401E+00
  1.28831661E+00  1.28831661E+00  1.28831661E+00 -6.84794034E+00 -8.20003500E-01
  3.80299401E+00  1.28831661E+00  1.28831661E+00  1.28831661E+00 -6.84794034E+00
 -8.20003500E-01  3.80299401E+00  1.28831661E+00  1.28831661E+00  1.28831661E+00
 -6.84794034E+00 -8.20003500E-01  3.80299401E+00  1.28831661E+00  1.28831661E+00
  1.28831661E+00 -6.84794034E+00 -8.20003500E-01  3.80299401E+00  1.28831661E+00
  1.28831661E+00  1.28831661E+00 -6.84794034E+00 -8.20003500E-01  3.80299401E+00
  1.28831661E+00  1.28831661E+00  1.28831661E+00 -6.84794034E+00 -8.20003500E-01
  3.80299401E+00  1.28831661E+00  1.28831661E+00  1.28831661E+00 -6.84794034E+00
 -8.20003500E-01  3.80299401E+00  1.28831661E+00  1.28831661E+00  1.28831661E+00
 -6.84794034E+00 -8.20003500E-01  3.80299401E+00  1.28831661E+00  1.28831661E+00
  1.28831661E+00 -6.84794034E+00 -8.20003500E-01  3.80299401E+00  1.28831661E+00
  1.28831661E+00  1.28831661E+00 -6.84794034E+00 -8.20003500E-01  3.80299401E+00
  1.28831661E+00  1.28831661E+00  1.28831661E+00 -6.84794034E+00 -8.20003500E-01
  3.80299401E+00  1.28831661E+00  1.28831661E+00  1.28831661E+00 -6.84794034E+00
 -8.20003500E-01  3.80299401E+00  1.28831661E+00  1.28831661E+00  1.28831661E+00
 -6.84794034E+00 -8.20003500E-01  3.80299401E+00  1.28831661E+00  1.28831661E+00
  1.28831661E+00 -6.84794034E+00 -8.20003500E-01  3.80299401E+00  1.28831661E+00
  1.28831661E+00  1.28831661E+00 -6.84794034E+00 -8.20003500E-01  3.80299401E+00
  1.28831661E+00  1.28831661E+00  1.28831661E+00 -6.84794034E+00 -8.20003500E-01
  3.80299401E+00  1.28831661E+00  1.28831661E+00  1.28831661E+00 -6.84794034E+00
 -8.20003500E-01  3.80299401E+00  1.28831661E+00  1.28831661E+00  1.28831661E+00
 -6.84794034E+00 -8.20003500E-01  3.80299401E+00  1.28831661E+00  1.28831661E+00
  1.28831661E+00 -6.84794034E+00 -8.20003500E-01  3.80299401E+00  1.28831661E+00
  1.28831661E+00  1.28831661E+00 -6.84794034E+00 -8.20003500E-01  3.80299401E+00
  1.28831661E+00  1.28831661E+00  1.28831661E+00 -6.84794034E+00 -8.20003500E-01
  3.80299401E+00  1.28831661E+00  1.28831661E+00  1.28831661E+00 -6.84794034E+00
 -8.20003500E-01  3.80299401E+00  1.28831661E+00  1.28831661E+00  1.28831661E+00
 -6.84794034E+00 -8.20003500E-01  3.80299401E+00  1.28831661E+00  1.28831661E+00
  1.28831661E+00 -6.84794034E+00 -8.20003500E-01  3.80299401E+00  1.28831661E+00
  1.28831661E+00  1.28831661E+00 -6.84794034E+00 -8.20003500E-01  3.80299401E+00
  1.28831661E+00  1.28831661E+00  1.28831661E+00 -6.84794034E+00 -8.20003500E-01
  3.80299401E+00  1.28831661E+00  1.28831661E+00  1.28831661E+00 -6.84794034E+00
 -8.20003500E-01  3.80299401E+00  1.28831661E+00  1.28831661E+00  1.28831661E+00
 -6.84794034E+00 -8.20003500E-01  3.80299401E+00  1.28831661E+00  1.28831661E+00
  1.28831661E+00 -6.84794034E+00 -8.20003500E-01  3.80299401E+00  1.28831661E+00
  1.28831661E+00  1.28831661E+00 -6.84794034E+00 -8.20003500E-01  3.80299401E+00
  1.28831661E+00  1.28831661E+00  1.28831661E+00 -6.84794034E+00 -8.20003500E-01
  3.80299401E+00  1.28831661E+00  1.28831661E+00  1.28831661E+00 -6.84794034E+00
 -8.20003500E-01  3.80299401E+00  1.28831661E+00  1.28831661E+00  1.28831661E+00
 -6.84794034E+00 -8.20003500E-01  3.80299401E+00  1.28831661E+00  1.28831661E+00
  1.28831661E+00 -6.84794034E+00 -8.20003500E-01  3.80299401E+00  1.28831661E+00
  1.28831661E+00  1.28831661E+00 -6.84794034E+00 -8.20003500E-01  3.80299401E+00
  1.28831661E+00  1.28831661E+00  1.28831661E+00 -6.84794034E+00 -8.20003500E-01
  3.80299401E+00  1.28831661E+00  1.28831661E+00  1.28831661E+00 -6.84794034E+00
 -8.20003500E-01  3.80299401E+00  1.28831661E+00  1.28831661E+00  1.28831661E+00
 -6.84794034E+00 -8.20003500E-01  3.80299401E+00  1.28831661E+00  1.28831661E+00
  1.28831661E+00 -6.84794034E+00 -8.20003500E-01  3.80299401E+00  1.28831661E+00
  1.28831661E+00  1.28831661E+00 -6.84794034E+00 -8.20003500E-01  3.80299401E+00
  1.28831661E+00  1.28831661E+00  1.28831661E+00 -6.84794034E+00 -8.20003500E-01
  3.80299401E+00  1.28831661E+00  1.28831661E+00  1.28831661E+00 -6.84794034E+00
 -8.20003500E-01  3.80299401E+00  1.28831661E+00  1.28831661E+00  1.28831661E+00
 -6.84794034E+00 -8.20003500E-01  3.80299401E+00  1.28831661E+00  1.28831661E+00
  1.28831661E+00 -6.84794034E+00 -8.20003500E-01  3.80299401E+00  1.28831661E+00
  1.28831661E+00  1.28831661E+00 -6.84794034E+00 -8.20003500E-01  3.80299401E+00
  1.28831661E+00  1.28831661E+00  1.28831661E+00 -6.84794034E+00 -8.20003500E-01
  3.80299401E+00  1.28831661E+00  1.28831661E+00  1.28831661E+00 -6.84794034E+00
 -8.20003500E-01  3.80299401E+00  1.28831661E+00  1.28831661E+00  1.28831661E+00
 -6.84794034E+00 -8.20003500E-01  3.80299401E+00  1.28831661E+00  1.28831661E+00
  1.28831661E+00 -6.84794034E+00 -8.20003500E-01  3.80299401E+00  1.28831661E+00
  1.28831661E+00  1.28831661E+00 -6.84794034E+00 -8.20003500E-01  3.80299401E+00
  1.28831661E+00  1.28831661E+00  1.28831661E+00 -6.84794034E+00 -8.20003500E-01
  3.80299401E+00  1.28831661E+00  1.28831661E+00  1.28831661E+00 -6.84794034E+00
 -8.20003500E-01  3.80299401E+00  1.28831661E+00  1.28831661E+00  1.28831661E+00
 -6.84794034E+00 -8.20003500E-01  3.80299401E+00  1.28831661E+00  1.28831661E+00
  1.28831661E+00 -6.84794034E+00 -8.20003500E-01  3.80299401E+00  1.28831661E+00
  1.28831661E+00  1.28831661E+00 -6.84794034E+00 -8.20003500E-01  3.80299401E+00
  1.28831661E+00  1.28831661E+00  1.28831661E+00 -6.84794034E+00 -8.20003500E-01
  3.80299401E+00  1.28831661E+00  1.28831661E+00  1.28831661E+00 -6.84794034E+00
 -8.20003500E-01  3.80299401E+00  1.28831661E+00  1.28831661E+00  1.28831661E+00
 -6.84794034E+00 -8.20003500E-01  3.80299401E+00  1.28831661E+00  1.28831661E+00
  1.28831661E+00 -6.84794034E+00 -8.20003500E-01  3.80299401E+00  1.28831661E+00
  1.28831661E+00  1.28831661E+00 -6.84794034E+00 -8.20003500E-01  3.80299401E+00
  1.28831661E+00  1.28831661E+00  1.28831661E+00 -6.84794034E+00 -8.20003500E-01
  3.80299401E+00  1.28831661E+00  1.28831661E+00  1.28831661E+00 -6.84794034E+00
 -8.20003500E-01  3.80299401E+00  1.28831661E+00  1.28831661E+00  1.28831661E+00
 -6.84794034E+00 -8.20003500E-01  3.80299401E+00  1.28831661E+00  1.28831661E+00
  1.28831661E+00 -6.84794034E+00 -8.20003500E-01  3.80299401E+00  1.28831661E+00
  1.28831661E+00  1.28831661E+00 -6.84794034E+00 -8.20003500E-01  3.80299401E+00
  1.28831661E+00  1.28831661E+00  1.28831661E+00 -6.84794034E+00 -8.20003500E-01
  3.80299401E+00  1.28831661E+00  1.28831661E+00  1.28831661E+00 -6.84794034E+00
 -8.20003500E-01  3.80299401E+00  1.28831661E+00  1.28831661E+00  1.28831661E+00
 -6.84794034E+00 -8.20003500E-01  3.80299401E+00  1.28831661E+00  1.28831661E+00
  1.28831661E+00 -6.84794034E+00 -8.20003500E-01  3.80299401E+00  1.28831661E+00
  1.28831661E+00  1.28831661E+00 -6.84794034E+00 -8.20003500E-01  3.80299401E+00
  1.28831661E+00  1.28831661E+00  1.28831661E+00 -6.84794034E+00 -8.20003500E-01
  3.80299401E+00  1.28831661E+00  1.28831661E+00  1.28831661E+00 -6.84794034E+00
 -8.20003500E-01  3.80299401E+00  1.28831661E+00  1.28831661E+00  1.28831661E+00
 -6.84794034E+00 -8.20003500E-01  3.80299401E+00  1.28831661E+00  1.28831661E+00
  1.28831661E+00 -6.84794034E+00 -8.20003500E-01  3.80299401E+00  1.28831661E+00
  1.28831661E+00  1.28831661E+00 -6.84794034E+00 -8.20003500E-01  3.80299401E+00
  1.28831661E+00  1.28831661E+00  1.28831661E+00 -6.84794034E+00 -8.20003500E-01
  3.80299401E+00  1.28831661E+00  1.28831661E+00  1.28831661E+00 -6.84794034E+00
 -8.20003500E-01  3.80299401E+00  1.28831661E+00  1.28831661E+00  1.28831661E+00
 -6.84794034E+00 -8.20003500E-01  3.80299401E+00  1.28831661E+00  1.28831661E+00
  1.28831661E+00 -6.84794034E+00 -8.20003500E-01  3.80299401E+00  1.28831661E+00
  1.28831661E+00  1.28831661E+00 -6.84794034E+00 -8.20003500E-01  3.80299401E+00
  1.28831661E+00  1.28831661E+00  1.28831661E+00 -6.84794034E+00 -8.20003500E-01
  3.80299401E+00  1.28831661E+00  1.28831661E+00  1.28831661E+00 -6.84794034E+00
 -8.20003500E-01  3.80299401E+00  1.28831661E+00  1.28831661E+00  1.28831661E+00
 -6.84794034E+00 -8.20003500E-01  3.80299401E+00  1.28831661E+00  1.28831661E+00
  1.28831661E+00 -6.84794034E+00 -8.20003500E-01  3.80299401E+00  1.28831661E+00
  1.28831661E+00  1.28831661E+00 -6.84794034E+00 -8.20003500E-01  3.80299401E+00
  1.28831661E+00  1.28831661E+00  1.28831661E+00 -6.84794034E+00 -8.20003500E-01
  3.80299401E+00  1.28831661E+00  1.28831661E+00  1.28831661E+00 -6.84794034E+00
 -8.20003500E-01  3.80299401E+00  1.28831661E+00  1.28831661E+00  1.28831661E+00
 -6.84794034E+00 -8.20003500E-01  3.80299401E+00  1.28831661E+00  1.28831661E+00
  1.28831661E+00 -6.84794034E+00 -8.20003500E-01  3.80299401E+00  1.28831661E+00
  1.28831661E+00  1.28831661E+00 -6.84794034E+00 -8.20003500E-01  3.80299401E+00
  1.28831661E+00  1.28831661E+00  1.28831661E+00 -6.84794034E+00 -8.20003500E-01
  3.80299401E+00  1.28831661E+00  1.28831661E+00  1.28831661E+00 -6.84794034E+00
 -8.20003500E-01  3.80299401E+00  1.28831661E+00  1.28831661E+00  1.28831661E+00
 -6.84794034E+00 -8.20003500E-01  3.80299401E+00  1.28831661E+00  1.28831661E+00
  1.28831661E+00 -6.84794034E+00 -8.20003500E-01  3.80299401E+00  1.28831661E+00
  1.28831661E+00  1.28831661E+00 -6.84794034E+00 -8.20003500E-01  3.80299401E+00
  1.28831661E+00  1.28831661E+00  1.28831661E+00 -6.84794034E+00 -8.20003500E-01
  3.80299401E+00  1.28831661E+00  1.28831661E+00  1.28831661E+00 -6.84794034E+00
 -8.20003500E-01  3.80299401E+00  1.28831661E+00  1.28831661E+00  1.28831661E+00
 -6.84794034E+00 -8.20003500E-01  3.80299401E+00  1.28831661E+00  1.28831661E+00
  1.28831661E+00 -6.84794034E+00 -8.20003500E-01  3.80299401E+00  1.28831661E+00
  1.28831661E+00  1.28831661E+00 -6.84794034E+00 -8.20003500E-01  3.80299401E+00
  1.28831661E+00  1.28831661E+00  1.28831661E+00 -6.84794034E+00 -8.20003500E-01
  3.80299401E+00  1.28831661E+00  1.28831661E+00  1.28831661E+00 -6.84794034E+00
 -8.20003500E-01  3.80299401E+00  1.28831661E+00  1.28831661E+00  1.28831661E+00
 -6.84794034E+00 -8.20003500E-01  3.80299401E+00  1.28831661E+00  1.28831661E+00
  1.28831661E+00 -6.84794034E+00 -8.20003500E-01  3.80299401E+00  1.28831661E+00
  1.28831661E+00  1.28831661E+00 -6.84794034E+00 -8.20003500E-01  3.80299401E+00
  1.28831661E+00  1.28831661E+00  1.28831661E+00 -6.84794034E+00 -8.20003500E-01
  3.80299401E+00  1.28831661E+00  1.28831661E+00  1.28831661E+00 -6.84794034E+00
 -8.20003500E-01  3.80299401E+00  1.28831661E+00  1.28831661E+00  1.28831661E+00
 -6.84794034E+00 -8.20003500E-01  3.80299401E+00  1.28831661E+00  1.28831661E+00
  1.28831661E+00 -6.84794034E+00 -8.20003500E-01  3.80299401E+00  1.28831661E+00
  1.28831661E+00  1.28831661E+00 -6.84794034E+00 -8.20003500E-01  3.80299401E+00
  1.28831661E+00  1.28831661E+00  1.28831661E+00 -6.84794034E+00 -8.20003500E-01
  3.80299401E+00  1.28831661E+00  1.28831661E+00  1.28831661E+00 -6.84794034E+00
 -8.20003500E-01  3.80299401E+00  1.28831661E+00  1.28831661E+00  1.28831661E+00
 -6.84794034E+00 -8.20003500E-01  3.80299401E+00  1.28831661E+00  1.28831661E+00
  1.28831661E+00 -6.84794034E+00 -8.20003500E-01  3.80299401E+00  1.28831661E+00
  1.28831661E+00  1.28831661E+00 -6.84794034E+00 -8.20003500E-01  3.80299401E+00
  1.28831661E+00  1.28831661E+00  1.28831661E+00 -6.84794034E+00 -8.20003500E-01
  3.80299401E+00  1.28831661E+00  1.28831661E+00  1.28831661E+00 -6.84794034E+00
 -8.20003500E-01  3.80299401E+00  1.28831661E+00  1.28831661E+00  1.28831661E+00
 -6.84794034E+00 -8.20003500E-01  3.80299401E+00  1.28831661E+00  1.28831661E+00
  1.28831661E+00 -6.84794034E+00 -8.20003500E-01  3.80299401E+00  1.28831661E+00
  1.28831661E+00  1.28831661E+00 -6.84794034E+00 -8.20003500E-01  3.80299401E+00
  1.28831661E+00  1.28831661E+00  1.28831661E+00 -6.84794034E+00 -8.20003500E-01
  3.80299401E+00  1.28831661E+00  1.28831661E+00  1.28831661E+00 -6.84794034E+00
 -8.20003500E-01  3.80299401E+00  1.28831661E+00  1.28831661E+00  1.28831661E+00
 -6.84794034E+00 -8.20003500E-01  3.80299401E+00  1.28831661E+00  1.28831661E+00
  1.28831661E+00 -6.84794034E+00 -8.20003500E-01  3.80299401E+00  1.28831661E+00
  1.28831661E+00  1.28831661E+00 -6.84794034E+00 -8.20003500E-01  3.80299401E+00
  1.28831661E+00  1.28831661E+00  1.28831661E+00 -6.84794034E+00 -8.20003500E-01
  3.80299401E+00  1.28831661E+00  1.28831661E+00  1.28831661E+00 -6.84794034E+00
 -8.20003500E-01  3.80299401E+00  1.28831661E+00  1.28831661E+00  1.28831661E+00
 -6.84794034E+00 -8.20003500E-01  3.80299401E+00  1.28831661E+00  1.28831661E+00
  1.28831661E+00 -6.84794034E+00 -8.20003500E-01  3.80299401E+00  1.28831661E+00
  1.28831661E+00  1.28831661E+00 -6.84794034E+00 -8.20003500E-01  3.80299401E+00
  1.28831661E+00  1.28831661E+00  1.28831661E+00 -6.84794034E+00 -8.20003500E-01
  3.80299401E+00  1.28831661E+00  1.28831661E+00  1.28831661E+00 -6.84794034E+00
 -8.20003500E-01  3.80299401E+00  1.28831661E+00  1.28831661E+00  1.28831661E+00
 -6.84794034E+00 -8.20003500E-01  3.80299401E+00  1.28831661E+00  1.28831661E+00
  1.28831661E+00 -6.84794034E+00 -8.20003500E-01  3.80299401E+00  1.28831661E+00
  1.28831661E+00  1.28831661E+00 -6.84794034E+00 -8.20003500E-01  3.80299401E+00
  1.28831661E+00  1.28831661E+00  1.28831661E+00 -6.84794034E+00 -8.20003500E-01
  3.80299401E+00  1.28831661E+00  1.28831661E+00  1.28831661E+00 -6.84794034E+00
 -8.20003500E-01  3.80299401E+00  1.28831661E+00  1.28831661E+00  1.28831661E+00
 -6.84794034E+00 -8.20003500E-01  3.80299401E+00  1.28831661E+00  1.28831661E+00
  1.28831661E+00 -6.84794034E+00 -8.20003500E-01  3.80299401E+00  1.28831661E+00
  1.28831661E+00  1.28831661E+00 -6.84794034E+00 -8.20003500E-01  3.80299401E+00
  1.28831661E+00  1.28831661E+00  1.28831661E+00 -6.84794034E+00 -8.20003500E-01
  3.80299401E+00  1.28831661E+00  1.28831661E+00  1.28831661E+00 -6.84794034E+00
 -8.20003500E-01  3.80299401E+00  1.28831661E+00  1.28831661E+00  1.28831661E+00
 -6.84794034E+00 -8.20003500E-01  3.80299401E+00  1.28831661E+00  1.28831661E+00
  1.28831661E+00 -6.84794034E+00 -8.20003500E-01  3.80299401E+00  1.28831661E+00
  1.28831661E+00  1.28831661E+00 -6.84794034E+00 -8.20003500E-01  3.80299401E+00
  1.28831661E+00  1.28831661E+00  1.28831661E+00 -6.84794034E+00 -8.20003500E-01
  3.80299401E+00  1.28831661E+00  1.28831661E+00  1.28831661E+00 -6.84794034E+00
 -8.20003500E-01  3.80299401E+00  1.28831661E+00  1.28831661E+00  1.28831661E+00
 -6.84794034E+00 -8.20003500E-01  3.80299401E+00  1.28831661E+00  1.28831661E+00
  1.28831661E+00 -6.84794034E+00 -8.20003500E-01  3.80299401E+00  1.28831661E+00
  1.28831661E+00  1.28831661E+00 -6.84794034E+00 -8.20003500E-01  3.80299401E+00
  1.28831661E+00  1.28831661E+00  1.28831661E+00 -6.84794034E+00 -8.20003500E-01
  3.80299401E+00  1.28831661E+00  1.28831661E+00  1.28831661E+00 -6.84794034E+00
 -8.20003500E-01  3.80299401E+00  1.28831661E+00  1.28831661E+00  1.28831661E+00
 -6.84794034E+00 -8.20003500E-01  3.80299401E+00  1.28831661E+00  1.28831661E+00
  1.28831661E+00 -6.84794034E+00 -8.20003500E-01  3.80299401E+00  1.28831661E+00
  1.28831661E+00  1.28831661E+00 -6.84794034E+00 -8.20003500E-01  3.80299401E+00
  1.28831661E+00  1.28831661E+00  1.28831661E+00 -6.84794034E+00 -8.20003500E-01
  3.80299401E+00  1.28831661E+00  1.28831661E+00  1.28831661E+00 -6.84794034E+00
 -8.20003500E-01  3.80299401E+00  1.28831661E+00  1.28831661E+00  1.28831661E+00
 -6.84794034E+00 -8.20003500E-01  3.80299401E+00  1.28831661E+00  1.28831661E+00
  1.28831661E+00 -6.84794034E+00 -8.20003500E-01  3.80299401E+00  1.28831661E+00
  1.28831661E+00  1.28831661E+00 -6.84794034E+00 -8.20003500E-01  3.80299401E+00
  1.28831661E+00  1.28831661E+00  1.28831661E+00 -6.84794034E+00 -8.20003500E-01
  3.80299401E+00  1.28831661E+00  1.28831661E+00  1.28831661E+00 -6.84794034E+00
 -8.20003500E-01  3.80299401E+00  1.28831661E+00  1.28831661E+00  1.28831661E+00
 -6.84794034E+00 -8.20003500E-01  3.80299401E+00  1.28831661E+00  1.28831661E+00
  1.28831661E+00 -6.84794034E+00 -8.20003500E-01  3.80299401E+00  1.28831661E+00
  1.28831661E+00  1.28831661E+00 -6.84794034E+00 -8.20003500E-01  3.80299401E+00
  1.28831661E+00  1.28831661E+00  1.28831661E+00 -6.84794034E+00 -8.20003500E-01
  3.80299401E+00  1.28831661E+00  1.28831661E+00  1.28831661E+00 -6.84794034E+00
 -8.20003500E-01  3.80299401E+00  1.28831661E+00  1.28831661E+00  1.28831661E+00
 -6.84794034E+00 -8.20003500E-01  3.80299401E+00  1.28831661E+00  1.28831661E+00
  1.28831661E+00 -6.84794034E+00 -8.20003500E-01  3.80299401E+00  1.28831661E+00
  1.28831661E+00  1.28831661E+00 -6.84794034E+00 -8.20003500E-01  3.80299401E+00
  1.28831661E+00  1.28831661E+00  1.28831661E+00 -6.84794034E+00 -8.20003500E-01
  3.80299401E+00  1.28831661E+00  1.28831661E+00  1.28831661E+00 -6.84794034E+00
 -8.20003500E-01  3.80299401E+00  1.28831661E+00  1.28831661E+00  1.28831661E+00
 -6.84794034E+00 -8.20003500E-01  3.80299401E+00  1.28831661E+00  1.28831661E+00
  1.28831661E+00 -6.84794034E+00 -8.20003500E-01  3.80299401E+00  1.28831661E+00
  1.28831661E+00  1.28831661E+00 -6.84794034E+00 -8.20003500E-01  3.80299401E+00
  1.28831661E+00  1.28831661E+00  1.28831661E+00 -6.84794034E+00 -8.20003500E-01
  3.80299401E+00  1.28831661E+00  1.28831661E+00  1.28831661E+00 -6.84794034E+00
 -8.20003500E-01  3.80299401E+00  1.28831661E+00  1.28831661E+00  1.28831661E+00
 -6.84794034E+00 -8.20003500E-01  3.80299401E+00  1.28831661E+00  1.28831661E+00
  1.28831661E+00 -6.84794034E+00 -8.20003500E-01  3.80299401E+00  1.28831661E+00
  1.28831661E+00  1.28831661E+00 -6.84794034E+00 -8.20003500E-01  3.80299401E+00
  1.28831661E+00  1.28831661E+00  1.28831661E+00 -6.84794034E+00 -8.20003500E-01
  3.80299401E+00  1.28831661E+00  1.28831661E+00  1.28831661E+00 -6.84794034E+00
 -8.20003500E-01  3.80299401E+00  1.28831661E+00  1.28831661E+00  1.28831661E+00
 -6.84794034E+00 -8.20003500E-01  3.80299401E+00  1.28831661E+00  1.28831661E+00
  1.28831661E+00 -6.84794034E+00 -8.20003500E-01  3.80299401E+00  1.28831661E+00
  1.28831661E+00  1.28831661E+00 -6.84794034E+00 -8.20003500E-01  3.80299401E+00
  1.28831661E+00  1.28831661E+00  1.28831661E+00 -6.84794034E+00 -8.20003500E-01
  3.80299401E+00  1.28831661E+00  1.28831661E+00  1.28831661E+00 -6.84794034E+00
 -8.20003500E-01  3.80299401E+00  1.28831661E+00  1.28831661E+00  1.28831661E+00
 -6.84794034E+00 -8.20003500E-01  3.80299401E+00  1.28831661E+00  1.28831661E+00
  1.28831661E+00 -6.84794034E+00 -8.20003500E-01  3.80299401E+00  1.28831661E+00
  1.28831661E+00  1.28831661E+00 -6.84794034E+00 -8.20003500E-01  3.80299401E+00
  1.28831661E+00  1.28831661E+00  1.28831661E+00 -6.84794034E+00 -8.20003500E-01
  3.80299401E+00  1.28831661E+00  1.28831661E+00  1.28831661E+00 -6.84794034E+00
 -8.20003500E-01  3.80299401E+00  1.28831661E+00  1.28831661E+00  1.28831661E+00
 -6.84794034E+00 -8.20003500E-01  3.80299401E+00  1.28831661E+00  1.28831661E+00
  1.28831661E+00 -6.84794034E+00 -8.20003500E-01  3.80299401E+00  1.28831661E+00
  1.28831661E+00  1.28831661E+00 -6.84794034E+00 -8.20003500E-01  3.80299401E+00
  1.28831661E+00  1.28831661E+00  1.28831661E+00 -6.84794034E+00 -8.20003500E-01
  3.80299401E+00  1.28831661E+00  1.28831661E+00  1.28831661E+00 -6.84794034E+00
 -8.20003500E-01  3.80299401E+00  1.28831661E+00  1.28831661E+00  1.28831661E+00
 -6.84794034E+00 -8.20003500E-01  3.80299401E+00  1.28831661E+00  1.28831661E+00
  1.28831661E+00 -6.84794034E+00 -8.20003500E-01  3.80299401E+00  1.28831661E+00
  1.28831661E+00  1.28831661E+00 -6.84794034E+00 -8.20003500E-01  3.80299401E+00
  1.28831661E+00  1.28831661E+00  1.28831661E+00 -6.84794034E+00 -8.20003500E-01
  3.80299401E+00  1.28831661E+00  1.28831661E+00  1.28831661E+00 -6.84794034E+00
 -8.20003500E-01  3.80299401E+00  1.28831661E+00  1.28831661E+00  1.28831661E+00
 -6.84794034E+00 -8.20003500E-01  3.80299401E+00  1.28831661E+00  1.28831661E+00
  1.28831661E+00 -6.84794034E+00 -8.20003500E-01  3.80299401E+00  1.28831661E+00
  1.28831661E+00  1.28831661E+00 -6.84794034E+00 -8.20003500E-01  3.80299401E+00
  1.28831661E+00  1.28831661E+00  1.28831661E+00 -6.84794034E+00 -8.20003500E-01
  3.80299401E+00  1.28831661E+00  1.28831661E+00  1.28831661E+00 -6.84794034E+00
 -8.20003500E-01  3.80299401E+00  1.28831661E+00  1.28831661E+00  1.28831661E+00
 -6.84794034E+00 -8.20003500E-01  3.80299401E+00  1.28831661E+00  1.28831661E+00
  1.28831661E+00 -6.84794034E+00 -8.20003500E-01  3.80299401E+00  1.28831661E+00
  1.28831661E+00  1.28831661E+00 -6.84794034E+00 -8.20003500E-01  3.80299401E+00
  1.28831661E+00  1.28831661E+00  1.28831661E+00 -6.84794034E+00 -8.20003500E-01
  3.80299401E+00  1.28831661E+00  1.28831661E+00  1.28831661E+00 -6.84794034E+00
 -8.20003500E-01  3.80299401E+00  1.28831661E+00  1.28831661E+00  1.28831661E+00
 -6.84794034E+00 -8.20003500E-01  3.80299401E+00  1.28831661E+00  1.28831661E+00
  1.28831661E+00 -6.84794034E+00 -8.20003500E-01  3.80299401E+00  1.28831661E+00
  1.28831661E+00  1.28831661E+00 -6.84794034E+00 -8.20003500E-01  3.80299401E+00
  1.28831661E+00  1.28831661E+00  1.28831661E+00 -6.84794034E+00 -8.20003500E-01
  3.80299401E+00  1.28831661E+00  1.28831661E+00  1.28831661E+00 -6.84794034E+00
 -8.20003500E-01  3.80299401E+00  1.28831661E+00  1.28831661E+00  1.28831661E+00
 -6.84794034E+00 -8.20003500E-01  3.80299401E+00  1.28831661E+00  1.28831661E+00
  1.28831661E+00 -6.84794034E+00 -8.20003500E-01  3.80299401E+00  1.28831661E+00
  1.28831661E+00  1.28831661E+00 -6.84794034E+00 -8.20003500E-01  3.80299401E+00
  1.28831661E+00  1.28831661E+00  1.28831661E+00 -6.84794034E+00 -8.20003500E-01
  3.80299401E+00  1.28831661E+00  1.28831661E+00  1.28831661E+00 -6.84794034E+00
 -8.20003500E-01  3.80299401E+00  1.28831661E+00  1.28831661E+00  1.28831661E+00
 -6.84794034E+00 -8.20003500E-01  3.80299401E+00  1.28831661E+00  1.28831661E+00
  1.28831661E+00 -6.84794034E+00 -8.20003500E-01  3.80299401E+00  1.28831661E+00
  1.28831661E+00  1.28831661E+00 -6.84794034E+00 -8.20003500E-01  3.80299401E+00
  1.28831661E+00  1.28831661E+00  1.28831661E+00 -6.84794034E+00 -8.20003500E-01
  3.80299401E+00  1.28831661E+00  1.28831661E+00  1.28831661E+00 -6.84794034E+00
 -8.20003500E-01  3.80299401E+00  1.28831661E+00  1.28831661E+00  1.28831661E+00
 -6.84794034E+00 -8.20003500E-01  3.80299401E+00  1.28831661E+00  1.28831661E+00
  1.28831661E+00 -6.84794034E+00 -8.20003500E-01  3.80299401E+00  1.28831661E+00
  1.28831661E+00  1.28831661E+00 -6.84794034E+00 -8.20003500E-01  3.80299401E+00
  1.28831661E+00  1.28831661E+00  1.28831661E+00 -6.84794034E+00 -8.20003500E-01
  3.80299401E+00  1.28831661E+00  1.28831661E+00  1.28831661E+00 -6.84794034E+00
 -8.20003500E-01  3.80299401E+00  1.28831661E+00  1.28831661E+00  1.28831661E+00
 -6.84794034E+00 -8.20003500E-01  3.80299401E+00  1.28831661E+00  1.28831661E+00
  1.28831661E+00 -6.84794034E+00 -8.20003500E-01  3.80299401E+00  1.28831661E+00
  1.28831661E+00  1.28831661E+00 -6.84794034E+00 -8.20003500E-01  3.80299401E+00
  1.28831661E+00  1.28831661E+00  1.28831661E+00 -6.84794034E+00 -8.20003500E-01
  3.80299401E+00  1.28831661E+00  1.28831661E+00  1.28831661E+00 -6.84794034E+00
 -8.20003500E-01  3.80299401E+00  1.28831661E+00  1.28831661E+00  1.28831661E+00
 -6.84794034E+00 -8.20003500E-01  3.80299401E+00  1.28831661E+00  1.28831661E+00
  1.28831661E+00 -6.84794034E+00 -8.20003500E-01  3.80299401E+00  1.28831661E+00
  1.28831661E+00  1.28831661E+00 -6.84794034E+00 -8.20003500E-01  3.80299401E+00
  1.28831661E+00  1.28831661E+00  1.28831661E+00 -6.84794034E+00 -8.20003500E-01
  3.80299401E+00  1.28831661E+00  1.28831661E+00  1.28831661E+00 -6.84794034E+00
 -8.20003500E-01  3.80299401E+00  1.28831661E+00  1.28831661E+00  1.28831661E+00
 -6.84794034E+00 -8.20003500E-01  3.80299401E+00  1.28831661E+00  1.28831661E+00
  1.28831661E+00 -6.84794034E+00 -8.20003500E-01  3.80299401E+00  1.28831661E+00
  1.28831661E+00  1.28831661E+00 -6.84794034E+00 -8.20003500E-01  3.80299401E+00
  1.28831661E+00  1.28831661E+00  1.28831661E+00 -6.84794034E+00 -8.20003500E-01
  3.80299401E+00  1.28831661E+00  1.28831661E+00  1.28831661E+00 -6.84794034E+00
 -8.20003500E-01  3.80299401E+00  1.28831661E+00  1.28831661E+00  1.28831661E+00
 -6.84794034E+00 -8.20003500E-01  3.80299401E+00  1.28831661E+00  1.28831661E+00
  1.28831661E+00 -6.84794034E+00 -8.20003500E-01  3.80299401E+00  1.28831661E+00
  1.28831661E+00  1.28831661E+00 -6.84794034E+00 -8.20003500E-01  3.80299401E+00
  1.28831661E+00  1.28831661E+00  1.28831661E+00 -6.84794034E+00 -8.20003500E-01
  3.80299401E+00  1.28831661E+00  1.28831661E+00  1.28831661E+00 -6.84794034E+00
 -8.20003500E-01  3.80299401E+00  1.28831661E+00  1.28831661E+00  1.28831661E+00
 -6.84794034E+00 -8.20003500E-01  3.80299401E+00  1.28831661E+00  1.28831661E+00
  1.28831661E+00 -6.84794034E+00 -8.20003500E-01  3.80299401E+00  1.28831661E+00
  1.28831661E+00  1.28831661E+00 -6.84794034E+00 -8.20003500E-01  3.80299401E+00
  1.28831661E+00  1.28831661E+00  1.28831661E+00 -6.84794034E+00 -8.20003500E-01
  3.80299401E+00  1.28831661E+00  1.28831661E+00  1.28831661E+00 -6.84794034E+00
 -8.20003500E-01  3.80299401E+00  1.28831661E+00  1.28831661E+00  1.28831661E+00
 -6.84794034E+00 -8.20003500E-01  3.80299401E+00  1.28831661E+00  1.28831661E+00
  1.28831661E+00 -6.84794034E+00 -8.20003500E-01  3.80299401E+00  1.28831661E+00
  1.28831661E+00  1.28831661E+00 -6.84794034E+00 -8.20003500E-01  3.80299401E+00
  1.28831661E+00  1.28831661E+00  1.28831661E+00 -6.84794034E+00 -8.20003500E-01
  3.80299401E+00  1.28831661E+00  1.28831661E+00  1.28831661E+00 -6.84794034E+00
 -8.20003500E-01  3.80299401E+00  1.28831661E+00  1.28831661E+00  1.28831661E+00
 -6.84794034E+00 -8.20003500E-01  3.80299401E+00  1.28831661E+00  1.28831661E+00
  1.28831661E+00 -6.84794034E+00 -8.20003500E-01  3.80299401E+00  1.28831661E+00
  1.28831661E+00  1.28831661E+00 -6.84794034E+00 -8.20003500E-01  3.80299401E+00
  1.28831661E+00  1.28831661E+00  1.28831661E+00 -6.84794034E+00 -8.20003500E-01
  3.80299401E+00  1.28831661E+00  1.28831661E+00  1.28831661E+00 -6.84794034E+00
 -8.20003500E-01  3.80299401E+00  1.28831661E+00  1.28831661E+00  1.28831661E+00
 -6.84794034E+00 -8.20003500E-01  3.80299401E+00  1.28831661E+00  1.28831661E+00
  1.28831661E+00 -6.84794034E+00 -8.20003500E-01  3.80299401E+00  1.28831661E+00
  1.28831661E+00  1.28831661E+00 -6.84794034E+00 -8.20003500E-01  3.80299401E+00
  1.28831661E+00  1.28831661E+00  1.28831661E+00 -6.84794034E+00 -8.20003500E-01
  3.80299401E+00  1.28831661E+00  1.28831661E+00  1.28831661E+00 -6.84794034E+00
 -8.20003500E-01  3.80299401E+00  1.28831661E+00  1.28831661E+00  1.28831661E+00
 -6.84794034E+00 -8.20003500E-01  3.80299401E+00  1.28831661E+00  1.28831661E+00
  1.28831661E+00 -6.84794034E+00 -8.20003500E-01  3.80299401E+00  1.28831661E+00
  1.28831661E+00  1.28831661E+00 -6.84794034E+00 -8.20003500E-01  3.80299401E+00
  1.28831661E+00  1.28831661E+00  1.28831661E+00 -6.84794034E+00 -8.20003500E-01
  3.80299401E+00  1.28831661E+00  1.28831661E+00  1.28831661E+00 -6.84794034E+00
 -8.20003500E-01  3.80299401E+00  1.28831661E+00  1.28831661E+00  1.28831661E+00
 -6.84794034E+00 -8.20003500E-01  3.80299401E+00  1.28831661E+00  1.28831661E+00
  1.28831661E+00 -6.84794034E+00 -8.20003500E-01  3.80299401E+00  1.28831661E+00
  1.28831661E+00  1.28831661E+00 -6.84794034E+00 -8.20003500E-01  3.80299401E+00
  1.28831661E+00  1.28831661E+00  1.28831661E+00 -6.84794034E+00 -8.20003500E-01
  3.80299401E+00  1.28831661E+00  1.28831661E+00  1.28831661E+00 -6.84794034E+00
 -8.20003500E-01  3.80299401E+00  1.28831661E+00  1.28831661E+00  1.28831661E+00
 -6.84794034E+00 -8.20003500E-01  3.80299401E+00  1.28831661E+00  1.28831661E+00
  1.28831661E+00 -6.84794034E+00 -8.20003500E-01  3.80299401E+00  1.28831661E+00
  1.28831661E+00  1.28831661E+00 -6.84794034E+00 -8.20003500E-01  3.80299401E+00
  1.28831661E+00  1.28831661E+00  1.28831661E+00 -6.84794034E+00 -8.20003500E-01
  3.80299401E+00  1.28831661E+00  1.28831661E+00  1.28831661E+00 -6.84794034E+00
 -8.20003500E-01  3.80299401E+00  1.28831661E+00  1.28831661E+00  1.28831661E+00
 -6.84794034E+00 -8.20003500E-01  3.80299401E+00  1.28831661E+00  1.28831661E+00
  1.28831661E+00 -6.84794034E+00 -8.20003500E-01  3.80299401E+00  1.28831661E+00
  1.28831661E+00  1.28831661E+00 -6.84794034E+00 -8.20003500E-01  3.80299401E+00
  1.28831661E+00  1.28831661E+00  1.28831661E+00 -6.84794034E+00 -8.20003500E-01
  3.80299401E+00  1.28831661E+00  1.28831661E+00  1.28831661E+00 -6.84794034E+00
 -8.20003500E-01  3.80299401E+00  1.28831661E+00  1.28831661E+00  1.28831661E+00
 -6.84794034E+00 -8.20003500E-01  3.80299401E+00  1.28831661E+00  1.28831661E+00
  1.28831661E+00 -6.84794034E+00 -8.20003500E-01  3.80299401E+00  1.28831661E+00
  1.28831661E+00  1.28831661E+00 -6.84794034E+00 -8.20003500E-01  3.80299401E+00
  1.28831661E+00  1.28831661E+00  1.28831661E+00 -6.84794034E+00 -8.20003500E-01
  3.80299401E+00  1.28831661E+00  1.28831661E+00  1.28831661E+00 -6.84794034E+00
 -8.20003500E-01  3.80299401E+00  1.28831661E+00  1.28831661E+00  1.28831661E+00
 -6.84794034E+00 -8.20003500E-01  3.80299401E+00  1.28831661E+00  1.28831661E+00
  1.28831661E+00 -6.84794034E+00 -8.20003500E-01  3.80299401E+00  1.28831661E+00
  1.28831661E+00  1.28831661E+00 -6.84794034E+00 -8.20003500E-01  3.80299401E+00
  1.28831661E+00  1.28831661E+00  1.28831661E+00 -6.84794034E+00 -8.20003500E-01
  3.80299401E+00  1.28831661E+00  1.28831661E+00  1.28831661E+00 -6.84794034E+00
 -8.20003500E-01  3.80299401E+00  1.28831661E+00  1.28831661E+00  1.28831661E+00
 -6.84794034E+00 -8.20003500E-01  3.80299401E+00  1.28831661E+00  1.28831661E+00
  1.28831661E+00 -6.84794034E+00 -8.20003500E-01  3.80299401E+00  1.28831661E+00
  1.28831661E+00  1.28831661E+00 -6.84794034E+00 -8.20003500E-01  3.80299401E+00
  1.28831661E+00  1.28831661E+00  1.28831661E+00 -6.84794034E+00 -8.20003500E-01
  3.80299401E+00  1.28831661E+00  1.28831661E+00  1.28831661E+00 -6.84794034E+00
 -8.20003500E-01  3.80299401E+00  1.28831661E+00  1.28831661E+00  1.28831661E+00
 -6.84794034E+00 -8.20003500E-01  3.80299401E+00  1.28831661E+00  1.28831661E+00
  1.28831661E+00 -6.84794034E+00 -8.20003500E-01  3.80299401E+00  1.28831661E+00
  1.28831661E+00  1.28831661E+00 -6.84794034E+00 -8.20003500E-01  3.80299401E+00
  1.28831661E+00  1.28831661E+00  1.28831661E+00 -6.84794034E+00 -8.20003500E-01
  3.80299401E+00  1.28831661E+00  1.28831661E+00  1.28831661E+00 -6.84794034E+00
 -8.20003500E-01  3.80299401E+00  1.28831661E+00  1.28831661E+00  1.28831661E+00
 -6.84794034E+00 -8.20003500E-01  3.80299401E+00  1.28831661E+00  1.28831661E+00
  1.28831661E+00 -6.84794034E+00 -8.20003500E-01  3.80299401E+00  1.28831661E+00
  1.28831661E+00  1.28831661E+00 -6.84794034E+00 -8.20003500E-01  3.80299401E+00
  1.28831661E+00  1.28831661E+00  1.28831661E+00 -6.84794034E+00 -8.20003500E-01
  3.80299401E+00  1.28831661E+00  1.28831661E+00  1.28831661E+00 -6.84794034E+00
 -8.20003500E-01  3.80299401E+00  1.28831661E+00  1.28831661E+00  1.28831661E+00
 -6.84794034E+00 -8.20003500E-01  3.80299401E+00  1.28831661E+00  1.28831661E+00
  1.28831661E+00 -6.84794034E+00 -8.20003500E-01  3.80299401E+00  1.28831661E+00
  1.28831661E+00  1.28831661E+00 -6.84794034E+00 -8.20003500E-01  3.80299401E+00
  1.28831661E+00  1.28831661E+00  1.28831661E+00 -6.84794034E+00 -8.20003500E-01
  3.80299401E+00  1.28831661E+00  1.28831661E+00  1.28831661E+00 -6.84794034E+00
 -8.20003500E-01  3.80299401E+00  1.28831661E+00  1.28831661E+00  1.28831661E+00
 -6.84794034E+00 -8.20003500E-01  3.80299401E+00  1.28831661E+00  1.28831661E+00
  1.28831661E+00 -6.84794034E+00 -8.20003500E-01  3.80299401E+00  1.28831661E+00
  1.28831661E+00  1.28831661E+00 -6.84794034E+00 -8.20003500E-01  3.80299401E+00
  1.28831661E+00  1.28831661E+00  1.28831661E+00 -6.84794034E+00 -8.20003500E-01
  3.80299401E+00  1.28831661E+00  1.28831661E+00  1.28831661E+00 -6.84794034E+00
 -8.20003500E-01  3.80299401E+00  1.28831661E+00  1.28831661E+00  1.28831661E+00
 -6.84794034E+00 -8.20003500E-01  3.80299401E+00  1.28831661E+00  1.28831661E+00
  1.28831661E+00 -6.84794034E+00 -8.20003500E-01  3.80299401E+00  1.28831661E+00
  1.28831661E+00  1.28831661E+00 -6.84794034E+00 -8.20003500E-01  3.80299401E+00
  1.28831661E+00  1.28831661E+00  1.28831661E+00 -6.84794034E+00 -8.20003500E-01
  3.80299401E+00  1.28831661E+00  1.28831661E+00  1.28831661E+00 -6.84794034E+00
 -8.20003500E-01  3.80299401E+00  1.28831661E+00  1.28831661E+00  1.28831661E+00
 -6.84794034E+00 -8.20003500E-01  3.80299401E+00  1.28831661E+00  1.28831661E+00
  1.28831661E+00 -6.84794034E+00 -8.20003500E-01  3.80299401E+00  1.28831661E+00
  1.28831661E+00  1.28831661E+00 -6.84794034E+00 -8.20003500E-01  3.80299401E+00
  1.28831661E+00  1.28831661E+00  1.28831661E+00 -6.84794034E+00 -8.20003500E-01
  3.80299401E+00  1.28831661E+00  1.28831661E+00  1.28831661E+00 -6.84794034E+00
 -8.20003500E-01  3.80299401E+00  1.28831661E+00  1.28831661E+00  1.28831661E+00
 -6.84794034E+00 -8.20003500E-01  3.80299401E+00  1.28831661E+00  1.28831661E+00
  1.28831661E+00 -6.84794034E+00 -8.20003500E-01  3.80299401E+00  1.28831661E+00
  1.28831661E+00  1.28831661E+00 -6.84794034E+00 -8.20003500E-01  3.80299401E+00
  1.28831661E+00  1.28831661E+00  1.28831661E+00 -6.84794034E+00 -8.20003500E-01
  3.80299401E+00  1.28831661E+00  1.28831661E+00  1.28831661E+00 -6.84794034E+00
 -8.20003500E-01  3.80299401E+00  1.28831661E+00  1.28831661E+00  1.28831661E+00
 -6.84794034E+00 -8.20003500E-01  3.80299401E+00  1.28831661E+00  1.28831661E+00
  1.28831661E+00 -6.84794034E+00 -8.20003500E-01  3.80299401E+00  1.28831661E+00
  1.28831661E+00  1.28831661E+00 -6.84794034E+00 -8.20003500E-01  3.80299401E+00
  1.28831661E+00  1.28831661E+00  1.28831661E+00 -6.84794034E+00 -8.20003500E-01
  3.80299401E+00  1.28831661E+00  1.28831661E+00  1.28831661E+00 -6.84794034E+00
 -8.20003500E-01  3.80299401E+00  1.28831661E+00  1.28831661E+00  1.28831661E+00
 -6.84794034E+00 -8.20003500E-01  3.80299401E+00  1.28831661E+00  1.28831661E+00
  1.28831661E+00 -6.84794034E+00 -8.20003500E-01  3.80299401E+00  1.28831661E+00
  1.28831661E+00  1.28831661E+00 -6.84794034E+00 -8.20003500E-01  3.80299401E+00
  1.28831661E+00  1.28831661E+00  1.28831661E+00 -6.84794034E+00 -8.20003500E-01
  3.80299401E+00  1.28831661E+00  1.28831661E+00  1.28831661E+00 -6.84794034E+00
 -8.20003500E-01  3.80299401E+00  1.28831661E+00  1.28831661E+00  1.28831661E+00
 -6.84794034E+00 -8.20003500E-01  3.80299401E+00  1.28831661E+00  1.28831661E+00
  1.28831661E+00 -6.84794034E+00 -8.20003500E-01  3.80299401E+00  1.28831661E+00
  1.28831661E+00  1.28831661E+00 -6.84794034E+00 -8.20003500E-01  3.80299401E+00
  1.28831661E+00  1.28831661E+00  1.28831661E+00 -6.84794034E+00 -8.20003500E-01
  3.80299401E+00  1.28831661E+00  1.28831661E+00  1.28831661E+00 -6.84794034E+00
 -8.20003500E-01  3.80299401E+00  1.28831661E+00  1.28831661E+00  1.28831661E+00
 -6.84794034E+00 -8.20003500E-01  3.80299401E+00  1.28831661E+00  1.28831661E+00
  1.28831661E+00 -6.84794034E+00 -8.20003500E-01  3.80299401E+00  1.28831661E+00
  1.28831661E+00  1.28831661E+00 -6.84794034E+00 -8.20003500E-01  3.80299401E+00
  1.28831661E+00  1.28831661E+00  1.28831661E+00 -6.84794034E+00 -8.20003500E-01
  3.80299401E+00  1.28831661E+00  1.28831661E+00  1.28831661E+00 -6.84794034E+00
 -8.20003500E-01  3.80299401E+00  1.28831661E+00  1.28831661E+00  1.28831661E+00
 -6.84794034E+00 -8.20003500E-01  3.80299401E+00  1.28831661E+00  1.28831661E+00
  1.28831661E+00 -6.84794034E+00 -8.20003500E-01  3.80299401E+00  1.28831661E+00
  1.28831661E+00  1.28831661E+00 -6.84794034E+00 -8.20003500E-01  3.80299401E+00
  1.28831661E+00  1.28831661E+00  1.28831661E+00 -6.84794034E+00 -8.20003500E-01
  3.80299401E+00  1.28831661E+00  1.28831661E+00  1.28831661E+00 -6.84794034E+00
 -8.20003500E-01  3.80299401E+00  1.28831661E+00  1.28831661E+00  1.28831661E+00
 -6.84794034E+00 -8.20003500E-01  3.80299401E+00  1.28831661E+00  1.28831661E+00
  1.28831661E+00 -6.84794034E+00 -8.20003500E-01  3.80299401E+00  1.28831661E+00
  1.28831661E+00  1.28831661E+00 -6.84794034E+00 -8.20003500E-01  3.80299401E+00
  1.28831661E+00  1.28831661E+00  1.28831661E+00 -6.84794034E+00 -8.20003500E-01
  3.80299401E+00  1.28831661E+00  1.28831661E+00  1.28831661E+00 -6.84794034E+00
 -8.20003500E-01  3.80299401E+00  1.28831661E+00  1.28831661E+00  1.28831661E+00
 -6.84794034E+00 -8.20003500E-01  3.80299401E+00  1.28831661E+00  1.28831661E+00
  1.28831661E+00 -6.84794034E+00 -8.20003500E-01  3.80299401E+00  1.28831661E+00
  1.28831661E+00  1.28831661E+00 -6.84794034E+00 -8.20003500E-01  3.80299401E+00
  1.28831661E+00  1.28831661E+00  1.28831661E+00 -6.84794034E+00 -8.20003500E-01
  3.80299401E+00  1.28831661E+00  1.28831661E+00  1.28831661E+00 -6.84794034E+00
 -8.20003500E-01  3.80299401E+00  1.28831661E+00  1.28831661E+00  1.28831661E+00
 -6.84794034E+00 -8.20003500E-01  3.80299401E+00  1.28831661E+00  1.28831661E+00
  1.28831661E+00 -6.84794034E+00 -8.20003500E-01  3.80299401E+00  1.28831661E+00
  1.28831661E+00  1.28831661E+00 -6.84794034E+00 -8.20003500E-01  3.80299401E+00
  1.28831661E+00  1.28831661E+00  1.28831661E+00 -6.84794034E+00 -8.20003500E-01
  3.80299401E+00  1.28831661E+00  1.28831661E+00  1.28831661E+00 -6.84794034E+00
 -8.20003500E-01  3.80299401E+00  1.28831661E+00  1.28831661E+00  1.28831661E+00
 -6.84794034E+00 -8.20003500E-01  3.80299401E+00  1.28831661E+00  1.28831661E+00
  1.28831661E+00 -6.84794034E+00 -8.20003500E-01  3.80299401E+00  1.28831661E+00
  1.28831661E+00  1.28831661E+00 -6.84794034E+00 -8.20003500E-01  3.80299401E+00
  1.28831661E+00  1.28831661E+00  1.28831661E+00 -6.84794034E+00 -8.20003500E-01
  3.80299401E+00  1.28831661E+00  1.28831661E+00  1.28831661E+00 -6.84794034E+00
 -8.20003500E-01  3.80299401E+00  1.28831661E+00  1.28831661E+00  1.28831661E+00
 -6.84794034E+00 -8.20003500E-01  3.80299401E+00  1.28831661E+00  1.28831661E+00
  1.28831661E+00 -6.84794034E+00 -8.20003500E-01  3.80299401E+00  1.28831661E+00
  1.28831661E+00  1.28831661E+00 -6.84794034E+00 -8.20003500E-01  3.80299401E+00
  1.28831661E+00  1.28831661E+00  1.28831661E+00 -6.84794034E+00 -8.20003500E-01
  3.80299401E+00  1.28831661E+00  1.28831661E+00  1.28831661E+00 -6.84794034E+00
 -8.20003500E-01  3.80299401E+00  1.28831661E+00  1.28831661E+00  1.28831661E+00
 -6.84794034E+00 -8.20003500E-01  3.80299401E+00  1.28831661E+00  1.28831661E+00
  1.28831661E+00 -6.84794034E+00 -8.20003500E-01  3.80299401E+00  1.28831661E+00
  1.28831661E+00  1.28831661E+00 -6.84794034E+00 -8.20003500E-01  3.80299401E+00
  1.28831661E+00  1.28831661E+00  1.28831661E+00 -6.84794034E+00 -8.20003500E-01
  3.80299401E+00  1.28831661E+00  1.28831661E+00  1.28831661E+00 -6.84794034E+00
 -8.20003500E-01  3.80299401E+00  1.28831661E+00  1.28831661E+00  1.28831661E+00
 -6.84794034E+00 -8.20003500E-01  3.80299401E+00  1.28831661E+00  1.28831661E+00
  1.28831661E+00 -6.84794034E+00 -8.20003500E-01  3.80299401E+00  1.28831661E+00
  1.28831661E+00  1.28831661E+00 -6.84794034E+00 -8.20003500E-01  3.80299401E+00
  1.28831661E+00  1.28831661E+00  1.28831661E+00 -6.84794034E+00 -8.20003500E-01
  3.80299401E+00  1.28831661E+00  1.28831661E+00  1.28831661E+00 -6.84794034E+00
 -8.20003500E-01  3.80299401E+00  1.28831661E+00  1.28831661E+00  1.28831661E+00
 -6.84794034E+00 -8.20003500E-01  3.80299401E+00  1.28831661E+00  1.28831661E+00
  1.28831661E+00 -6.84794034E+00 -8.20003500E-01  3.80299401E+00  1.28831661E+00
  1.28831661E+00  1.28831661E+00 -6.84794034E+00 -8.20003500E-01  3.80299401E+00
  1.28831661E+00  1.28831661E+00  1.28831661E+00 -6.84794034E+00 -8.20003500E-01
  3.80299401E+00  1.28831661E+00  1.28831661E+00  1.28831661E+00 -6.84794034E+00
 -8.20003500E-01  3.80299401E+00  1.28831661E+00  1.28831661E+00  1.28831661E+00
 -6.84794034E+00 -8.20003500E-01  3.80299401E+00  1.28831661E+00  1.28831661E+00
  1.28831661E+00 -6.84794034E+00 -8.20003500E-01  3.80299401E+00  1.28831661E+00
  1.28831661E+00  1.28831661E+00 -6.84794034E+00 -8.20003500E-01  3.80299401E+00
  1.28831661E+00  1.28831661E+00  1.28831661E+00 -6.84794034E+00 -8.20003500E-01
  3.80299401E+00  1.28831661E+00  1.28831661E+00  1.28831661E+00 -6.84794034E+00
 -8.20003500E-01  3.80299401E+00  1.28831661E+00  1.28831661E+00  1.28831661E+00
 -6.84794034E+00 -8.20003500E-01  3.80299401E+00  1.28831661E+00  1.28831661E+00
  1.28831661E+00 -6.84794034E+00 -8.20003500E-01  3.80299401E+00  1.28831661E+00
  1.28831661E+00  1.28831661E+00 -6.84794034E+00 -8.20003500E-01  3.80299401E+00
  1.28831661E+00  1.28831661E+00  1.28831661E+00 -6.84794034E+00 -8.20003500E-01
  3.80299401E+00  1.28831661E+00  1.28831661E+00  1.28831661E+00 -6.84794034E+00
 -8.20003500E-01  3.80299401E+00  1.28831661E+00  1.28831661E+00  1.28831661E+00
 -6.84794034E+00 -8.20003500E-01  3.80299401E+00  1.28831661E+00  1.28831661E+00
  1.28831661E+00 -6.84794034E+00 -8.20003500E-01  3.80299401E+00  1.28831661E+00
  1.28831661E+00  1.28831661E+00 -6.84794034E+00 -8.20003500E-01  3.80299401E+00
  1.28831661E+00  1.28831661E+00  1.28831661E+00 -6.84794034E+00 -8.20003500E-01
  3.80299401E+00  1.28831661E+00  1.28831661E+00  1.28831661E+00 -6.84794034E+00
 -8.20003500E-01  3.80299401E+00  1.28831661E+00  1.28831661E+00  1.28831661E+00
 -6.84794034E+00 -8.20003500E-01  3.80299401E+00  1.28831661E+00  1.28831661E+00
  1.28831661E+00 -6.84794034E+00 -8.20003500E-01  3.80299401E+00  1.28831661E+00
  1.28831661E+00  1.28831661E+00 -6.84794034E+00 -8.20003500E-01  3.80299401E+00
  1.28831661E+00  1.28831661E+00  1.28831661E+00 -6.84794034E+00 -8.20003500E-01
  3.80299401E+00  1.28831661E+00  1.28831661E+00  1.28831661E+00 -6.84794034E+00
 -8.20003500E-01  3.80299401E+00  1.28831661E+00  1.28831661E+00  1.28831661E+00
 -6.84794034E+00 -8.20003500E-01  3.80299401E+00  1.28831661E+00  1.28831661E+00
  1.28831661E+00 -6.84794034E+00 -8.20003500E-01  3.80299401E+00  1.28831661E+00
  1.28831661E+00  1.28831661E+00 -6.84794034E+00 -8.20003500E-01  3.80299401E+00
  1.28831661E+00  1.28831661E+00  1.28831661E+00 -6.84794034E+00 -8.20003500E-01
  3.80299401E+00  1.28831661E+00  1.28831661E+00  1.28831661E+00 -6.84794034E+00
 -8.20003500E-01  3.80299401E+00  1.28831661E+00  1.28831661E+00  1.28831661E+00
 -6.84794034E+00 -8.20003500E-01  3.80299401E+00  1.28831661E+00  1.28831661E+00
  1.28831661E+00 -6.84794034E+00 -8.20003500E-01  3.80299401E+00  1.28831661E+00
  1.28831661E+00  1.28831661E+00 -6.84794034E+00 -8.20003500E-01  3.80299401E+00
  1.28831661E+00  1.28831661E+00  1.28831661E+00 -6.84794034E+00 -8.20003500E-01
  3.80299401E+00  1.28831661E+00  1.28831661E+00  1.28831661E+00 -6.84794034E+00
 -8.20003500E-01  3.80299401E+00  1.28831661E+00  1.28831661E+00  1.28831661E+00
 -6.84794034E+00 -8.20003500E-01  3.80299401E+00  1.28831661E+00  1.28831661E+00
  1.28831661E+00 -6.84794034E+00 -8.20003500E-01  3.80299401E+00  1.28831661E+00
  1.28831661E+00  1.28831661E+00 -6.84794034E+00 -8.20003500E-01  3.80299401E+00
  1.28831661E+00  1.28831661E+00  1.28831661E+00 -6.84794034E+00 -8.20003500E-01
  3.80299401E+00  1.28831661E+00  1.28831661E+00  1.28831661E+00 -6.84794034E+00
 -8.20003500E-01  3.80299401E+00  1.28831661E+00  1.28831661E+00  1.28831661E+00
 -6.84794034E+00 -8.20003500E-01  3.80299401E+00  1.28831661E+00  1.28831661E+00
  1.28831661E+00 -6.84794034E+00 -8.20003500E-01  3.80299401E+00  1.28831661E+00
  1.28831661E+00  1.28831661E+00 -6.84794034E+00 -8.20003500E-01  3.80299401E+00
  1.28831661E+00  1.28831661E+00  1.28831661E+00 -6.84794034E+00 -8.20003500E-01
  3.80299401E+00  1.28831661E+00  1.28831661E+00  1.28831661E+00 -6.84794034E+00
 -8.20003500E-01  3.80299401E+00  1.28831661E+00  1.28831661E+00  1.28831661E+00
 -6.84794034E+00 -8.20003500E-01  3.80299401E+00  1.28831661E+00  1.28831661E+00
  1.28831661E+00 -6.84794034E+00 -8.20003500E-01  3.80299401E+00  1.28831661E+00
  1.28831661E+00  1.28831661E+00 -6.84794034E+00 -8.20003500E-01  3.80299401E+00
  1.28831661E+00  1.28831661E+00  1.28831661E+00 -6.84794034E+00 -8.20003500E-01
  3.80299401E+00  1.28831661E+00  1.28831661E+00  1.28831661E+00 -6.84794034E+00
 -8.20003500E-01  3.80299401E+00  1.28831661E+00  1.28831661E+00  1.28831661E+00
 -6.84794034E+00 -8.20003500E-01  3.80299401E+00  1.28831661E+00  1.28831661E+00
  1.28831661E+00 -6.84794034E+00 -8.20003500E-01  3.80299401E+00  1.28831661E+00
  1.28831661E+00  1.28831661E+00 -6.84794034E+00 -8.20003500E-01  3.80299401E+00
  1.28831661E+00  1.28831661E+00  1.28831661E+00 -6.84794034E+00 -8.20003500E-01
  3.80299401E+00  1.28831661E+00  1.28831661E+00  1.28831661E+00 -6.84794034E+00
 -8.20003500E-01  3.80299401E+00  1.28831661E+00  1.28831661E+00  1.28831661E+00
 -6.84794034E+00 -8.20003500E-01  3.80299401E+00  1.28831661E+00  1.28831661E+00
  1.28831661E+00 -6.84794034E+00 -8.20003500E-01  3.80299401E+00  1.28831661E+00
  1.28831661E+00  1.28831661E+00 -6.84794034E+00 -8.20003500E-01  3.80299401E+00
  1.28831661E+00  1.28831661E+00  1.28831661E+00 -6.84794034E+00 -8.20003500E-01
  3.80299401E+00  1.28831661E+00  1.28831661E+00  1.28831661E+00 -6.84794034E+00
 -8.20003500E-01  3.80299401E+00  1.28831661E+00  1.28831661E+00  1.28831661E+00
 -6.84794034E+00 -8.20003500E-01  3.80299401E+00  1.28831661E+00  1.28831661E+00
  1.28831661E+00 -6.84794034E+00 -8.20003500E-01  3.80299401E+00  1.28831661E+00
  1.28831661E+00  1.28831661E+00 -6.84794034E+00 -8.20003500E-01  3.80299401E+00
  1.28831661E+00  1.28831661E+00  1.28831661E+00 -6.84794034E+00 -8.20003500E-01
  3.80299401E+00  1.28831661E+00  1.28831661E+00  1.28831661E+00 -6.84794034E+00
 -8.20003500E-01  3.80299401E+00  1.28831661E+00  1.28831661E+00  1.28831661E+00
 -6.84794034E+00 -8.20003500E-01  3.80299401E+00  1.28831661E+00  1.28831661E+00
  1.28831661E+00 -6.84794034E+00 -8.20003500E-01  3.80299401E+00  1.28831661E+00
  1.28831661E+00  1.28831661E+00 -6.84794034E+00 -8.20003500E-01  3.80299401E+00
  1.28831661E+00  1.28831661E+00  1.28831661E+00 -6.84794034E+00 -8.20003500E-01
  3.80299401E+00  1.28831661E+00  1.28831661E+00  1.28831661E+00 -6.84794034E+00
 -8.20003500E-01  3.80299401E+00  1.28831661E+00  1.28831661E+00  1.28831661E+00
 -6.84794034E+00 -8.20003500E-01  3.80299401E+00  1.28831661E+00  1.28831661E+00
  1.28831661E+00 -6.84794034E+00 -8.20003500E-01  3.80299401E+00  1.28831661E+00
  1.28831661E+00  1.28831661E+00 -6.84794034E+00 -8.20003500E-01  3.80299401E+00
  1.28831661E+00  1.28831661E+00  1.28831661E+00 -6.84794034E+00 -8.20003500E-01
  3.80299401E+00  1.28831661E+00  1.28831661E+00  1.28831661E+00 -6.84794034E+00
 -8.20003500E-01  3.80299401E+00  1.28831661E+00  1.28831661E+00  1.28831661E+00
 -6.84794034E+00 -8.20003500E-01  3.80299401E+00  1.28831661E+00  1.28831661E+00
  1.28831661E+00 -6.84794034E+00 -8.20003500E-01  3.80299401E+00  1.28831661E+00
  1.28831661E+00  1.28831661E+00 -6.84794034E+00 -8.20003500E-01  3.80299401E+00
  1.28831661E+00  1.28831661E+00  1.28831661E+00 -6.84794034E+00 -8.20003500E-01
  3.80299401E+00  1.28831661E+00  1.28831661E+00  1.28831661E+00 -6.84794034E+00
 -8.20003500E-01  3.80299401E+00  1.28831661E+00  1.28831661E+00  1.28831661E+00
 -6.84794034E+00 -8.20003500E-01  3.80299401E+00  1.28831661E+00  1.28831661E+00
  1.28831661E+00 -6.84794034E+00 -8.20003500E-01  3.80299401E+00  1.28831661E+00
  1.28831661E+00  1.28831661E+00 -6.84794034E+00 -8.20003500E-01  3.80299401E+00
  1.28831661E+00  1.28831661E+00  1.28831661E+00 -6.84794034E+00 -8.20003500E-01
  3.80299401E+00  1.28831661E+00  1.28831661E+00  1.28831661E+00 -6.84794034E+00
 -8.20003500E-01  3.80299401E+00  1.28831661E+00  1.28831661E+00  1.28831661E+00
 -6.84794034E+00 -8.20003500E-01  3.80299401E+00  1.28831661E+00  1.28831661E+00
  1.28831661E+00 -6.84794034E+00 -8.20003500E-01  3.80299401E+00  1.28831661E+00
  1.28831661E+00  1.28831661E+00 -6.84794034E+00 -8.20003500E-01  3.80299401E+00
  1.28831661E+00  1.28831661E+00  1.28831661E+00 -6.84794034E+00 -8.20003500E-01
  3.80299401E+00  1.28831661E+00  1.28831661E+00  1.28831661E+00 -6.84794034E+00
 -8.20003500E-01  3.80299401E+00  1.28831661E+00  1.28831661E+00  1.28831661E+00
 -6.84794034E+00 -8.20003500E-01  3.80299401E+00  1.28831661E+00  1.28831661E+00
  1.28831661E+00 -6.84794034E+00 -8.20003500E-01  3.80299401E+00  1.28831661E+00
  1.28831661E+00  1.28831661E+00 -6.84794034E+00 -8.20003500E-01  3.80299401E+00
  1.28831661E+00  1.28831661E+00  1.28831661E+00 -6.84794034E+00 -8.20003500E-01
  3.80299401E+00  1.28831661E+00  1.28831661E+00  1.28831661E+00 -6.84794034E+00
 -8.20003500E-01  3.80299401E+00  1.28831661E+00  1.28831661E+00  1.28831661E+00
 -6.84794034E+00 -8.20003500E-01  3.80299401E+00  1.28831661E+00  1.28831661E+00
  1.28831661E+00 -6.84794034E+00 -8.20003500E-01  3.80299401E+00  1.28831661E+00
  1.28831661E+00  1.28831661E+00 -6.84794034E+00 -8.20003500E-01  3.80299401E+00
  1.28831661E+00  1.28831661E+00  1.28831661E+00 -6.84794034E+00 -8.20003500E-01
  3.80299401E+00  1.28831661E+00  1.28831661E+00  1.28831661E+00 -6.84794034E+00
 -8.20003500E-01  3.80299401E+00  1.28831661E+00  1.28831661E+00  1.28831661E+00
 -6.84794034E+00 -8.20003500E-01  3.80299401E+00  1.28831661E+00  1.28831661E+00
  1.28831661E+00 -6.84794034E+00 -8.20003500E-01  3.80299401E+00  1.28831661E+00
  1.28831661E+00  1.28831661E+00 -6.84794034E+00 -8.20003500E-01  3.80299401E+00
  1.28831661E+00  1.28831661E+00  1.28831661E+00 -6.84794034E+00 -8.20003500E-01
  3.80299401E+00  1.28831661E+00  1.28831661E+00  1.28831661E+00 -6.84794034E+00
 -8.20003500E-01  3.80299401E+00  1.28831661E+00  1.28831661E+00  1.28831661E+00
 -6.84794034E+00 -8.20003500E-01  3.80299401E+00  1.28831661E+00  1.28831661E+00
  1.28831661E+00 -6.84794034E+00 -8.20003500E-01  3.80299401E+00  1.28831661E+00
  1.28831661E+00  1.28831661E+00 -6.84794034E+00 -8.20003500E-01  3.80299401E+00
  1.28831661E+00  1.28831661E+00  1.28831661E+00 -6.84794034E+00 -8.20003500E-01
  3.80299401E+00  1.28831661E+00  1.28831661E+00  1.28831661E+00 -6.84794034E+00
 -8.20003500E-01  3.80299401E+00  1.28831661E+00  1.28831661E+00  1.28831661E+00
 -6.84794034E+00 -8.20003500E-01  3.80299401E+00  1.28831661E+00  1.28831661E+00
  1.28831661E+00 -6.84794034E+00 -8.20003500E-01  3.80299401E+00  1.28831661E+00
  1.28831661E+00  1.28831661E+00 -6.84794034E+00 -8.20003500E-01  3.80299401E+00
  1.28831661E+00  1.28831661E+00  1.28831661E+00 -6.84794034E+00 -8.20003500E-01
  3.80299401E+00  1.28831661E+00  1.28831661E+00  1.28831661E+00 -6.84794034E+00
 -8.20003500E-01  3.80299401E+00  1.28831661E+00  1.28831661E+00  1.28831661E+00
 -6.84794034E+00 -8.20003500E-01  3.80299401E+00  1.28831661E+00  1.28831661E+00
  1.28831661E+00 -6.84794034E+00 -8.20003500E-01  3.80299401E+00  1.28831661E+00
  1.28831661E+00  1.28831661E+00 -6.84794034E+00 -8.20003500E-01  3.80299401E+00
  1.28831661E+00  1.28831661E+00  1.28831661E+00 -6.84794034E+00 -8.20003500E-01
  3.80299401E+00  1.28831661E+00  1.28831661E+00  1.28831661E+00 -6.84794034E+00
 -8.20003500E-01  3.80299401E+00  1.28831661E+00  1.28831661E+00  1.28831661E+00
 -6.84794034E+00 -8.20003500E-01  3.80299401E+00  1.28831661E+00  1.28831661E+00
  1.28831661E+00 -6.84794034E+00 -8.20003500E-01  3.80299401E+00  1.28831661E+00
  1.28831661E+00  1.28831661E+00 -6.84794034E+00 -8.20003500E-01  3.80299401E+00
  1.28831661E+00  1.28831661E+00  1.28831661E+00 -6.84794034E+00 -8.20003500E-01
  3.80299401E+00  1.28831661E+00  1.28831661E+00  1.28831661E+00 -6.84794034E+00
 -8.20003500E-01  3.80299401E+00  1.28831661E+00  1.28831661E+00  1.28831661E+00
 -6.84794034E+00 -8.20003500E-01  3.80299401E+00  1.28831661E+00  1.28831661E+00
  1.28831661E+00 -6.84794034E+00 -8.20003500E-01  3.80299401E+00  1.28831661E+00
  1.28831661E+00  1.28831661E+00 -6.84794034E+00 -8.20003500E-01  3.80299401E+00
  1.28831661E+00  1.28831661E+00  1.28831661E+00 -6.84794034E+00 -8.20003500E-01
  3.80299401E+00  1.28831661E+00  1.28831661E+00  1.28831661E+00 -6.84794034E+00
 -8.20003500E-01  3.80299401E+00  1.28831661E+00  1.28831661E+00  1.28831661E+00
 -6.84794034E+00 -8.20003500E-01  3.80299401E+00  1.28831661E+00  1.28831661E+00
  1.28831661E+00 -6.84794034E+00 -8.20003500E-01  3.80299401E+00  1.28831661E+00
  1.28831661E+00  1.28831661E+00 -6.84794034E+00 -8.20003500E-01  3.80299401E+00
  1.28831661E+00  1.28831661E+00  1.28831661E+00 -6.84794034E+00 -8.20003500E-01
  3.80299401E+00  1.28831661E+00  1.28831661E+00  1.28831661E+00 -6.84794034E+00
 -8.20003500E-01  3.80299401E+00  1.28831661E+00  1.28831661E+00  1.28831661E+00
 -6.84794034E+00 -8.20003500E-01  3.80299401E+00  1.28831661E+00  1.28831661E+00
  1.28831661E+00 -6.84794034E+00 -8.20003500E-01  3.80299401E+00  1.28831661E+00
  1.28831661E+00  1.28831661E+00 -6.84794034E+00 -8.20003500E-01  3.80299401E+00
  1.28831661E+00  1.28831661E+00  1.28831661E+00 -6.84794034E+00 -8.20003500E-01
  3.80299401E+00  1.28831661E+00  1.28831661E+00  1.28831661E+00 -6.84794034E+00
 -8.20003500E-01  3.80299401E+00  1.28831661E+00  1.28831661E+00  1.28831661E+00
 -6.84794034E+00 -8.20003500E-01  3.80299401E+00  1.28831661E+00  1.28831661E+00
  1.28831661E+00 -6.84794034E+00 -8.20003500E-01  3.80299401E+00  1.28831661E+00
  1.28831661E+00  1.28831661E+00 -6.84794034E+00 -8.20003500E-01  3.80299401E+00
  1.28831661E+00  1.28831661E+00  1.28831661E+00 -6.84794034E+00 -8.20003500E-01
  3.80299401E+00  1.28831661E+00  1.28831661E+00  1.28831661E+00 -6.84794034E+00
 -8.20003500E-01  3.80299401E+00  1.28831661E+00  1.28831661E+00  1.28831661E+00
 -6.84794034E+00 -8.20003500E-01  3.80299401E+00  1.28831661E+00  1.28831661E+00
  1.28831661E+00 -6.84794034E+00 -8.20003500E-01  3.80299401E+00  1.28831661E+00
  1.28831661E+00  1.28831661E+00 -6.84794034E+00 -8.20003500E-01  3.80299401E+00
  1.28831661E+00  1.28831661E+00  1.28831661E+00 -6.84794034E+00 -8.20003500E-01
  3.80299401E+00  1.28831661E+00  1.28831661E+00  1.28831661E+00 -6.84794034E+00
 -8.20003500E-01  3.80299401E+00  1.28831661E+00  1.28831661E+00  1.28831661E+00
 -6.84794034E+00 -8.20003500E-01  3.80299401E+00  1.28831661E+00  1.28831661E+00
  1.28831661E+00 -6.84794034E+00 -8.20003500E-01  3.80299401E+00  1.28831661E+00
  1.28831661E+00  1.28831661E+00 -6.84794034E+00 -8.20003500E-01  3.80299401E+00
  1.28831661E+00  1.28831661E+00  1.28831661E+00 -6.84794034E+00 -8.20003500E-01
  3.80299401E+00  1.28831661E+00  1.28831661E+00  1.28831661E+00 -6.84794034E+00
 -8.20003500E-01  3.80299401E+00  1.28831661E+00  1.28831661E+00  1.28831661E+00
 -6.84794034E+00 -8.20003500E-01  3.80299401E+00  1.28831661E+00  1.28831661E+00
  1.28831661E+00 -6.84794034E+00 -8.20003500E-01  3.80299401E+00  1.28831661E+00
  1.28831661E+00  1.28831661E+00 -6.84794034E+00 -8.20003500E-01  3.80299401E+00
  1.28831661E+00  1.28831661E+00  1.28831661E+00 -6.84794034E+00 -8.20003500E-01
  3.80299401E+00  1.28831661E+00  1.28831661E+00  1.28831661E+00 -6.84794034E+00
 -8.20003500E-01  3.80299401E+00  1.28831661E+00  1.28831661E+00  1.28831661E+00
 -6.84794034E+00 -8.20003500E-01  3.80299401E+00  1.28831661E+00  1.28831661E+00
  1.28831661E+00 -6.84794034E+00 -8.20003500E-01  3.80299401E+00  1.28831661E+00
  1.28831661E+00  1.28831661E+00 -6.84794034E+00 -8.20003500E-01  3.80299401E+00
  1.28831661E+00  1.28831661E+00  1.28831661E+00 -6.84794034E+00 -8.20003500E-01
  3.80299401E+00  1.28831661E+00  1.28831661E+00  1.28831661E+00 -6.84794034E+00
 -8.20003500E-01  3.80299401E+00  1.28831661E+00  1.28831661E+00  1.28831661E+00
 -6.84794034E+00 -8.20003500E-01  3.80299401E+00  1.28831661E+00  1.28831661E+00
  1.28831661E+00 -6.84794034E+00 -8.20003500E-01  3.80299401E+00  1.28831661E+00
  1.28831661E+00  1.28831661E+00 -6.84794034E+00 -8.20003500E-01  3.80299401E+00
  1.28831661E+00  1.28831661E+00  1.28831661E+00 -6.84794034E+00 -8.20003500E-01
  3.80299401E+00  1.28831661E+00  1.28831661E+00  1.28831661E+00 -6.84794034E+00
 -8.20003500E-01  3.80299401E+00  1.28831661E+00  1.28831661E+00  1.28831661E+00
 -6.84794034E+00 -8.20003500E-01  3.80299401E+00  1.28831661E+00  1.28831661E+00
  1.28831661E+00 -6.84794034E+00 -8.20003500E-01  3.80299401E+00  1.28831661E+00
  1.28831661E+00  1.28831661E+00 -6.84794034E+00 -8.20003500E-01  3.80299401E+00
  1.28831661E+00  1.28831661E+00  1.28831661E+00 -6.84794034E+00 -8.20003500E-01
  3.80299401E+00  1.28831661E+00  1.28831661E+00  1.28831661E+00 -6.84794034E+00
 -8.20003500E-01  3.80299401E+00  1.28831661E+00  1.28831661E+00  1.28831661E+00
 -6.84794034E+00 -8.20003500E-01  3.80299401E+00  1.28831661E+00  1.28831661E+00
  1.28831661E+00 -6.84794034E+00 -8.20003500E-01  3.80299401E+00  1.28831661E+00
  1.28831661E+00  1.28831661E+00 -6.84794034E+00 -8.20003500E-01  3.80299401E+00
  1.28831661E+00  1.28831661E+00  1.28831661E+00 -6.84794034E+00 -8.20003500E-01
  3.80299401E+00  1.28831661E+00  1.28831661E+00  1.28831661E+00 -6.84794034E+00
 -8.20003500E-01  3.80299401E+00  1.28831661E+00  1.28831661E+00  1.28831661E+00
 -6.84794034E+00 -8.20003500E-01  3.80299401E+00  1.28831661E+00  1.28831661E+00
  1.28831661E+00 -6.84794034E+00 -8.20003500E-01  3.80299401E+00  1.28831661E+00
  1.28831661E+00  1.28831661E+00 -6.84794034E+00 -8.20003500E-01  3.80299401E+00
  1.28831661E+00  1.28831661E+00  1.28831661E+00 -6.84794034E+00 -8.20003500E-01
  3.80299401E+00  1.28831661E+00  1.28831661E+00  1.28831661E+00 -6.84794034E+00
 -8.20003500E-01  3.80299401E+00  1.28831661E+00  1.28831661E+00  1.28831661E+00
 -6.84794034E+00 -8.20003500E-01  3.80299401E+00  1.28831661E+00  1.28831661E+00
  1.28831661E+00 -6.84794034E+00 -8.20003500E-01  3.80299401E+00  1.28831661E+00
  1.28831661E+00  1.28831661E+00 -6.84794034E+00 -8.20003500E-01  3.80299401E+00
  1.28831661E+00  1.28831661E+00  1.28831661E+00 -6.84794034E+00 -8.20003500E-01
  3.80299401E+00  1.28831661E+00  1.28831661E+00  1.28831661E+00 -6.84794034E+00
 -8.20003500E-01  3.80299401E+00  1.28831661E+00  1.28831661E+00  1.28831661E+00
 -6.84794034E+00 -8.20003500E-01  3.80299401E+00  1.28831661E+00  1.28831661E+00
  1.28831661E+00 -6.84794034E+00 -8.20003500E-01  3.80299401E+00  1.28831661E+00
  1.28831661E+00  1.28831661E+00 -6.84794034E+00 -8.20003500E-01  3.80299401E+00
  1.28831661E+00  1.28831661E+00  1.28831661E+00 -6.84794034E+00 -8.20003500E-01
  3.80299401E+00  1.28831661E+00  1.28831661E+00  1.28831661E+00 -6.84794034E+00
 -8.20003500E-01  3.80299401E+00  1.28831661E+00  1.28831661E+00  1.28831661E+00
 -6.84794034E+00 -8.20003500E-01  3.80299401E+00  1.28831661E+00  1.28831661E+00
  1.28831661E+00 -6.84794034E+00 -8.20003500E-01  3.80299401E+00  1.28831661E+00
  1.28831661E+00  1.28831661E+00 -6.84794034E+00 -8.20003500E-01  3.80299401E+00
  1.28831661E+00  1.28831661E+00  1.28831661E+00 -6.84794034E+00 -8.20003500E-01
  3.80299401E+00  1.28831661E+00  1.28831661E+00  1.28831661E+00 -6.84794034E+00
 -8.20003500E-01  3.80299401E+00  1.28831661E+00  1.28831661E+00  1.28831661E+00
 -6.84794034E+00 -8.20003500E-01  3.80299401E+00  1.28831661E+00  1.28831661E+00
  1.28831661E+00 -6.84794034E+00 -8.20003500E-01  3.80299401E+00  1.28831661E+00
  1.28831661E+00  1.28831661E+00 -6.84794034E+00 -8.20003500E-01  3.80299401E+00
  1.28831661E+00  1.28831661E+00  1.28831661E+00 -6.84794034E+00 -8.20003500E-01
  3.80299401E+00  1.28831661E+00  1.28831661E+00  1.28831661E+00 -6.84794034E+00
 -8.20003500E-01  3.80299401E+00  1.28831661E+00  1.28831661E+00  1.28831661E+00
 -6.84794034E+00 -8.20003500E-01  3.80299401E+00  1.28831661E+00  1.28831661E+00
  1.28831661E+00 -6.84794034E+00 -8.20003500E-01  3.80299401E+00  1.28831661E+00
  1.28831661E+00  1.28831661E+00 -6.84794034E+00 -8.20003500E-01  3.80299401E+00
  1.28831661E+00  1.28831661E+00  1.28831661E+00 -6.84794034E+00 -8.20003500E-01
  3.80299401E+00  1.28831661E+00  1.28831661E+00  1.28831661E+00 -6.84794034E+00
 -8.20003500E-01  3.80299401E+00  1.28831661E+00  1.28831661E+00  1.28831661E+00
 -6.84794034E+00 -8.20003500E-01  3.80299401E+00  1.28831661E+00  1.28831661E+00
  1.28831661E+00 -6.84794034E+00 -8.20003500E-01  3.80299401E+00  1.28831661E+00
  1.28831661E+00  1.28831661E+00 -6.84794034E+00 -8.20003500E-01  3.80299401E+00
  1.28831661E+00  1.28831661E+00  1.28831661E+00 -6.84794034E+00 -8.20003500E-01
  3.80299401E+00  1.28831661E+00  1.28831661E+00  1.28831661E+00 -6.84794034E+00
 -8.20003500E-01  3.80299401E+00  1.28831661E+00  1.28831661E+00  1.28831661E+00
 -6.84794034E+00 -8.20003500E-01  3.80299401E+00  1.28831661E+00  1.28831661E+00
  1.28831661E+00 -6.84794034E+00 -8.20003500E-01  3.80299401E+00  1.28831661E+00
  1.28831661E+00  1.28831661E+00 -6.84794034E+00 -8.20003500E-01  3.80299401E+00
  1.28831661E+00  1.28831661E+00  1.28831661E+00 -6.84794034E+00 -8.20003500E-01
  3.80299401E+00  1.28831661E+00  1.28831661E+00  1.28831661E+00 -6.84794034E+00
 -8.20003500E-01  3.80299401E+00  1.28831661E+00  1.28831661E+00  1.28831661E+00
 -6.84794034E+00 -8.20003500E-01  3.80299401E+00  1.28831661E+00  1.28831661E+00
  1.28831661E+00 -6.84794034E+00 -8.20003500E-01  3.80299401E+00  1.28831661E+00
  1.28831661E+00  1.28831661E+00 -6.84794034E+00 -8.20003500E-01  3.80299401E+00
  1.28831661E+00  1.28831661E+00  1.28831661E+00 -6.84794034E+00 -8.20003500E-01
  3.80299401E+00  1.28831661E+00  1.28831661E+00  1.28831661E+00 -6.84794034E+00
 -8.20003500E-01  3.80299401E+00  1.28831661E+00  1.28831661E+00  1.28831661E+00
 -6.84794034E+00 -8.20003500E-01  3.80299401E+00  1.28831661E+00  1.28831661E+00
  1.28831661E+00 -6.84794034E+00 -8.20003500E-01  3.80299401E+00  1.28831661E+00
  1.28831661E+00  1.28831661E+00 -6.84794034E+00 -8.20003500E-01  3.80299401E+00
  1.28831661E+00  1.28831661E+00  1.28831661E+00 -6.84794034E+00 -8.20003500E-01
  3.80299401E+00  1.28831661E+00  1.28831661E+00  1.28831661E+00 -6.84794034E+00
 -8.20003500E-01  3.80299401E+00  1.28831661E+00  1.28831661E+00  1.28831661E+00
 -6.84794034E+00 -8.20003500E-01  3.80299401E+00  1.28831661E+00  1.28831661E+00
  1.28831661E+00 -6.84794034E+00 -8.20003500E-01  3.80299401E+00  1.28831661E+00
  1.28831661E+00  1.28831661E+00 -6.84794034E+00 -8.20003500E-01  3.80299401E+00
  1.28831661E+00  1.28831661E+00  1.28831661E+00 -6.84794034E+00 -8.20003500E-01
  3.80299401E+00  1.28831661E+00  1.28831661E+00  1.28831661E+00 -6.84794034E+00
 -8.20003500E-01  3.80299401E+00  1.28831661E+00  1.28831661E+00  1.28831661E+00
 -6.84794034E+00 -8.20003500E-01  3.80299401E+00  1.28831661E+00  1.28831661E+00
  1.28831661E+00 -6.84794034E+00 -8.20003500E-01  3.80299401E+00  1.28831661E+00
  1.28831661E+00  1.28831661E+00 -6.84794034E+00 -8.20003500E-01  3.80299401E+00
  1.28831661E+00  1.28831661E+00  1.28831661E+00 -6.84794034E+00 -8.20003500E-01
  3.80299401E+00  1.28831661E+00  1.28831661E+00  1.28831661E+00 -6.84794034E+00
 -8.20003500E-01  3.80299401E+00  1.28831661E+00  1.28831661E+00  1.28831661E+00
 -6.84794034E+00 -8.20003500E-01  3.80299401E+00  1.28831661E+00  1.28831661E+00
  1.28831661E+00 -6.84794034E+00 -8.20003500E-01  3.80299401E+00  1.28831661E+00
  1.28831661E+00  1.28831661E+00 -6.84794034E+00 -8.20003500E-01  3.80299401E+00
  1.28831661E+00  1.28831661E+00  1.28831661E+00 -6.84794034E+00 -8.20003500E-01
  3.80299401E+00  1.28831661E+00  1.28831661E+00  1.28831661E+00 -6.84794034E+00
 -8.20003500E-01  3.80299401E+00  1.28831661E+00  1.28831661E+00  1.28831661E+00
 -6.84794034E+00 -8.20003500E-01  3.80299401E+00  1.28831661E+00  1.28831661E+00
  1.28831661E+00 -6.84794034E+00 -8.20003500E-01  3.80299401E+00  1.28831661E+00
  1.28831661E+00  1.28831661E+00 -6.84794034E+00 -8.20003500E-01  3.80299401E+00
  1.28831661E+00  1.28831661E+00  1.28831661E+00 -6.84794034E+00 -8.20003500E-01
  3.80299401E+00  1.28831661E+00  1.28831661E+00  1.28831661E+00 -6.84794034E+00
 -8.20003500E-01  3.80299401E+00  1.28831661E+00  1.28831661E+00  1.28831661E+00
 -6.84794034E+00 -8.20003500E-01  3.80299401E+00  1.28831661E+00  1.28831661E+00
  1.28831661E+00 -6.84794034E+00 -8.20003500E-01  3.80299401E+00  1.28831661E+00
  1.28831661E+00  1.28831661E+00 -6.84794034E+00 -8.20003500E-01  3.80299401E+00
  1.28831661E+00  1.28831661E+00  1.28831661E+00 -6.84794034E+00 -8.20003500E-01
  3.80299401E+00  1.28831661E+00  1.28831661E+00  1.28831661E+00 -6.84794034E+00
 -8.20003500E-01  3.80299401E+00  1.28831661E+00  1.28831661E+00  1.28831661E+00
 -6.84794034E+00 -8.20003500E-01  3.80299401E+00  1.28831661E+00  1.28831661E+00
  1.28831661E+00 -6.84794034E+00 -8.20003500E-01  3.80299401E+00  1.28831661E+00
  1.28831661E+00  1.28831661E+00 -6.84794034E+00 -8.20003500E-01  3.80299401E+00
  1.28831661E+00  1.28831661E+00  1.28831661E+00 -6.84794034E+00 -8.20003500E-01
  3.80299401E+00  1.28831661E+00  1.28831661E+00  1.28831661E+00 -6.84794034E+00
 -8.20003500E-01  3.80299401E+00  1.28831661E+00  1.28831661E+00  1.28831661E+00
 -6.84794034E+00 -8.20003500E-01  3.80299401E+00  1.28831661E+00  1.28831661E+00
  1.28831661E+00 -6.84794034E+00 -8.20003500E-01  3.80299401E+00  1.28831661E+00
  1.28831661E+00  1.28831661E+00 -6.84794034E+00 -8.20003500E-01  3.80299401E+00
  1.28831661E+00  1.28831661E+00  1.28831661E+00 -6.84794034E+00 -8.20003500E-01
  3.80299401E+00  1.28831661E+00  1.28831661E+00  1.28831661E+00 -6.84794034E+00
 -8.20003500E-01  3.80299401E+00  1.28831661E+00  1.28831661E+00  1.28831661E+00
 -6.84794034E+00 -8.20003500E-01  3.80299401E+00  1.28831661E+00  1.28831661E+00
  1.28831661E+00 -6.84794034E+00 -8.20003500E-01  3.80299401E+00  1.28831661E+00
  1.28831661E+00  1.28831661E+00 -6.84794034E+00 -8.20003500E-01  3.80299401E+00
  1.28831661E+00  1.28831661E+00  1.28831661E+00 -6.84794034E+00 -8.20003500E-01
  3.80299401E+00  1.28831661E+00  1.28831661E+00  1.28831661E+00 -6.84794034E+00
 -8.20003500E-01  3.80299401E+00  1.28831661E+00  1.28831661E+00  1.28831661E+00
 -6.84794034E+00 -8.20003500E-01  3.80299401E+00  1.28831661E+00  1.28831661E+00
  1.28831661E+00 -6.84794034E+00 -8.20003500E-01  3.80299401E+00  1.28831661E+00
  1.28831661E+00  1.28831661E+00 -6.84794034E+00 -8.20003500E-01  3.80299401E+00
  1.28831661E+00  1.28831661E+00  1.28831661E+00 -6.84794034E+00 -8.20003500E-01
  3.80299401E+00  1.28831661E+00  1.28831661E+00  1.28831661E+00 -6.84794034E+00
 -8.20003500E-01  3.80299401E+00  1.28831661E+00  1.28831661E+00  1.28831661E+00
 -6.84794034E+00 -8.20003500E-01  3.80299401E+00  1.28831661E+00  1.28831661E+00
  1.28831661E+00 -6.84794034E+00 -8.20003500E-01  3.80299401E+00  1.28831661E+00
  1.28831661E+00  1.28831661E+00 -6.84794034E+00 -8.20003500E-01  3.80299401E+00
  1.28831661E+00  1.28831661E+00  1.28831661E+00 -6.84794034E+00 -8.20003500E-01
  3.80299401E+00  1.28831661E+00  1.28831661E+00  1.28831661E+00 -6.84794034E+00
 -8.20003500E-01  3.80299401E+00  1.28831661E+00  1.28831661E+00  1.28831661E+00
 -6.84794034E+00 -8.20003500E-01  3.80299401E+00  1.28831661E+00  1.28831661E+00
  1.28831661E+00 -6.84794034E+00 -8.20003500E-01  3.80299401E+00  1.28831661E+00
  1.28831661E+00  1.28831661E+00 -6.84794034E+00 -8.20003500E-01  3.80299401E+00
  1.28831661E+00  1.28831661E+00  1.28831661E+00 -6.84794034E+00 -8.20003500E-01
  3.80299401E+00  1.28831661E+00  1.28831661E+00  1.28831661E+00 -6.84794034E+00
 -8.20003500E-01  3.80299401E+00  1.28831661E+00  1.28831661E+00  1.28831661E+00
 -6.84794034E+00 -8.20003500E-01  3.80299401E+00  1.28831661E+00  1.28831661E+00
  1.28831661E+00 -6.84794034E+00 -8.20003500E-01  3.80299401E+00  1.28831661E+00
  1.28831661E+00  1.28831661E+00 -6.84794034E+00 -8.20003500E-01  3.80299401E+00
  1.28831661E+00  1.28831661E+00  1.28831661E+00 -6.84794034E+00 -8.20003500E-01
  3.80299401E+00  1.28831661E+00  1.28831661E+00  1.28831661E+00 -6.84794034E+00
 -8.20003500E-01  3.80299401E+00  1.28831661E+00  1.28831661E+00  1.28831661E+00
 -6.84794034E+00 -8.20003500E-01  3.80299401E+00  1.28831661E+00  1.28831661E+00
  1.28831661E+00 -6.84794034E+00 -8.20003500E-01  3.80299401E+00  1.28831661E+00
  1.28831661E+00  1.28831661E+00 -6.84794034E+00 -8.20003500E-01  3.80299401E+00
  1.28831661E+00  1.28831661E+00  1.28831661E+00 -6.84794034E+00 -8.20003500E-01
  3.80299401E+00  1.28831661E+00  1.28831661E+00  1.28831661E+00 -6.84794034E+00
 -8.20003500E-01  3.80299401E+00  1.28831661E+00  1.28831661E+00  1.28831661E+00
 -6.84794034E+00 -8.20003500E-01  3.80299401E+00  1.28831661E+00  1.28831661E+00
  1.28831661E+00 -6.84794034E+00 -8.20003500E-01  3.80299401E+00  1.28831661E+00
  1.28831661E+00  1.28831661E+00 -6.84794034E+00 -8.20003500E-01  3.80299401E+00
  1.28831661E+00  1.28831661E+00  1.28831661E+00 -6.84794034E+00 -8.20003500E-01
  3.80299401E+00  1.28831661E+00  1.28831661E+00  1.28831661E+00 -6.84794034E+00
 -8.20003500E-01  3.80299401E+00  1.28831661E+00  1.28831661E+00  1.28831661E+00
 -6.84794034E+00 -8.20003500E-01  3.80299401E+00  1.28831661E+00  1.28831661E+00
  1.28831661E+00 -6.84794034E+00 -8.20003500E-01  3.80299401E+00  1.28831661E+00
  1.28831661E+00  1.28831661E+00 -6.84794034E+00 -8.20003500E-01  3.80299401E+00
  1.28831661E+00  1.28831661E+00  1.28831661E+00 -6.84794034E+00 -8.20003500E-01
  3.80299401E+00  1.28831661E+00  1.28831661E+00  1.28831661E+00 -6.84794034E+00
 -8.20003500E-01  3.80299401E+00  1.28831661E+00  1.28831661E+00  1.28831661E+00
 -6.84794034E+00 -8.20003500E-01  3.80299401E+00  1.28831661E+00  1.28831661E+00
  1.28831661E+00 -6.84794034E+00 -8.20003500E-01  3.80299401E+00  1.28831661E+00
  1.28831661E+00  1.28831661E+00 -6.84794034E+00 -8.20003500E-01  3.80299401E+00
  1.28831661E+00  1.28831661E+00  1.28831661E+00 -6.84794034E+00 -8.20003500E-01
  3.80299401E+00  1.28831661E+00  1.28831661E+00  1.28831661E+00 -6.84794034E+00
 -8.20003500E-01  3.80299401E+00  1.28831661E+00  1.28831661E+00  1.28831661E+00
 -6.84794034E+00 -8.20003500E-01  3.80299401E+00  1.28831661E+00  1.28831661E+00
  1.28831661E+00 -6.84794034E+00 -8.20003500E-01  3.80299401E+00  1.28831661E+00
  1.28831661E+00  1.28831661E+00 -6.84794034E+00 -8.20003500E-01  3.80299401E+00
  1.28831661E+00  1.28831661E+00  1.28831661E+00 -6.84794034E+00 -8.20003500E-01
  3.80299401E+00  1.28831661E+00  1.28831661E+00  1.28831661E+00 -6.84794034E+00
 -8.20003500E-01  3.80299401E+00  1.28831661E+00  1.28831661E+00  1.28831661E+00
 -6.84794034E+00 -8.20003500E-01  3.80299401E+00  1.28831661E+00  1.28831661E+00
  1.28831661E+00 -6.84794034E+00 -8.20003500E-01  3.80299401E+00  1.28831661E+00
  1.28831661E+00  1.28831661E+00 -6.84794034E+00 -8.20003500E-01  3.80299401E+00
  1.28831661E+00  1.28831661E+00  1.28831661E+00 -6.84794034E+00 -8.20003500E-01
  3.80299401E+00  1.28831661E+00  1.28831661E+00  1.28831661E+00 -6.84794034E+00
 -8.20003500E-01  3.80299401E+00  1.28831661E+00  1.28831661E+00  1.28831661E+00
 -6.84794034E+00 -8.20003500E-01  3.80299401E+00  1.28831661E+00  1.28831661E+00
  1.28831661E+00 -6.84794034E+00 -8.20003500E-01  3.80299401E+00  1.28831661E+00
  1.28831661E+00  1.28831661E+00 -6.84794034E+00 -8.20003500E-01  3.80299401E+00
  1.28831661E+00  1.28831661E+00  1.28831661E+00 -6.84794034E+00 -8.20003500E-01
  3.80299401E+00  1.28831661E+00  1.28831661E+00  1.28831661E+00 -6.84794034E+00
 -8.20003500E-01  3.80299401E+00  1.28831661E+00  1.28831661E+00  1.28831661E+00
 -6.84794034E+00 -8.20003500E-01  3.80299401E+00  1.28831661E+00  1.28831661E+00
  1.28831661E+00 -6.84794034E+00 -8.20003500E-01  3.80299401E+00  1.28831661E+00
  1.28831661E+00  1.28831661E+00 -6.84794034E+00 -8.20003500E-01  3.80299401E+00
  1.28831661E+00  1.28831661E+00  1.28831661E+00 -6.84794034E+00 -8.20003500E-01
  3.80299401E+00  1.28831661E+00  1.28831661E+00  1.28831661E+00 -6.84794034E+00
 -8.20003500E-01  3.80299401E+00  1.28831661E+00  1.28831661E+00  1.28831661E+00
 -6.84794034E+00 -8.20003500E-01  3.80299401E+00  1.28831661E+00  1.28831661E+00
  1.28831661E+00 -6.84794034E+00 -8.20003500E-01  3.80299401E+00  1.28831661E+00
  1.28831661E+00  1.28831661E+00 -6.84794034E+00 -8.20003500E-01  3.80299401E+00
  1.28831661E+00  1.28831661E+00  1.28831661E+00 -6.84794034E+00 -8.20003500E-01
  3.80299401E+00  1.28831661E+00  1.28831661E+00  1.28831661E+00 -6.84794034E+00
 -8.20003500E-01  3.80299401E+00  1.28831661E+00  1.28831661E+00  1.28831661E+00
 -6.84794034E+00 -8.20003500E-01  3.80299401E+00  1.28831661E+00  1.28831661E+00
  1.28831661E+00 -6.84794034E+00 -8.20003500E-01  3.80299401E+00  1.28831661E+00
  1.28831661E+00  1.28831661E+00 -6.84794034E+00 -8.20003500E-01  3.80299401E+00
  1.28831661E+00  1.28831661E+00  1.28831661E+00 -6.84794034E+00 -8.20003500E-01
  3.80299401E+00  1.28831661E+00  1.28831661E+00  1.28831661E+00 -6.84794034E+00
 -8.20003500E-01  3.80299401E+00  1.28831661E+00  1.28831661E+00  1.28831661E+00
 -6.84794034E+00 -8.20003500E-01  3.80299401E+00  1.28831661E+00  1.28831661E+00
  1.28831661E+00 -6.84794034E+00 -8.20003500E-01  3.80299401E+00  1.28831661E+00
  1.28831661E+00  1.28831661E+00 -6.84794034E+00 -8.20003500E-01  3.80299401E+00
  1.28831661E+00  1.28831661E+00  1.28831661E+00 -6.84794034E+00 -8.20003500E-01
  3.80299401E+00  1.28831661E+00  1.28831661E+00  1.28831661E+00 -6.84794034E+00
 -8.20003500E-01  3.80299401E+00  1.28831661E+00  1.28831661E+00  1.28831661E+00
 -6.84794034E+00 -8.20003500E-01  3.80299401E+00  1.28831661E+00  1.28831661E+00
  1.28831661E+00 -6.84794034E+00 -8.20003500E-01  3.80299401E+00  1.28831661E+00
  1.28831661E+00  1.28831661E+00 -6.84794034E+00 -8.20003500E-01  3.80299401E+00
  1.28831661E+00  1.28831661E+00  1.28831661E+00 -6.84794034E+00 -8.20003500E-01
  3.80299401E+00  1.28831661E+00  1.28831661E+00  1.28831661E+00 -6.84794034E+00
 -8.20003500E-01  3.80299401E+00  1.28831661E+00  1.28831661E+00  1.28831661E+00
 -6.84794034E+00 -8.20003500E-01  3.80299401E+00  1.28831661E+00  1.28831661E+00
  1.28831661E+00 -6.84794034E+00 -8.20003500E-01  3.80299401E+00  1.28831661E+00
  1.28831661E+00  1.28831661E+00 -6.84794034E+00 -8.20003500E-01  3.80299401E+00
  1.28831661E+00  1.28831661E+00  1.28831661E+00 -6.84794034E+00 -8.20003500E-01
  3.80299401E+00  1.28831661E+00  1.28831661E+00  1.28831661E+00 -6.84794034E+00
 -8.20003500E-01  3.80299401E+00  1.28831661E+00  1.28831661E+00  1.28831661E+00
 -6.84794034E+00 -8.20003500E-01  3.80299401E+00  1.28831661E+00  1.28831661E+00
  1.28831661E+00 -6.84794034E+00 -8.20003500E-01  3.80299401E+00  1.28831661E+00
  1.28831661E+00  1.28831661E+00 -6.84794034E+00 -8.20003500E-01  3.80299401E+00
  1.28831661E+00  1.28831661E+00  1.28831661E+00 -6.84794034E+00 -8.20003500E-01
  3.80299401E+00  1.28831661E+00  1.28831661E+00  1.28831661E+00 -6.84794034E+00
 -8.20003500E-01  3.80299401E+00  1.28831661E+00  1.28831661E+00  1.28831661E+00
 -6.84794034E+00 -8.20003500E-01  3.80299401E+00  1.28831661E+00  1.28831661E+00
  1.28831661E+00 -6.84794034E+00 -8.20003500E-01  3.80299401E+00  1.28831661E+00
  1.28831661E+00  1.28831661E+00 -6.84794034E+00 -8.20003500E-01  3.80299401E+00
  1.28831661E+00  1.28831661E+00  1.28831661E+00 -6.84794034E+00 -8.20003500E-01
  3.80299401E+00  1.28831661E+00  1.28831661E+00  1.28831661E+00 -6.84794034E+00
 -8.20003500E-01  3.80299401E+00  1.28831661E+00  1.28831661E+00  1.28831661E+00
 -6.84794034E+00 -8.20003500E-01  3.80299401E+00  1.28831661E+00  1.28831661E+00
  1.28831661E+00 -6.84794034E+00 -8.20003500E-01  3.80299401E+00  1.28831661E+00
  1.28831661E+00  1.28831661E+00 -6.84794034E+00 -8.20003500E-01  3.80299401E+00
  1.28831661E+00  1.28831661E+00  1.28831661E+00 -6.84794034E+00 -8.20003500E-01
  3.80299401E+00  1.28831661E+00  1.28831661E+00  1.28831661E+00 -6.84794034E+00
 -8.20003500E-01  3.80299401E+00  1.28831661E+00  1.28831661E+00  1.28831661E+00
 -6.84794034E+00 -8.20003500E-01  3.80299401E+00  1.28831661E+00  1.28831661E+00
  1.28831661E+00 -6.84794034E+00 -8.20003500E-01  3.80299401E+00  1.28831661E+00
  1.28831661E+00  1.28831661E+00 -6.84794034E+00 -8.20003500E-01  3.80299401E+00
  1.28831661E+00  1.28831661E+00  1.28831661E+00 -6.84794034E+00 -8.20003500E-01
  3.80299401E+00  1.28831661E+00  1.28831661E+00  1.28831661E+00 -6.84794034E+00
 -8.20003500E-01  3.80299401E+00  1.28831661E+00  1.28831661E+00  1.28831661E+00
 -6.84794034E+00 -8.20003500E-01  3.80299401E+00  1.28831661E+00  1.28831661E+00
  1.28831661E+00 -6.84794034E+00 -8.20003500E-01  3.80299401E+00  1.28831661E+00
  1.28831661E+00  1.28831661E+00 -6.84794034E+00 -8.20003500E-01  3.80299401E+00
  1.28831661E+00  1.28831661E+00  1.28831661E+00 -6.84794034E+00 -8.20003500E-01
  3.80299401E+00  1.28831661E+00  1.28831661E+00  1.28831661E+00 -6.84794034E+00
 -8.20003500E-01  3.80299401E+00  1.28831661E+00  1.28831661E+00  1.28831661E+00
 -6.84794034E+00 -8.20003500E-01  3.80299401E+00  1.28831661E+00  1.28831661E+00
  1.28831661E+00 -6.84794034E+00 -8.20003500E-01  3.80299401E+00  1.28831661E+00
  1.28831661E+00  1.28831661E+00 -6.84794034E+00 -8.20003500E-01  3.80299401E+00
  1.28831661E+00  1.28831661E+00  1.28831661E+00 -6.84794034E+00 -8.20003500E-01
  3.80299401E+00  1.28831661E+00  1.28831661E+00  1.28831661E+00 -6.84794034E+00
 -8.20003500E-01  3.80299401E+00  1.28831661E+00  1.28831661E+00  1.28831661E+00
 -6.84794034E+00 -8.20003500E-01  3.80299401E+00  1.28831661E+00  1.28831661E+00
  1.28831661E+00 -6.84794034E+00 -8.20003500E-01  3.80299401E+00  1.28831661E+00
  1.28831661E+00  1.28831661E+00 -6.84794034E+00 -8.20003500E-01  3.80299401E+00
  1.28831661E+00  1.28831661E+00  1.28831661E+00 -6.84794034E+00 -8.20003500E-01
  3.80299401E+00  1.28831661E+00  1.28831661E+00  1.28831661E+00 -6.84794034E+00
 -8.20003500E-01  3.80299401E+00  1.28831661E+00  1.28831661E+00  1.28831661E+00
 -6.84794034E+00 -8.20003500E-01  3.80299401E+00  1.28831661E+00  1.28831661E+00
  1.28831661E+00 -6.84794034E+00 -8.20003500E-01  3.80299401E+00  1.28831661E+00
  1.28831661E+00  1.28831661E+00 -6.84794034E+00 -8.20003500E-01  3.80299401E+00
  1.28831661E+00  1.28831661E+00  1.28831661E+00 -6.84794034E+00 -8.20003500E-01
  3.80299401E+00  1.28831661E+00  1.28831661E+00  1.28831661E+00 -6.84794034E+00
 -8.20003500E-01  3.80299401E+00  1.28831661E+00  1.28831661E+00  1.28831661E+00
 -6.84794034E+00 -8.20003500E-01  3.80299401E+00  1.28831661E+00  1.28831661E+00
  1.28831661E+00 -6.84794034E+00 -8.20003500E-01  3.80299401E+00  1.28831661E+00
  1.28831661E+00  1.28831661E+00 -6.84794034E+00 -8.20003500E-01  3.80299401E+00
  1.28831661E+00  1.28831661E+00  1.28831661E+00 -6.84794034E+00 -8.20003500E-01
  3.80299401E+00  1.28831661E+00  1.28831661E+00  1.28831661E+00 -6.84794034E+00
 -8.20003500E-01  3.80299401E+00  1.28831661E+00  1.28831661E+00  1.28831661E+00
 -6.84794034E+00 -8.20003500E-01  3.80299401E+00  1.28831661E+00  1.28831661E+00
  1.28831661E+00 -6.84794034E+00 -8.20003500E-01  3.80299401E+00  1.28831661E+00
  1.28831661E+00  1.28831661E+00 -6.84794034E+00 -8.20003500E-01  3.80299401E+00
  1.28831661E+00  1.28831661E+00  1.28831661E+00 -6.84794034E+00 -8.20003500E-01
  3.80299401E+00  1.28831661E+00  1.28831661E+00  1.28831661E+00 -6.84794034E+00
 -8.20003500E-01  3.80299401E+00  1.28831661E+00  1.28831661E+00  1.28831661E+00
 -6.84794034E+00 -8.20003500E-01  3.80299401E+00  1.28831661E+00  1.28831661E+00
  1.28831661E+00 -6.84794034E+00 -8.20003500E-01  3.80299401E+00  1.28831661E+00
  1.28831661E+00  1.28831661E+00 -6.84794034E+00 -8.20003500E-01  3.80299401E+00
  1.28831661E+00  1.28831661E+00  1.28831661E+00 -6.84794034E+00 -8.20003500E-01
  3.80299401E+00  1.28831661E+00  1.28831661E+00  1.28831661E+00 -6.84794034E+00
 -8.20003500E-01  3.80299401E+00  1.28831661E+00  1.28831661E+00  1.28831661E+00
 -6.84794034E+00 -8.20003500E-01  3.80299401E+00  1.28831661E+00  1.28831661E+00
  1.28831661E+00 -6.84794034E+00 -8.20003500E-01  3.80299401E+00  1.28831661E+00
  1.28831661E+00  1.28831661E+00 -6.84794034E+00 -8.20003500E-01  3.80299401E+00
  1.28831661E+00  1.28831661E+00  1.28831661E+00 -6.84794034E+00 -8.20003500E-01
  3.80299401E+00  1.28831661E+00  1.28831661E+00  1.28831661E+00 -6.84794034E+00
 -8.20003500E-01  3.80299401E+00  1.28831661E+00  1.28831661E+00  1.28831661E+00
 -6.84794034E+00 -8.20003500E-01  3.80299401E+00  1.28831661E+00  1.28831661E+00
  1.28831661E+00 -6.84794034E+00 -8.20003500E-01  3.80299401E+00  1.28831661E+00
  1.28831661E+00  1.28831661E+00 -6.84794034E+00 -8.20003500E-01  3.80299401E+00
  1.28831661E+00  1.28831661E+00  1.28831661E+00 -6.84794034E+00 -8.20003500E-01
  3.80299401E+00  1.28831661E+00  1.28831661E+00  1.28831661E+00 -6.84794034E+00
 -8.20003500E-01  3.80299401E+00  1.28831661E+00  1.28831661E+00  1.28831661E+00
 -6.84794034E+00 -8.20003500E-01  3.80299401E+00  1.28831661E+00  1.28831661E+00
  1.28831661E+00 -6.84794034E+00 -8.20003500E-01  3.80299401E+00  1.28831661E+00
  1.28831661E+00  1.28831661E+00 -6.84794034E+00 -8.20003500E-01  3.80299401E+00
  1.28831661E+00  1.28831661E+00  1.28831661E+00 -6.84794034E+00 -8.20003500E-01
  3.80299401E+00  1.28831661E+00  1.28831661E+00  1.28831661E+00 -6.84794034E+00
 -8.20003500E-01  3.80299401E+00  1.28831661E+00  1.28831661E+00  1.28831661E+00
 -6.84794034E+00 -8.20003500E-01  3.80299401E+00  1.28831661E+00  1.28831661E+00
  1.28831661E+00 -6.84794034E+00 -8.20003500E-01  3.80299401E+00  1.28831661E+00
  1.28831661E+00  1.28831661E+00 -6.84794034E+00 -8.20003500E-01  3.80299401E+00
  1.28831661E+00  1.28831661E+00  1.28831661E+00 -6.84794034E+00 -8.20003500E-01
  3.80299401E+00  1.28831661E+00  1.28831661E+00  1.28831661E+00 -6.84794034E+00
 -8.20003500E-01  3.80299401E+00  1.28831661E+00  1.28831661E+00  1.28831661E+00
 -6.84794034E+00 -8.20003500E-01  3.80299401E+00  1.28831661E+00  1.28831661E+00
  1.28831661E+00 -6.84794034E+00 -8.20003500E-01  3.80299401E+00  1.28831661E+00
  1.28831661E+00  1.28831661E+00 -6.84794034E+00 -8.20003500E-01  3.80299401E+00
  1.28831661E+00  1.28831661E+00  1.28831661E+00 -6.84794034E+00 -8.20003500E-01
  3.80299401E+00  1.28831661E+00  1.28831661E+00  1.28831661E+00 -6.84794034E+00
 -8.20003500E-01  3.80299401E+00  1.28831661E+00  1.28831661E+00  1.28831661E+00
 -6.84794034E+00 -8.20003500E-01  3.80299401E+00  1.28831661E+00  1.28831661E+00
  1.28831661E+00 -6.84794034E+00 -8.20003500E-01  3.80299401E+00  1.28831661E+00
  1.28831661E+00  1.28831661E+00 -6.84794034E+00 -8.20003500E-01  3.80299401E+00
  1.28831661E+00  1.28831661E+00  1.28831661E+00 -6.84794034E+00 -8.20003500E-01
  3.80299401E+00  1.28831661E+00  1.28831661E+00  1.28831661E+00 -6.84794034E+00
 -8.20003500E-01  3.80299401E+00  1.28831661E+00  1.28831661E+00  1.28831661E+00
 -6.84794034E+00 -8.20003500E-01  3.80299401E+00  1.28831661E+00  1.28831661E+00
  1.28831661E+00 -6.84794034E+00 -8.20003500E-01  3.80299401E+00  1.28831661E+00
  1.28831661E+00  1.28831661E+00 -6.84794034E+00 -8.20003500E-01  3.80299401E+00
  1.28831661E+00  1.28831661E+00  1.28831661E+00 -6.84794034E+00 -8.20003500E-01
  3.80299401E+00  1.28831661E+00  1.28831661E+00  1.28831661E+00 -6.84794034E+00
 -8.20003500E-01  3.80299401E+00  1.28831661E+00  1.28831661E+00  1.28831661E+00
 -6.84794034E+00 -8.20003500E-01  3.80299401E+00  1.28831661E+00  1.28831661E+00
  1.28831661E+00 -6.84794034E+00 -8.20003500E-01  3.80299401E+00  1.28831661E+00
  1.28831661E+00  1.28831661E+00 -6.84794034E+00 -8.20003500E-01  3.80299401E+00
  1.28831661E+00  1.28831661E+00  1.28831661E+00 -6.84794034E+00 -8.20003500E-01
  3.80299401E+00  1.28831661E+00  1.28831661E+00  1.28831661E+00 -6.84794034E+00
 -8.20003500E-01  3.80299401E+00  1.28831661E+00  1.28831661E+00  1.28831661E+00
 -6.84794034E+00 -8.20003500E-01  3.80299401E+00  1.28831661E+00  1.28831661E+00
  1.28831661E+00 -6.84794034E+00 -8.20003500E-01  3.80299401E+00  1.28831661E+00
  1.28831661E+00  1.28831661E+00 -6.84794034E+00 -8.20003500E-01  3.80299401E+00
  1.28831661E+00  1.28831661E+00  1.28831661E+00 -6.84794034E+00 -8.20003500E-01
  3.80299401E+00  1.28831661E+00  1.28831661E+00  1.28831661E+00 -6.84794034E+00
 -8.20003500E-01  3.80299401E+00  1.28831661E+00  1.28831661E+00  1.28831661E+00
 -6.84794034E+00 -8.20003500E-01  3.80299401E+00  1.28831661E+00  1.28831661E+00
  1.28831661E+00 -6.84794034E+00 -8.20003500E-01  3.80299401E+00  1.28831661E+00
  1.28831661E+00  1.28831661E+00
%FLAG ATOMIC_NUMBER                                                             
%FORMAT(10I8)                                                                   
       6       6       6       6       6       6       6       6       7       6
       6       6       6       6       6       6       6       6       6       6
       7       6       6       6       6       6       6       6       1       6
       6      17       6       6       1       1       1       1       1       6
       1       1       1       1       1       1       1       1       1       1
       1       1       1       1       1       1       1       1       1       6
       1       1       1       6       1       1       1       8       8       1
       6       1       1       1       8       8       1       7       6       6
       1       1       1       7       6       6       1       1       1       7
       6       6       1       1       1       7       6       6       1       1
       1       7       6       6       1       1       1       7       6       6
       1       1       1       7       6       6       1       1       1       7
       6       6       1       1       1       7       6       6       1       1
       1       7       6       6       1       1       1       7       6       6
       1       1       1       7       6       6       1       1       1       7
       6       6       1       1       1       7       6       6       1       1
       1       7       6       6       1       1       1       7       6       6
       1       1       1       7       6       6       1       1       1       7
       6       6       1       1       1       7       6       6       1       1
       1       7       6       6       1       1       1       7       6       6
       1       1       1       7       6       6       1       1       1       7
       6       6       1       1       1       7       6       6       1       1
       1       7       6       6       1       1       1       7       6       6
       1       1       1       7       6       6       1       1       1       7
       6       6       1       1       1       7       6       6       1       1
       1       7       6       6       1       1       1       7       6       6
       1       1       1       7       6       6       1       1       1       7
       6       6       1       1       1       7       6       6       1       1
       1       7       6       6       1       1       1       7       6       6
       1       1       1       7       6       6       1       1       1       7
       6       6       1       1       1       7       6       6       1       1
       1       7       6       6       1       1       1       7       6       6
       1       1       1       7       6       6       1       1       1       7
       6       6       1       1       1       7       6       6       1       1
       1       7       6       6       1       1       1       7       6       6
       1       1       1       7       6       6       1       1       1       7
       6       6       1       1       1       7       6       6       1       1
       1       7       6       6       1       1       1       7       6       6
       1       1       1       7       6       6       1       1       1       7
       6       6       1       1       1       7       6       6       1       1
       1       7       6       6       1       1       1       7       6       6
       1       1       1       7       6       6       1       1       1       7
       6       6       1       1       1       7       6       6       1       1
       1       7       6       6       1       1       1       7       6       6
       1       1       1       7       6       6       1       1       1       7
       6       6       1       1       1       7       6       6       1       1
       1       7       6       6       1       1       1       7       6       6
       1       1       1       7       6       6       1       1       1       7
       6       6       1       1       1       7       6       6       1       1
       1       7       6       6       1       1       1       7       6       6
       1       1       1       7       6       6       1       1       1       7
       6       6       1       1       1       7       6       6       1       1
       1       7       6       6       1       1       1       7       6       6
       1       1       1       7       6       6       1       1       1       7
       6       6       1       1       1       7       6       6       1       1
       1       7       6       6       1       1       1       7       6       6
       1       1       1       7       6       6       1       1       1       7
       6       6       1       1       1       7       6       6       1       1
       1       7       6       6       1       1       1       7       6       6
       1       1       1       7       6       6       1       1       1       7
       6       6       1       1       1       7       6       6       1       1
       1       7       6       6       1       1       1       7       6       6
       1       1       1       7       6       6       1       1       1       7
       6       6       1       1       1       7       6       6       1       1
       1       7       6       6       1       1       1       7       6       6
       1       1       1       7       6       6       1       1       1       7
       6       6       1       1       1       7       6       6       1       1
       1       7       6       6       1       1       1       7       6       6
       1       1       1       7       6       6       1       1       1       7
       6       6       1       1       1       7       6       6       1       1
       1       7       6       6       1       1       1       7       6       6
       1       1       1       7       6       6       1       1       1       7
       6       6       1       1       1       7       6       6       1       1
       1       7       6       6       1       1       1       7       6       6
       1       1       1       7       6       6       1       1       1       7
       6       6       1       1       1       7       6       6       1       1
       1       7       6       6       1       1       1       7       6       6
       1       1       1       7       6       6       1       1       1       7
       6       6       1       1       1       7       6       6       1       1
       1       7       6       6       1       1       1       7       6       6
       1       1       1       7       6       6       1       1       1       7
       6       6       1       1       1       7       6       6       1       1
       1       7       6       6       1       1       1       7       6       6
       1       1       1       7       6       6       1       1       1       7
       6       6       1       1       1       7       6       6       1       1
       1       7       6       6       1       1       1       7       6       6
       1       1       1       7       6       6       1       1       1       7
       6       6       1       1       1       7       6       6       1       1
       1       7       6       6       1       1       1       7       6       6
       1       1       1       7       6       6       1       1       1       7
       6       6       1       1       1       7       6       6       1       1
       1       7       6       6       1       1       1       7       6       6
       1       1       1       7       6       6       1       1       1       7
       6       6       1       1       1       7       6       6       1       1
       1       7       6       6       1       1       1       7       6       6
       1       1       1       7       6       6       1       1       1       7
       6       6       1       1       1       7       6       6       1       1
       1       7       6       6       1       1       1       7       6       6
       1       1       1       7       6       6       1       1       1       7
       6       6       1       1       1       7       6       6       1       1
       1       7       6       6       1       1       1       7       6       6
       1       1       1       7       6       6       1       1       1       7
       6       6       1       1       1       7       6       6       1       1
       1       7       6       6       1       1       1       7       6       6
       1       1       1       7       6       6       1       1       1       7
       6       6       1       1       1       7       6       6       1       1
       1       7       6       6       1       1       1       7       6       6
       1       1       1       7       6       6       1       1       1       7
       6       6       1       1       1       7       6       6       1       1
       1       7       6       6       1       1       1       7       6       6
       1       1       1       7       6       6       1       1       1       7
       6       6       1       1       1       7       6       6       1       1
       1       7       6       6       1       1       1       7       6       6
       1       1       1       7       6       6       1       1       1       7
       6       6       1       1       1       7       6       6       1       1
       1       7       6       6       1       1       1       7       6       6
       1       1       1       7       6       6       1       1       1       7
       6       6       1       1       1       7       6       6       1       1
       1       7       6       6       1       1       1       7       6       6
       1       1       1       7       6       6       1       1       1       7
       6       6       1       1       1       7       6       6       1       1
       1       7       6       6       1       1       1       7       6       6
       1       1       1       7       6       6       1       1       1       7
       6       6       1       1       1       7       6       6       1       1
       1       7       6       6       1       1       1       7       6       6
       1       1       1       7       6       6       1       1       1       7
       6       6       1       1       1       7       6       6       1       1
       1       7       6       6       1       1       1       7       6       6
       1       1       1       7       6       6       1       1       1       7
       6       6       1       1       1       7       6       6       1       1
       1       7       6       6       1       1       1       7       6       6
       1       1       1       7       6       6       1       1       1       7
       6       6       1       1       1       7       6       6       1       1
       1       7       6       6       1       1       1       7       6       6
       1       1       1       7       6       6       1       1       1       7
       6       6       1       1       1       7       6       6       1       1
       1       7       6       6       1       1       1       7       6       6
       1       1       1       7       6       6       1       1       1       7
       6       6       1       1       1       7       6       6       1       1
       1       7       6       6       1       1       1       7       6       6
       1       1       1       7       6       6       1       1       1       7
       6       6       1       1       1       7       6       6       1       1
       1       7       6       6       1       1       1       7       6       6
       1       1       1       7       6       6       1       1       1       7
       6       6       1       1       1       7       6       6       1       1
       1       7       6       6       1       1       1       7       6       6
       1       1       1       7       6       6       1       1       1       7
       6       6       1       1       1       7       6       6       1       1
       1       7       6       6       1       1       1       7       6       6
       1       1       1       7       6       6       1       1       1       7
       6       6       1       1       1       7       6       6       1       1
       1       7       6       6       1       1       1       7       6       6
       1       1       1       7       6       6       1       1       1       7
       6       6       1       1       1       7       6       6       1       1
       1       7       6       6       1       1       1       7       6       6
       1       1       1       7       6       6       1       1       1       7
       6       6       1       1       1       7       6       6       1       1
       1       7       6       6       1       1       1       7       6       6
       1       1       1       7       6       6       1       1       1       7
       6       6       1       1       1       7       6       6       1       1
       1       7       6       6       1       1       1       7       6       6
       1       1       1       7       6       6       1       1       1       7
       6       6       1       1       1       7       6       6       1       1
       1       7       6       6       1       1       1       7       6       6
       1       1       1       7       6       6       1       1       1       7
       6       6       1       1       1       7       6       6       1       1
       1       7       6       6       1       1       1       7       6       6
       1       1       1       7       6       6       1       1       1       7
       6       6       1       1       1       7       6       6       1       1
       1       7       6       6       1       1       1       7       6       6
       1       1       1       7       6       6       1       1       1       7
       6       6       1       1       1       7       6       6       1       1
       1       7       6       6       1       1       1       7       6       6
       1       1       1       7       6       6       1       1       1       7
       6       6       1       1       1       7       6       6       1       1
       1       7       6       6       1       1       1       7       6       6
       1       1       1       7       6       6       1       1       1       7
       6       6       1       1       1       7       6       6       1       1
       1       7       6       6       1       1       1       7       6       6
       1       1       1       7       6       6       1       1       1       7
       6       6       1       1       1       7       6       6       1       1
       1       7       6       6       1       1       1       7       6       6
       1       1       1       7       6       6       1       1       1       7
       6       6       1       1       1       7       6       6       1       1
       1       7       6       6       1       1       1       7       6       6
       1       1       1       7       6       6       1       1       1       7
       6       6       1       1       1       7       6       6       1       1
       1       7       6       6       1       1       1       7       6       6
       1       1       1       7       6       6       1       1       1       7
       6       6       1       1       1       7       6       6       1       1
       1       7       6       6       1       1       1       7       6       6
       1       1       1       7       6       6       1       1       1       7
       6       6       1       1       1       7       6       6       1       1
       1       7       6       6       1       1       1       7       6       6
       1       1       1       7       6       6       1       1       1       7
       6       6       1       1       1       7       6       6       1       1
       1       7       6       6       1       1       1       7       6       6
       1       1       1       7       6       6       1       1       1       7
       6       6       1       1       1       7       6       6       1       1
       1       7       6       6       1       1       1       7       6       6
       1       1       1       7       6       6       1       1       1       7
       6       6       1       1       1       7       6       6       1       1
       1       7       6       6       1       1       1       7       6       6
       1       1       1       7       6       6       1       1       1       7
       6       6       1       1       1       7       6       6       1       1
       1       7       6       6       1       1       1       7       6       6
       1       1       1       7       6       6       1       1       1       7
       6       6       1       1       1       7       6       6       1       1
       1       7       6       6       1       1       1       7       6       6
       1       1       1       7       6       6       1       1       1       7
       6       6       1       1       1       7       6       6       1       1
       1       7       6       6       1       1       1       7       6       6
       1       1       1       7       6       6       1       1       1       7
       6       6       1       1       1       7       6       6       1       1
       1       7       6       6       1       1       1       7       6       6
       1       1       1       7       6       6       1       1       1       7
       6       6       1       1       1       7       6       6       1       1
       1       7       6       6       1       1       1       7       6       6
       1       1       1       7       6       6       1       1       1       7
       6       6       1       1       1       7       6       6       1       1
       1       7       6       6       1       1       1       7       6       6
       1       1       1       7       6       6       1       1       1       7
       6       6       1       1       1       7       6       6       1       1
       1       7       6       6       1       1       1       7       6       6
       1       1       1       7       6       6       1       1       1       7
       6       6       1       1       1       7       6       6       1       1
       1       7       6       6       1       1       1       7       6       6
       1       1       1       7       6       6       1       1       1       7
       6       6       1       1       1       7       6       6       1       1
       1       7       6       6       1       1       1       7       6       6
       1       1       1       7       6       6       1       1       1       7
       6       6       1       1       1       7       6       6       1       1
       1       7       6       6       1       1       1       7       6       6
       1       1       1       7       6       6       1       1       1       7
       6       6       1       1       1       7       6       6       1       1
       1       7       6       6       1       1       1       7       6       6
       1       1       1       7       6       6       1       1       1       7
       6       6       1       1       1       7       6       6       1       1
       1       7       6       6       1       1       1       7       6       6
       1       1       1       7       6       6       1       1       1       7
       6       6       1       1       1       7       6       6       1       1
       1       7       6       6       1       1       1       7       6       6
       1       1       1       7       6       6       1       1       1       7
       6       6       1       1       1       7       6       6       1       1
       1       7       6       6       1       1       1       7       6       6
       1       1       1       7       6       6       1       1       1       7
       6       6       1       1       1       7       6       6       1       1
       1       7       6       6       1       1       1       7       6       6
       1       1       1       7       6       6       1       1       1       7
       6       6       1       1       1       7       6       6       1       1
       1       7       6       6       1       1       1       7       6       6
       1       1       1       7       6       6       1       1       1       7
       6       6       1       1       1       7       6       6       1       1
       1       7       6       6       1       1       1       7       6       6
       1       1       1       7       6       6       1       1       1       7
       6       6       1       1       1       7       6       6       1       1
       1       7       6       6       1       1       1       7       6       6
       1       1       1       7       6       6       1       1       1       7
       6       6       1       1       1       7       6       6       1       1
       1       7       6       6       1       1       1       7       6       6
       1       1       1       7       6       6       1       1       1       7
       6       6       1       1       1       7       6       6       1       1
       1       7       6       6       1       1       1       7       6       6
       1       1       1       7       6       6       1       1       1       7
       6       6       1       1       1       7       6       6       1       1
       1       7       6       6       1       1       1       7       6       6
       1       1       1       7       6       6       1       1       1       7
       6       6       1       1       1       7       6       6       1       1
       1       7       6       6       1       1       1       7       6       6
       1       1       1       7       6       6       1       1       1       7
       6       6       1       1       1       7       6       6       1       1
       1       7       6       6       1       1       1       7       6       6
       1       1       1       7       6       6       1       1       1       7
       6       6       1       1       1       7       6       6       1       1
       1       7       6       6       1       1       1       7       6       6
       1       1       1       7       6       6       1       1       1       7
       6       6       1       1       1       7       6       6       1       1
       1       7       6       6       1       1       1       7       6       6
       1       1       1       7       6       6       1       1       1       7
       6       6       1       1       1       7       6       6       1       1
       1       7       6       6       1       1       1       7       6       6
       1       1       1       7       6       6       1       1       1       7
       6       6       1       1       1       7       6       6       1       1
       1       7       6       6       1       1       1       7       6       6
       1       1       1       7       6       6       1       1       1       7
       6       6       1       1       1       7       6       6       1       1
       1       7       6       6       1       1       1       7       6       6
       1       1       1       7       6       6       1       1       1       7
       6       6       1       1       1       7       6       6       1       1
       1       7       6       6       1       1       1       7       6       6
       1       1       1       7       6       6       1       1       1       7
       6       6       1       1       1       7       6       6       1       1
       1       7       6       6       1       1       1       7       6       6
       1       1       1       7       6       6       1       1       1       7
       6       6       1       1       1       7       6       6       1       1
       1       7       6       6       1       1       1       7       6       6
       1       1       1       7       6       6       1       1       1       7
       6       6       1       1       1       7       6       6       1       1
       1       7       6       6       1       1       1       7       6       6
       1       1       1       7       6       6       1       1       1       7
       6       6       1       1       1       7       6       6       1       1
       1       7       6       6       1       1       1       7       6       6
       1       1       1       7       6       6       1       1       1       7
       6       6       1       1       1       7       6       6       1       1
       1       7       6       6       1       1       1       7       6       6
       1       1       1       7       6       6       1       1       1       7
       6       6       1       1       1       7       6       6       1       1
       1       7       6       6       1       1       1       7       6       6
       1       1       1       7       6       6       1       1       1       7
       6       6       1       1       1       7       6       6       1       1
       1       7       6       6       1       1       1       7       6       6
       1       1       1       7       6       6       1       1       1       7
       6       6       1       1       1       7       6       6       1       1
       1       7       6       6       1       1       1       7       6       6
       1       1       1       7       6       6       1       1       1       7
       6       6       1       1       1       7       6       6       1       1
       1       7       6       6       1       1       1       7       6       6
       1       1       1       7       6       6       1       1       1       7
       6       6       1       1       1       7       6       6       1       1
       1       7       6       6       1       1       1       7       6       6
       1       1       1       7       6       6       1       1       1       7
       6       6       1       1       1       7       6       6       1       1
       1       7       6       6       1       1       1       7       6       6
       1       1       1       7       6       6       1       1       1       7
       6       6       1       1       1       7       6       6       1       1
       1       7       6       6       1       1       1       7       6       6
       1       1       1       7       6       6       1       1       1       7
       6       6       1       1       1       7       6       6       1       1
       1       7       6       6       1       1       1       7       6       6
       1       1       1       7       6       6       1       1       1       7
       6       6       1       1       1       7       6       6       1       1
       1       7       6       6       1       1       1       7       6       6
       1       1       1       7       6       6       1       1       1       7
       6       6       1       1       1       7       6       6       1       1
       1       7       6       6       1       1       1       7       6       6
       1       1       1       7       6       6       1       1       1       7
       6       6       1       1       1       7       6       6       1       1
       1       7       6       6       1       1       1       7       6       6
       1       1       1       7       6       6       1       1       1       7
       6       6       1       1       1       7       6       6       1       1
       1       7       6       6       1       1       1       7       6       6
       1       1       1       7       6       6       1       1       1       7
       6       6       1       1       1       7       6       6       1       1
       1       7       6       6       1       1       1       7       6       6
       1       1       1       7       6       6       1       1       1       7
       6       6       1       1       1       7       6       6       1       1
       1       7       6       6       1       1       1       7       6       6
       1       1       1       7       6       6       1       1       1       7
       6       6       1       1       1       7       6       6       1       1
       1       7       6       6       1       1       1       7       6       6
       1       1       1       7       6       6       1       1       1       7
       6       6       1       1       1       7       6       6       1       1
       1       7       6       6       1       1       1       7       6       6
       1       1       1       7       6       6       1       1       1       7
       6       6       1       1       1       7       6       6       1       1
       1       7       6       6       1       1       1       7       6       6
       1       1       1       7       6       6       1       1       1       7
       6       6       1       1       1       7       6       6       1       1
       1       7       6       6       1       1       1       7       6       6
       1       1       1       7       6       6       1       1       1       7
       6       6       1       1       1       7       6       6       1       1
       1       7       6       6       1       1       1       7       6       6
       1       1       1       7       6       6       1       1       1       7
       6       6       1       1       1       7       6       6       1       1
       1       7       6       6       1       1       1       7       6       6
       1       1       1       7       6       6       1       1       1       7
       6       6       1       1       1       7       6       6       1       1
       1       7       6       6       1       1       1       7       6       6
       1       1       1       7       6       6       1       1       1       7
       6       6       1       1       1       7       6       6       1       1
       1       7       6       6       1       1       1       7       6       6
       1       1       1       7       6       6       1       1       1       7
       6       6       1       1       1       7       6       6       1       1
       1       7       6       6       1       1       1       7       6       6
       1       1       1       7       6       6       1       1       1       7
       6       6       1       1       1       7       6       6       1       1
       1       7       6       6       1       1       1       7       6       6
       1       1       1       7       6       6       1       1       1       7
       6       6       1       1       1       7       6       6       1       1
       1       7       6       6       1       1       1       7       6       6
       1       1       1       7       6       6       1       1       1       7
       6       6       1       1       1       7       6       6       1       1
       1       7       6       6       1       1       1       7       6       6
       1       1       1       7       6       6       1       1       1       7
       6       6       1       1       1       7       6       6       1       1
       1       7       6       6       1       1       1       7       6       6
       1       1       1       7       6       6       1       1       1       7
       6       6       1       1       1       7       6       6       1       1
       1       7       6       6       1       1       1       7       6       6
       1       1       1       7       6       6       1       1       1       7
       6       6       1       1       1       7       6       6       1       1
       1       7       6       6       1       1       1       7       6       6
       1       1       1       7       6       6       1       1       1       7
       6       6       1       1       1       7       6       6       1       1
       1       7       6       6       1       1       1       7       6       6
       1       1       1       7       6       6       1       1       1       7
       6       6       1       1       1       7       6       6       1       1
       1       7       6       6       1       1       1       7       6       6
       1       1       1       7       6       6       1       1       1       7
       6       6       1       1       1       7       6       6       1       1
       1       7       6       6       1       1       1       7       6       6
       1       1       1       7       6       6       1       1       1       7
       6       6       1       1       1       7       6       6       1       1
       1       7       6       6       1       1       1       7       6       6
       1       1       1       7       6       6       1       1       1       7
       6       6       1       1       1       7       6       6       1       1
       1       7       6       6       1       1       1       7       6       6
       1       1       1       7       6       6       1       1       1       7
       6       6       1       1       1       7       6       6       1       1
       1       7       6       6       1       1       1       7       6       6
       1       1       1       7       6       6       1       1       1       7
       6       6       1       1       1       7       6       6       1       1
       1       7       6       6       1       1       1       7       6       6
       1       1       1       7       6       6       1       1       1       7
       6       6       1       1       1       7       6       6       1       1
       1       7       6       6       1       1       1       7       6       6
       1       1       1       7       6       6       1       1       1       7
       6       6       1       1       1       7       6       6       1       1
       1       7       6       6       1       1       1       7       6       6
       1       1       1       7       6       6       1       1       1       7
       6       6       1       1       1       7       6       6       1       1
       1       7       6       6       1       1       1       7       6       6
       1       1       1       7       6       6       1       1       1       7
       6       6       1       1       1       7       6       6       1       1
       1       7       6       6       1       1       1       7       6       6
       1       1       1       7       6       6       1       1       1       7
       6       6       1       1       1       7       6       6       1       1
       1       7       6       6       1       1       1       7       6       6
       1       1       1       7       6       6       1       1       1       7
       6       6       1       1       1       7       6       6       1       1
       1       7       6       6       1       1       1       7       6       6
       1       1       1       7       6       6       1       1       1       7
       6       6       1       1       1       7       6       6       1       1
       1       7       6       6       1       1       1       7       6       6
       1       1       1       7       6       6       1       1       1       7
       6       6       1       1       1       7       6       6       1       1
       1       7       6       6       1       1       1       7       6       6
       1       1       1       7       6       6       1       1       1       7
       6       6       1       1       1       7       6       6       1       1
       1       7       6       6       1       1       1       7       6       6
       1       1       1       7       6       6       1       1       1       7
       6       6       1       1       1       7       6       6       1       1
       1       7       6       6       1       1       1       7       6       6
       1       1       1       7       6       6       1       1       1       7
       6       6       1       1       1       7       6       6       1       1
       1       7       6       6       1       1       1       7       6       6
       1       1       1       7       6       6       1       1       1       7
       6       6       1       1       1       7       6       6       1       1
       1       7       6       6       1       1       1       7       6       6
       1       1       1       7       6       6       1       1       1       7
       6       6       1       1       1       7       6       6       1       1
       1       7       6       6       1       1       1       7       6       6
       1       1       1       7       6       6       1       1       1       7
       6       6       1       1       1       7       6       6       1       1
       1       7       6       6       1       1       1       7       6       6
       1       1       1       7       6       6       1       1       1       7
       6       6       1       1       1       7       6       6       1       1
       1       7       6       6       1       1       1       7       6       6
       1       1       1       7       6       6       1       1       1       7
       6       6       1       1       1       7       6       6       1       1
       1       7       6       6       1       1       1       7       6       6
       1       1       1       7       6       6       1       1       1       7
       6       6       1       1       1       7       6       6       1       1
       1       7       6       6       1       1       1       7       6       6
       1       1       1       7       6       6       1       1       1       7
       6       6       1       1       1       7       6       6       1       1
       1       7       6       6       1       1       1       7       6       6
       1       1       1       7       6       6       1       1       1       7
       6       6       1       1       1       7       6       6       1       1
       1       7       6       6       1       1       1       7       6       6
       1       1       1       7       6       6       1       1       1       7
       6       6       1       1       1       7       6       6       1       1
       1       7       6       6       1       1       1       7       6       6
       1       1       1       7       6       6       1       1       1       7
       6       6       1       1       1       7       6       6       1       1
       1       7       6       6       1       1       1       7       6       6
       1       1       1       7       6       6       1       1       1       7
       6       6       1       1       1       7       6       6       1       1
       1       7       6       6       1       1       1       7       6       6
       1       1       1       7       6       6       1       1       1       7
       6       6       1       1       1       7       6       6       1       1
       1       7       6       6       1       1       1       7       6       6
       1       1       1       7       6       6       1       1       1       7
       6       6       1       1       1       7       6       6       1       1
       1       7       6       6       1       1       1       7       6       6
       1       1       1       7       6       6       1       1       1       7
       6       6       1       1       1       7       6       6       1       1
       1       7       6       6       1       1       1       7       6       6
       1       1       1       7       6       6       1       1       1       7
       6       6       1       1       1       7       6       6       1       1
       1       7       6       6       1       1       1       7       6       6
       1       1       1       7       6       6       1       1       1       7
       6       6       1       1       1       7       6       6       1       1
       1       7       6       6       1       1       1       7       6       6
       1       1       1       7       6       6       1       1       1       7
       6       6       1       1       1       7       6       6       1       1
       1       7       6       6       1       1       1       7       6       6
       1       1       1       7       6       6       1       1       1       7
       6       6       1       1       1       7       6       6       1       1
       1       7       6       6       1       1       1       7       6       6
       1       1       1       7       6       6       1       1       1       7
       6       6       1       1       1       7       6       6       1       1
       1       7       6       6       1       1       1       7       6       6
       1       1       1       7       6       6       1       1       1       7
       6       6       1       1       1       7       6       6       1       1
       1       7       6       6       1       1       1       7       6       6
       1       1       1       7       6       6       1       1       1       7
       6       6       1       1       1       7       6       6       1       1
       1       7       6       6       1       1       1       7       6       6
       1       1       1       7       6       6       1       1       1       7
       6       6       1       1       1       7       6       6       1       1
       1       7       6       6       1       1       1       7       6       6
       1       1       1       7       6       6       1       1       1       7
       6       6       1       1       1       7       6       6       1       1
       1       7       6       6       1       1       1       7       6       6
       1       1       1       7       6       6       1       1       1       7
       6       6       1       1       1       7       6       6       1       1
       1       7       6       6       1       1       1       7       6       6
       1       1       1       7       6       6       1       1       1       7
       6       6       1       1       1       7       6       6       1       1
       1       7       6       6       1       1       1       7       6       6
       1       1       1       7       6       6       1       1       1       7
       6       6       1       1       1       7       6       6       1       1
       1       7       6       6       1       1       1       7       6       6
       1       1       1       7       6       6       1       1       1       7
       6       6       1       1       1       7       6       6       1       1
       1       7       6       6       1       1       1       7       6       6
       1       1       1       7       6       6       1       1       1       7
       6       6       1       1       1       7       6       6       1       1
       1       7       6       6       1       1       1       7       6       6
       1       1       1       7       6       6       1       1       1       7
       6       6       1       1       1       7       6       6       1       1
       1       7       6       6       1       1       1       7       6       6
       1       1       1       7       6       6       1       1       1       7
       6       6       1       1       1       7       6       6       1       1
       1       7       6       6       1       1       1       7       6       6
       1       1       1       7       6       6       1       1       1       7
       6       6       1       1       1       7       6       6       1       1
       1       7       6       6       1       1       1       7       6       6
       1       1       1       7       6       6       1       1       1       7
       6       6       1       1       1       7       6       6       1       1
       1       7       6       6       1       1       1       7       6       6
       1       1       1       7       6       6       1       1       1       7
       6       6       1       1       1       7       6       6       1       1
       1       7       6       6       1       1       1       7       6       6
       1       1       1       7       6       6       1       1       1       7
       6       6       1       1       1       7       6       6       1       1
       1       7       6       6       1       1       1       7       6       6
       1       1       1       7       6       6       1       1       1       7
       6       6       1       1       1       7       6       6       1       1
       1       7       6       6       1       1       1       7       6       6
       1       1       1       7       6       6       1       1       1       7
       6       6       1       1       1       7       6       6       1       1
       1       7       6       6       1       1       1       7       6       6
       1       1       1       7       6       6       1       1       1       7
       6       6       1       1       1       7       6       6       1       1
       1       7       6       6       1       1       1       7       6       6
       1       1       1       7       6       6       1       1       1       7
       6       6       1       1       1       7       6       6       1       1
       1       7       6       6       1       1       1
%FLAG MASS                                                                      
%FORMAT(5E16.8)                                                                 
  1.20100000E+01  1.20100000E+01  1.20100000E+01  1.20100000E+01  1.20100000E+01
  1.20100000E+01  1.20100000E+01  1.20100000E+01  1.40100000E+01  1.20100000E+01
  1.20100000E+01  1.20100000E+01  1.20100000E+01  1.20100000E+01  1.20100000E+01
  1.20100000E+01  1.20100000E+01  1.20100000E+01  1.20100000E+01  1.20100000E+01
  1.40100000E+01  1.20100000E+01  1.20100000E+01  1.20100000E+01  1.20100000E+01
  1.20100000E+01  1.20100000E+01  1.20100000E+01  1.00800000E+00  1.20100000E+01
  1.20100000E+01  3.54500000E+01  1.20100000E+01  1.20100000E+01  1.00800000E+00
  1.00800000E+00  1.00800000E+00  1.00800000E+00  1.00800000E+00  1.20100000E+01
  1.00800000E+00  1.00800000E+00  1.00800000E+00  1.00800000E+00  1.00800000E+00
  1.00800000E+00  1.00800000E+00  1.00800000E+00  1.00800000E+00  1.00800000E+00
  1.00800000E+00  1.00800000E+00  1.00800000E+00  1.00800000E+00  1.00800000E+00
  1.00800000E+00  1.00800000E+00  1.00800000E+00  1.00800000E+00  1.20100000E+01
  1.00800000E+00  1.00800000E+00  1.00800000E+00  1.20100000E+01  1.00800000E+00
  1.00800000E+00  1.00800000E+00  1.60000000E+01  1.60000000E+01  1.00800000E+00
  1.20100000E+01  1.00800000E+00  1.00800000E+00  1.00800000E+00  1.60000000E+01
  1.60000000E+01  1.00800000E+00  1.40100000E+01  1.20100000E+01  1.20100000E+01
  1.00800000E+00  1.00800000E+00  1.00800000E+00  1.40100000E+01  1.20100000E+01
  1.20100000E+01  1.00800000E+00  1.00800000E+00  1.00800000E+00  1.40100000E+01
  1.20100000E+01  1.20100000E+01  1.00800000E+00  1.00800000E+00  1.00800000E+00
  1.40100000E+01  1.20100000E+01  1.20100000E+01  1.00800000E+00  1.00800000E+00
  1.00800000E+00  1.40100000E+01  1.20100000E+01  1.20100000E+01  1.00800000E+00
  1.00800000E+00  1.00800000E+00  1.40100000E+01  1.20100000E+01  1.20100000E+01
  1.00800000E+00  1.00800000E+00  1.00800000E+00  1.40100000E+01  1.20100000E+01
  1.20100000E+01  1.00800000E+00  1.00800000E+00  1.00800000E+00  1.40100000E+01
  1.20100000E+01  1.20100000E+01  1.00800000E+00  1.00800000E+00  1.00800000E+00
  1.40100000E+01  1.20100000E+01  1.20100000E+01  1.00800000E+00  1.00800000E+00
  1.00800000E+00  1.40100000E+01  1.20100000E+01  1.20100000E+01  1.00800000E+00
  1.00800000E+00  1.00800000E+00  1.40100000E+01  1.20100000E+01  1.20100000E+01
  1.00800000E+00  1.00800000E+00  1.00800000E+00  1.40100000E+01  1.20100000E+01
  1.20100000E+01  1.00800000E+00  1.00800000E+00  1.00800000E+00  1.40100000E+01
  1.20100000E+01  1.20100000E+01  1.00800000E+00  1.00800000E+00  1.00800000E+00
  1.40100000E+01  1.20100000E+01  1.20100000E+01  1.00800000E+00  1.00800000E+00
  1.00800000E+00  1.40100000E+01  1.20100000E+01  1.20100000E+01  1.00800000E+00
  1.00800000E+00  1.00800000E+00  1.40100000E+01  1.20100000E+01  1.20100000E+01
  1.00800000E+00  1.00800000E+00  1.00800000E+00  1.40100000E+01  1.20100000E+01
  1.20100000E+01  1.00800000E+00  1.00800000E+00  1.00800000E+00  1.40100000E+01
  1.20100000E+01  1.20100000E+01  1.00800000E+00  1.00800000E+00  1.00800000E+00
  1.40100000E+01  1.20100000E+01  1.20100000E+01  1.00800000E+00  1.00800000E+00
  1.00800000E+00  1.40100000E+01  1.20100000E+01  1.20100000E+01  1.00800000E+00
  1.00800000E+00  1.00800000E+00  1.40100000E+01  1.20100000E+01  1.20100000E+01
  1.00800000E+00  1.00800000E+00  1.00800000E+00  1.40100000E+01  1.20100000E+01
  1.20100000E+01  1.00800000E+00  1.00800000E+00  1.00800000E+00  1.40100000E+01
  1.20100000E+01  1.20100000E+01  1.00800000E+00  1.00800000E+00  1.00800000E+00
  1.40100000E+01  1.20100000E+01  1.20100000E+01  1.00800000E+00  1.00800000E+00
  1.00800000E+00  1.40100000E+01  1.20100000E+01  1.20100000E+01  1.00800000E+00
  1.00800000E+00  1.00800000E+00  1.40100000E+01  1.20100000E+01  1.20100000E+01
  1.00800000E+00  1.00800000E+00  1.00800000E+00  1.40100000E+01  1.20100000E+01
  1.20100000E+01  1.00800000E+00  1.00800000E+00  1.00800000E+00  1.40100000E+01
  1.20100000E+01  1.20100000E+01  1.00800000E+00  1.00800000E+00  1.00800000E+00
  1.40100000E+01  1.20100000E+01  1.20100000E+01  1.00800000E+00  1.00800000E+00
  1.00800000E+00  1.40100000E+01  1.20100000E+01  1.20100000E+01  1.00800000E+00
  1.00800000E+00  1.00800000E+00  1.40100000E+01  1.20100000E+01  1.20100000E+01
  1.00800000E+00  1.00800000E+00  1.00800000E+00  1.40100000E+01  1.20100000E+01
  1.20100000E+01  1.00800000E+00  1.00800000E+00  1.00800000E+00  1.40100000E+01
  1.20100000E+01  1.20100000E+01  1.00800000E+00  1.00800000E+00  1.00800000E+00
  1.40100000E+01  1.20100000E+01  1.20100000E+01  1.00800000E+00  1.00800000E+00
  1.00800000E+00  1.40100000E+01  1.20100000E+01  1.20100000E+01  1.00800000E+00
  1.00800000E+00  1.00800000E+00  1.40100000E+01  1.20100000E+01  1.20100000E+01
  1.00800000E+00  1.00800000E+00  1.00800000E+00  1.40100000E+01  1.20100000E+01
  1.20100000E+01  1.00800000E+00  1.00800000E+00  1.00800000E+00  1.40100000E+01
  1.20100000E+01  1.20100000E+01  1.00800000E+00  1.00800000E+00  1.00800000E+00
  1.40100000E+01  1.20100000E+01  1.20100000E+01  1.00800000E+00  1.00800000E+00
  1.00800000E+00  1.40100000E+01  1.20100000E+01  1.20100000E+01  1.00800000E+00
  1.00800000E+00  1.00800000E+00  1.40100000E+01  1.20100000E+01  1.20100000E+01
  1.00800000E+00  1.00800000E+00  1.00800000E+00  1.40100000E+01  1.20100000E+01
  1.20100000E+01  1.00800000E+00  1.00800000E+00  1.00800000E+00  1.40100000E+01
  1.20100000E+01  1.20100000E+01  1.00800000E+00  1.00800000E+00  1.00800000E+00
  1.40100000E+01  1.20100000E+01  1.20100000E+01  1.00800000E+00  1.00800000E+00
  1.00800000E+00  1.40100000E+01  1.20100000E+01  1.20100000E+01  1.00800000E+00
  1.00800000E+00  1.00800000E+00  1.40100000E+01  1.20100000E+01  1.20100000E+01
  1.00800000E+00  1.00800000E+00  1.00800000E+00  1.40100000E+01  1.20100000E+01
  1.20100000E+01  1.00800000E+00  1.00800000E+00  1.00800000E+00  1.40100000E+01
  1.20100000E+01  1.20100000E+01  1.00800000E+00  1.00800000E+00  1.00800000E+00
  1.40100000E+01  1.20100000E+01  1.20100000E+01  1.00800000E+00  1.00800000E+00
  1.00800000E+00  1.40100000E+01  1.20100000E+01  1.20100000E+01  1.00800000E+00
  1.00800000E+00  1.00800000E+00  1.40100000E+01  1.20100000E+01  1.20100000E+01
  1.00800000E+00  1.00800000E+00  1.00800000E+00  1.40100000E+01  1.20100000E+01
  1.20100000E+01  1.00800000E+00  1.00800000E+00  1.00800000E+00  1.40100000E+01
  1.20100000E+01  1.20100000E+01  1.00800000E+00  1.00800000E+00  1.00800000E+00
  1.40100000E+01  1.20100000E+01  1.20100000E+01  1.00800000E+00  1.00800000E+00
  1.00800000E+00  1.40100000E+01  1.20100000E+01  1.20100000E+01  1.00800000E+00
  1.00800000E+00  1.00800000E+00  1.40100000E+01  1.20100000E+01  1.20100000E+01
  1.00800000E+00  1.00800000E+00  1.00800000E+00  1.40100000E+01  1.20100000E+01
  1.20100000E+01  1.00800000E+00  1.00800000E+00  1.00800000E+00  1.40100000E+01
  1.20100000E+01  1.20100000E+01  1.00800000E+00  1.00800000E+00  1.00800000E+00
  1.40100000E+01  1.20100000E+01  1.20100000E+01  1.00800000E+00  1.00800000E+00
  1.00800000E+00  1.40100000E+01  1.20100000E+01  1.20100000E+01  1.00800000E+00
  1.00800000E+00  1.00800000E+00  1.40100000E+01  1.20100000E+01  1.20100000E+01
  1.00800000E+00  1.00800000E+00  1.00800000E+00  1.40100000E+01  1.20100000E+01
  1.20100000E+01  1.00800000E+00  1.00800000E+00  1.00800000E+00  1.40100000E+01
  1.20100000E+01  1.20100000E+01  1.00800000E+00  1.00800000E+00  1.00800000E+00
  1.40100000E+01  1.20100000E+01  1.20100000E+01  1.00800000E+00  1.00800000E+00
  1.00800000E+00  1.40100000E+01  1.20100000E+01  1.20100000E+01  1.00800000E+00
  1.00800000E+00  1.00800000E+00  1.40100000E+01  1.20100000E+01  1.20100000E+01
  1.00800000E+00  1.00800000E+00  1.00800000E+00  1.40100000E+01  1.20100000E+01
  1.20100000E+01  1.00800000E+00  1.00800000E+00  1.00800000E+00  1.40100000E+01
  1.20100000E+01  1.20100000E+01  1.00800000E+00  1.00800000E+00  1.00800000E+00
  1.40100000E+01  1.20100000E+01  1.20100000E+01  1.00800000E+00  1.00800000E+00
  1.00800000E+00  1.40100000E+01  1.20100000E+01  1.20100000E+01  1.00800000E+00
  1.00800000E+00  1.00800000E+00  1.40100000E+01  1.20100000E+01  1.20100000E+01
  1.00800000E+00  1.00800000E+00  1.00800000E+00  1.40100000E+01  1.20100000E+01
  1.20100000E+01  1.00800000E+00  1.00800000E+00  1.00800000E+00  1.40100000E+01
  1.20100000E+01  1.20100000E+01  1.00800000E+00  1.00800000E+00  1.00800000E+00
  1.40100000E+01  1.20100000E+01  1.20100000E+01  1.00800000E+00  1.00800000E+00
  1.00800000E+00  1.40100000E+01  1.20100000E+01  1.20100000E+01  1.00800000E+00
  1.00800000E+00  1.00800000E+00  1.40100000E+01  1.20100000E+01  1.20100000E+01
  1.00800000E+00  1.00800000E+00  1.00800000E+00  1.40100000E+01  1.20100000E+01
  1.20100000E+01  1.00800000E+00  1.00800000E+00  1.00800000E+00  1.40100000E+01
  1.20100000E+01  1.20100000E+01  1.00800000E+00  1.00800000E+00  1.00800000E+00
  1.40100000E+01  1.20100000E+01  1.20100000E+01  1.00800000E+00  1.00800000E+00
  1.00800000E+00  1.40100000E+01  1.20100000E+01  1.20100000E+01  1.00800000E+00
  1.00800000E+00  1.00800000E+00  1.40100000E+01  1.20100000E+01  1.20100000E+01
  1.00800000E+00  1.00800000E+00  1.00800000E+00  1.40100000E+01  1.20100000E+01
  1.20100000E+01  1.00800000E+00  1.00800000E+00  1.00800000E+00  1.40100000E+01
  1.20100000E+01  1.20100000E+01  1.00800000E+00  1.00800000E+00  1.00800000E+00
  1.40100000E+01  1.20100000E+01  1.20100000E+01  1.00800000E+00  1.00800000E+00
  1.00800000E+00  1.40100000E+01  1.20100000E+01  1.20100000E+01  1.00800000E+00
  1.00800000E+00  1.00800000E+00  1.40100000E+01  1.20100000E+01  1.20100000E+01
  1.00800000E+00  1.00800000E+00  1.00800000E+00  1.40100000E+01  1.20100000E+01
  1.20100000E+01  1.00800000E+00  1.00800000E+00  1.00800000E+00  1.40100000E+01
  1.20100000E+01  1.20100000E+01  1.00800000E+00  1.00800000E+00  1.00800000E+00
  1.40100000E+01  1.20100000E+01  1.20100000E+01  1.00800000E+00  1.00800000E+00
  1.00800000E+00  1.40100000E+01  1.20100000E+01  1.20100000E+01  1.00800000E+00
  1.00800000E+00  1.00800000E+00  1.40100000E+01  1.20100000E+01  1.20100000E+01
  1.00800000E+00  1.00800000E+00  1.00800000E+00  1.40100000E+01  1.20100000E+01
  1.20100000E+01  1.00800000E+00  1.00800000E+00  1.00800000E+00  1.40100000E+01
  1.20100000E+01  1.20100000E+01  1.00800000E+00  1.00800000E+00  1.00800000E+00
  1.40100000E+01  1.20100000E+01  1.20100000E+01  1.00800000E+00  1.00800000E+00
  1.00800000E+00  1.40100000E+01  1.20100000E+01  1.20100000E+01  1.00800000E+00
  1.00800000E+00  1.00800000E+00  1.40100000E+01  1.20100000E+01  1.20100000E+01
  1.00800000E+00  1.00800000E+00  1.00800000E+00  1.40100000E+01  1.20100000E+01
  1.20100000E+01  1.00800000E+00  1.00800000E+00  1.00800000E+00  1.40100000E+01
  1.20100000E+01  1.20100000E+01  1.00800000E+00  1.00800000E+00  1.00800000E+00
  1.40100000E+01  1.20100000E+01  1.20100000E+01  1.00800000E+00  1.00800000E+00
  1.00800000E+00  1.40100000E+01  1.20100000E+01  1.20100000E+01  1.00800000E+00
  1.00800000E+00  1.00800000E+00  1.40100000E+01  1.20100000E+01  1.20100000E+01
  1.00800000E+00  1.00800000E+00  1.00800000E+00  1.40100000E+01  1.20100000E+01
  1.20100000E+01  1.00800000E+00  1.00800000E+00  1.00800000E+00  1.40100000E+01
  1.20100000E+01  1.20100000E+01  1.00800000E+00  1.00800000E+00  1.00800000E+00
  1.40100000E+01  1.20100000E+01  1.20100000E+01  1.00800000E+00  1.00800000E+00
  1.00800000E+00  1.40100000E+01  1.20100000E+01  1.20100000E+01  1.00800000E+00
  1.00800000E+00  1.00800000E+00  1.40100000E+01  1.20100000E+01  1.20100000E+01
  1.00800000E+00  1.00800000E+00  1.00800000E+00  1.40100000E+01  1.20100000E+01
  1.20100000E+01  1.00800000E+00  1.00800000E+00  1.00800000E+00  1.40100000E+01
  1.20100000E+01  1.20100000E+01  1.00800000E+00  1.00800000E+00  1.00800000E+00
  1.40100000E+01  1.20100000E+01  1.20100000E+01  1.00800000E+00  1.00800000E+00
  1.00800000E+00  1.40100000E+01  1.20100000E+01  1.20100000E+01  1.00800000E+00
  1.00800000E+00  1.00800000E+00  1.40100000E+01  1.20100000E+01  1.20100000E+01
  1.00800000E+00  1.00800000E+00  1.00800000E+00  1.40100000E+01  1.20100000E+01
  1.20100000E+01  1.00800000E+00  1.00800000E+00  1.00800000E+00  1.40100000E+01
  1.20100000E+01  1.20100000E+01  1.00800000E+00  1.00800000E+00  1.00800000E+00
  1.40100000E+01  1.20100000E+01  1.20100000E+01  1.00800000E+00  1.00800000E+00
  1.00800000E+00  1.40100000E+01  1.20100000E+01  1.20100000E+01  1.00800000E+00
  1.00800000E+00  1.00800000E+00  1.40100000E+01  1.20100000E+01  1.20100000E+01
  1.00800000E+00  1.00800000E+00  1.00800000E+00  1.40100000E+01  1.20100000E+01
  1.20100000E+01  1.00800000E+00  1.00800000E+00  1.00800000E+00  1.40100000E+01
  1.20100000E+01  1.20100000E+01  1.00800000E+00  1.00800000E+00  1.00800000E+00
  1.40100000E+01  1.20100000E+01  1.20100000E+01  1.00800000E+00  1.00800000E+00
  1.00800000E+00  1.40100000E+01  1.20100000E+01  1.20100000E+01  1.00800000E+00
  1.00800000E+00  1.00800000E+00  1.40100000E+01  1.20100000E+01  1.20100000E+01
  1.00800000E+00  1.00800000E+00  1.00800000E+00  1.40100000E+01  1.20100000E+01
  1.20100000E+01  1.00800000E+00  1.00800000E+00  1.00800000E+00  1.40100000E+01
  1.20100000E+01  1.20100000E+01  1.00800000E+00  1.00800000E+00  1.00800000E+00
  1.40100000E+01  1.20100000E+01  1.20100000E+01  1.00800000E+00  1.00800000E+00
  1.00800000E+00  1.40100000E+01  1.20100000E+01  1.20100000E+01  1.00800000E+00
  1.00800000E+00  1.00800000E+00  1.40100000E+01  1.20100000E+01  1.20100000E+01
  1.00800000E+00  1.00800000E+00  1.00800000E+00  1.40100000E+01  1.20100000E+01
  1.20100000E+01  1.00800000E+00  1.00800000E+00  1.00800000E+00  1.40100000E+01
  1.20100000E+01  1.20100000E+01  1.00800000E+00  1.00800000E+00  1.00800000E+00
  1.40100000E+01  1.20100000E+01  1.20100000E+01  1.00800000E+00  1.00800000E+00
  1.00800000E+00  1.40100000E+01  1.20100000E+01  1.20100000E+01  1.00800000E+00
  1.00800000E+00  1.00800000E+00  1.40100000E+01  1.20100000E+01  1.20100000E+01
  1.00800000E+00  1.00800000E+00  1.00800000E+00  1.40100000E+01  1.20100000E+01
  1.20100000E+01  1.00800000E+00  1.00800000E+00  1.00800000E+00  1.40100000E+01
  1.20100000E+01  1.20100000E+01  1.00800000E+00  1.00800000E+00  1.00800000E+00
  1.40100000E+01  1.20100000E+01  1.20100000E+01  1.00800000E+00  1.00800000E+00
  1.00800000E+00  1.40100000E+01  1.20100000E+01  1.20100000E+01  1.00800000E+00
  1.00800000E+00  1.00800000E+00  1.40100000E+01  1.20100000E+01  1.20100000E+01
  1.00800000E+00  1.00800000E+00  1.00800000E+00  1.40100000E+01  1.20100000E+01
  1.20100000E+01  1.00800000E+00  1.00800000E+00  1.00800000E+00  1.40100000E+01
  1.20100000E+01  1.20100000E+01  1.00800000E+00  1.00800000E+00  1.00800000E+00
  1.40100000E+01  1.20100000E+01  1.20100000E+01  1.00800000E+00  1.00800000E+00
  1.00800000E+00  1.40100000E+01  1.20100000E+01  1.20100000E+01  1.00800000E+00
  1.00800000E+00  1.00800000E+00  1.40100000E+01  1.20100000E+01  1.20100000E+01
  1.00800000E+00  1.00800000E+00  1.00800000E+00  1.40100000E+01  1.20100000E+01
  1.20100000E+01  1.00800000E+00  1.00800000E+00  1.00800000E+00  1.40100000E+01
  1.20100000E+01  1.20100000E+01  1.00800000E+00  1.00800000E+00  1.00800000E+00
  1.40100000E+01  1.20100000E+01  1.20100000E+01  1.00800000E+00  1.00800000E+00
  1.00800000E+00  1.40100000E+01  1.20100000E+01  1.20100000E+01  1.00800000E+00
  1.00800000E+00  1.00800000E+00  1.40100000E+01  1.20100000E+01  1.20100000E+01
  1.00800000E+00  1.00800000E+00  1.00800000E+00  1.40100000E+01  1.20100000E+01
  1.20100000E+01  1.00800000E+00  1.00800000E+00  1.00800000E+00  1.40100000E+01
  1.20100000E+01  1.20100000E+01  1.00800000E+00  1.00800000E+00  1.00800000E+00
  1.40100000E+01  1.20100000E+01  1.20100000E+01  1.00800000E+00  1.00800000E+00
  1.00800000E+00  1.40100000E+01  1.20100000E+01  1.20100000E+01  1.00800000E+00
  1.00800000E+00  1.00800000E+00  1.40100000E+01  1.20100000E+01  1.20100000E+01
  1.00800000E+00  1.00800000E+00  1.00800000E+00  1.40100000E+01  1.20100000E+01
  1.20100000E+01  1.00800000E+00  1.00800000E+00  1.00800000E+00  1.40100000E+01
  1.20100000E+01  1.20100000E+01  1.00800000E+00  1.00800000E+00  1.00800000E+00
  1.40100000E+01  1.20100000E+01  1.20100000E+01  1.00800000E+00  1.00800000E+00
  1.00800000E+00  1.40100000E+01  1.20100000E+01  1.20100000E+01  1.00800000E+00
  1.00800000E+00  1.00800000E+00  1.40100000E+01  1.20100000E+01  1.20100000E+01
  1.00800000E+00  1.00800000E+00  1.00800000E+00  1.40100000E+01  1.20100000E+01
  1.20100000E+01  1.00800000E+00  1.00800000E+00  1.00800000E+00  1.40100000E+01
  1.20100000E+01  1.20100000E+01  1.00800000E+00  1.00800000E+00  1.00800000E+00
  1.40100000E+01  1.20100000E+01  1.20100000E+01  1.00800000E+00  1.00800000E+00
  1.00800000E+00  1.40100000E+01  1.20100000E+01  1.20100000E+01  1.00800000E+00
  1.00800000E+00  1.00800000E+00  1.40100000E+01  1.20100000E+01  1.20100000E+01
  1.00800000E+00  1.00800000E+00  1.00800000E+00  1.40100000E+01  1.20100000E+01
  1.20100000E+01  1.00800000E+00  1.00800000E+00  1.00800000E+00  1.40100000E+01
  1.20100000E+01  1.20100000E+01  1.00800000E+00  1.00800000E+00  1.00800000E+00
  1.40100000E+01  1.20100000E+01  1.20100000E+01  1.00800000E+00  1.00800000E+00
  1.00800000E+00  1.40100000E+01  1.20100000E+01  1.20100000E+01  1.00800000E+00
  1.00800000E+00  1.00800000E+00  1.40100000E+01  1.20100000E+01  1.20100000E+01
  1.00800000E+00  1.00800000E+00  1.00800000E+00  1.40100000E+01  1.20100000E+01
  1.20100000E+01  1.00800000E+00  1.00800000E+00  1.00800000E+00  1.40100000E+01
  1.20100000E+01  1.20100000E+01  1.00800000E+00  1.00800000E+00  1.00800000E+00
  1.40100000E+01  1.20100000E+01  1.20100000E+01  1.00800000E+00  1.00800000E+00
  1.00800000E+00  1.40100000E+01  1.20100000E+01  1.20100000E+01  1.00800000E+00
  1.00800000E+00  1.00800000E+00  1.40100000E+01  1.20100000E+01  1.20100000E+01
  1.00800000E+00  1.00800000E+00  1.00800000E+00  1.40100000E+01  1.20100000E+01
  1.20100000E+01  1.00800000E+00  1.00800000E+00  1.00800000E+00  1.40100000E+01
  1.20100000E+01  1.20100000E+01  1.00800000E+00  1.00800000E+00  1.00800000E+00
  1.40100000E+01  1.20100000E+01  1.20100000E+01  1.00800000E+00  1.00800000E+00
  1.00800000E+00  1.40100000E+01  1.20100000E+01  1.20100000E+01  1.00800000E+00
  1.00800000E+00  1.00800000E+00  1.40100000E+01  1.20100000E+01  1.20100000E+01
  1.00800000E+00  1.00800000E+00  1.00800000E+00  1.40100000E+01  1.20100000E+01
  1.20100000E+01  1.00800000E+00  1.00800000E+00  1.00800000E+00  1.40100000E+01
  1.20100000E+01  1.20100000E+01  1.00800000E+00  1.00800000E+00  1.00800000E+00
  1.40100000E+01  1.20100000E+01  1.20100000E+01  1.00800000E+00  1.00800000E+00
  1.00800000E+00  1.40100000E+01  1.20100000E+01  1.20100000E+01  1.00800000E+00
  1.00800000E+00  1.00800000E+00  1.40100000E+01  1.20100000E+01  1.20100000E+01
  1.00800000E+00  1.00800000E+00  1.00800000E+00  1.40100000E+01  1.20100000E+01
  1.20100000E+01  1.00800000E+00  1.00800000E+00  1.00800000E+00  1.40100000E+01
  1.20100000E+01  1.20100000E+01  1.00800000E+00  1.00800000E+00  1.00800000E+00
  1.40100000E+01  1.20100000E+01  1.20100000E+01  1.00800000E+00  1.00800000E+00
  1.00800000E+00  1.40100000E+01  1.20100000E+01  1.20100000E+01  1.00800000E+00
  1.00800000E+00  1.00800000E+00  1.40100000E+01  1.20100000E+01  1.20100000E+01
  1.00800000E+00  1.00800000E+00  1.00800000E+00  1.40100000E+01  1.20100000E+01
  1.20100000E+01  1.00800000E+00  1.00800000E+00  1.00800000E+00  1.40100000E+01
  1.20100000E+01  1.20100000E+01  1.00800000E+00  1.00800000E+00  1.00800000E+00
  1.40100000E+01  1.20100000E+01  1.20100000E+01  1.00800000E+00  1.00800000E+00
  1.00800000E+00  1.40100000E+01  1.20100000E+01  1.20100000E+01  1.00800000E+00
  1.00800000E+00  1.00800000E+00  1.40100000E+01  1.20100000E+01  1.20100000E+01
  1.00800000E+00  1.00800000E+00  1.00800000E+00  1.40100000E+01  1.20100000E+01
  1.20100000E+01  1.00800000E+00  1.00800000E+00  1.00800000E+00  1.40100000E+01
  1.20100000E+01  1.20100000E+01  1.00800000E+00  1.00800000E+00  1.00800000E+00
  1.40100000E+01  1.20100000E+01  1.20100000E+01  1.00800000E+00  1.00800000E+00
  1.00800000E+00  1.40100000E+01  1.20100000E+01  1.20100000E+01  1.00800000E+00
  1.00800000E+00  1.00800000E+00  1.40100000E+01  1.20100000E+01  1.20100000E+01
  1.00800000E+00  1.00800000E+00  1.00800000E+00  1.40100000E+01  1.20100000E+01
  1.20100000E+01  1.00800000E+00  1.00800000E+00  1.00800000E+00  1.40100000E+01
  1.20100000E+01  1.20100000E+01  1.00800000E+00  1.00800000E+00  1.00800000E+00
  1.40100000E+01  1.20100000E+01  1.20100000E+01  1.00800000E+00  1.00800000E+00
  1.00800000E+00  1.40100000E+01  1.20100000E+01  1.20100000E+01  1.00800000E+00
  1.00800000E+00  1.00800000E+00  1.40100000E+01  1.20100000E+01  1.20100000E+01
  1.00800000E+00  1.00800000E+00  1.00800000E+00  1.40100000E+01  1.20100000E+01
  1.20100000E+01  1.00800000E+00  1.00800000E+00  1.00800000E+00  1.40100000E+01
  1.20100000E+01  1.20100000E+01  1.00800000E+00  1.00800000E+00  1.00800000E+00
  1.40100000E+01  1.20100000E+01  1.20100000E+01  1.00800000E+00  1.00800000E+00
  1.00800000E+00  1.40100000E+01  1.20100000E+01  1.20100000E+01  1.00800000E+00
  1.00800000E+00  1.00800000E+00  1.40100000E+01  1.20100000E+01  1.20100000E+01
  1.00800000E+00  1.00800000E+00  1.00800000E+00  1.40100000E+01  1.20100000E+01
  1.20100000E+01  1.00800000E+00  1.00800000E+00  1.00800000E+00  1.40100000E+01
  1.20100000E+01  1.20100000E+01  1.00800000E+00  1.00800000E+00  1.00800000E+00
  1.40100000E+01  1.20100000E+01  1.20100000E+01  1.00800000E+00  1.00800000E+00
  1.00800000E+00  1.40100000E+01  1.20100000E+01  1.20100000E+01  1.00800000E+00
  1.00800000E+00  1.00800000E+00  1.40100000E+01  1.20100000E+01  1.20100000E+01
  1.00800000E+00  1.00800000E+00  1.00800000E+00  1.40100000E+01  1.20100000E+01
  1.20100000E+01  1.00800000E+00  1.00800000E+00  1.00800000E+00  1.40100000E+01
  1.20100000E+01  1.20100000E+01  1.00800000E+00  1.00800000E+00  1.00800000E+00
  1.40100000E+01  1.20100000E+01  1.20100000E+01  1.00800000E+00  1.00800000E+00
  1.00800000E+00  1.40100000E+01  1.20100000E+01  1.20100000E+01  1.00800000E+00
  1.00800000E+00  1.00800000E+00  1.40100000E+01  1.20100000E+01  1.20100000E+01
  1.00800000E+00  1.00800000E+00  1.00800000E+00  1.40100000E+01  1.20100000E+01
  1.20100000E+01  1.00800000E+00  1.00800000E+00  1.00800000E+00  1.40100000E+01
  1.20100000E+01  1.20100000E+01  1.00800000E+00  1.00800000E+00  1.00800000E+00
  1.40100000E+01  1.20100000E+01  1.20100000E+01  1.00800000E+00  1.00800000E+00
  1.00800000E+00  1.40100000E+01  1.20100000E+01  1.20100000E+01  1.00800000E+00
  1.00800000E+00  1.00800000E+00  1.40100000E+01  1.20100000E+01  1.20100000E+01
  1.00800000E+00  1.00800000E+00  1.00800000E+00  1.40100000E+01  1.20100000E+01
  1.20100000E+01  1.00800000E+00  1.00800000E+00  1.00800000E+00  1.40100000E+01
  1.20100000E+01  1.20100000E+01  1.00800000E+00  1.00800000E+00  1.00800000E+00
  1.40100000E+01  1.20100000E+01  1.20100000E+01  1.00800000E+00  1.00800000E+00
  1.00800000E+00  1.40100000E+01  1.20100000E+01  1.20100000E+01  1.00800000E+00
  1.00800000E+00  1.00800000E+00  1.40100000E+01  1.20100000E+01  1.20100000E+01
  1.00800000E+00  1.00800000E+00  1.00800000E+00  1.40100000E+01  1.20100000E+01
  1.20100000E+01  1.00800000E+00  1.00800000E+00  1.00800000E+00  1.40100000E+01
  1.20100000E+01  1.20100000E+01  1.00800000E+00  1.00800000E+00  1.00800000E+00
  1.40100000E+01  1.20100000E+01  1.20100000E+01  1.00800000E+00  1.00800000E+00
  1.00800000E+00  1.40100000E+01  1.20100000E+01  1.20100000E+01  1.00800000E+00
  1.00800000E+00  1.00800000E+00  1.40100000E+01  1.20100000E+01  1.20100000E+01
  1.00800000E+00  1.00800000E+00  1.00800000E+00  1.40100000E+01  1.20100000E+01
  1.20100000E+01  1.00800000E+00  1.00800000E+00  1.00800000E+00  1.40100000E+01
  1.20100000E+01  1.20100000E+01  1.00800000E+00  1.00800000E+00  1.00800000E+00
  1.40100000E+01  1.20100000E+01  1.20100000E+01  1.00800000E+00  1.00800000E+00
  1.00800000E+00  1.40100000E+01  1.20100000E+01  1.20100000E+01  1.00800000E+00
  1.00800000E+00  1.00800000E+00  1.40100000E+01  1.20100000E+01  1.20100000E+01
  1.00800000E+00  1.00800000E+00  1.00800000E+00  1.40100000E+01  1.20100000E+01
  1.20100000E+01  1.00800000E+00  1.00800000E+00  1.00800000E+00  1.40100000E+01
  1.20100000E+01  1.20100000E+01  1.00800000E+00  1.00800000E+00  1.00800000E+00
  1.40100000E+01  1.20100000E+01  1.20100000E+01  1.00800000E+00  1.00800000E+00
  1.00800000E+00  1.40100000E+01  1.20100000E+01  1.20100000E+01  1.00800000E+00
  1.00800000E+00  1.00800000E+00  1.40100000E+01  1.20100000E+01  1.20100000E+01
  1.00800000E+00  1.00800000E+00  1.00800000E+00  1.40100000E+01  1.20100000E+01
  1.20100000E+01  1.00800000E+00  1.00800000E+00  1.00800000E+00  1.40100000E+01
  1.20100000E+01  1.20100000E+01  1.00800000E+00  1.00800000E+00  1.00800000E+00
  1.40100000E+01  1.20100000E+01  1.20100000E+01  1.00800000E+00  1.00800000E+00
  1.00800000E+00  1.40100000E+01  1.20100000E+01  1.20100000E+01  1.00800000E+00
  1.00800000E+00  1.00800000E+00  1.40100000E+01  1.20100000E+01  1.20100000E+01
  1.00800000E+00  1.00800000E+00  1.00800000E+00  1.40100000E+01  1.20100000E+01
  1.20100000E+01  1.00800000E+00  1.00800000E+00  1.00800000E+00  1.40100000E+01
  1.20100000E+01  1.20100000E+01  1.00800000E+00  1.00800000E+00  1.00800000E+00
  1.40100000E+01  1.20100000E+01  1.20100000E+01  1.00800000E+00  1.00800000E+00
  1.00800000E+00  1.40100000E+01  1.20100000E+01  1.20100000E+01  1.00800000E+00
  1.00800000E+00  1.00800000E+00  1.40100000E+01  1.20100000E+01  1.20100000E+01
  1.00800000E+00  1.00800000E+00  1.00800000E+00  1.40100000E+01  1.20100000E+01
  1.20100000E+01  1.00800000E+00  1.00800000E+00  1.00800000E+00  1.40100000E+01
  1.20100000E+01  1.20100000E+01  1.00800000E+00  1.00800000E+00  1.00800000E+00
  1.40100000E+01  1.20100000E+01  1.20100000E+01  1.00800000E+00  1.00800000E+00
  1.00800000E+00  1.40100000E+01  1.20100000E+01  1.20100000E+01  1.00800000E+00
  1.00800000E+00  1.00800000E+00  1.40100000E+01  1.20100000E+01  1.20100000E+01
  1.00800000E+00  1.00800000E+00  1.00800000E+00  1.40100000E+01  1.20100000E+01
  1.20100000E+01  1.00800000E+00  1.00800000E+00  1.00800000E+00  1.40100000E+01
  1.20100000E+01  1.20100000E+01  1.00800000E+00  1.00800000E+00  1.00800000E+00
  1.40100000E+01  1.20100000E+01  1.20100000E+01  1.00800000E+00  1.00800000E+00
  1.00800000E+00  1.40100000E+01  1.20100000E+01  1.20100000E+01  1.00800000E+00
  1.00800000E+00  1.00800000E+00  1.40100000E+01  1.20100000E+01  1.20100000E+01
  1.00800000E+00  1.00800000E+00  1.00800000E+00  1.40100000E+01  1.20100000E+01
  1.20100000E+01  1.00800000E+00  1.00800000E+00  1.00800000E+00  1.40100000E+01
  1.20100000E+01  1.20100000E+01  1.00800000E+00  1.00800000E+00  1.00800000E+00
  1.40100000E+01  1.20100000E+01  1.20100000E+01  1.00800000E+00  1.00800000E+00
  1.00800000E+00  1.40100000E+01  1.20100000E+01  1.20100000E+01  1.00800000E+00
  1.00800000E+00  1.00800000E+00  1.40100000E+01  1.20100000E+01  1.20100000E+01
  1.00800000E+00  1.00800000E+00  1.00800000E+00  1.40100000E+01  1.20100000E+01
  1.20100000E+01  1.00800000E+00  1.00800000E+00  1.00800000E+00  1.40100000E+01
  1.20100000E+01  1.20100000E+01  1.00800000E+00  1.00800000E+00  1.00800000E+00
  1.40100000E+01  1.20100000E+01  1.20100000E+01  1.00800000E+00  1.00800000E+00
  1.00800000E+00  1.40100000E+01  1.20100000E+01  1.20100000E+01  1.00800000E+00
  1.00800000E+00  1.00800000E+00  1.40100000E+01  1.20100000E+01  1.20100000E+01
  1.00800000E+00  1.00800000E+00  1.00800000E+00  1.40100000E+01  1.20100000E+01
  1.20100000E+01  1.00800000E+00  1.00800000E+00  1.00800000E+00  1.40100000E+01
  1.20100000E+01  1.20100000E+01  1.00800000E+00  1.00800000E+00  1.00800000E+00
  1.40100000E+01  1.20100000E+01  1.20100000E+01  1.00800000E+00  1.00800000E+00
  1.00800000E+00  1.40100000E+01  1.20100000E+01  1.20100000E+01  1.00800000E+00
  1.00800000E+00  1.00800000E+00  1.40100000E+01  1.20100000E+01  1.20100000E+01
  1.00800000E+00  1.00800000E+00  1.00800000E+00  1.40100000E+01  1.20100000E+01
  1.20100000E+01  1.00800000E+00  1.00800000E+00  1.00800000E+00  1.40100000E+01
  1.20100000E+01  1.20100000E+01  1.00800000E+00  1.00800000E+00  1.00800000E+00
  1.40100000E+01  1.20100000E+01  1.20100000E+01  1.00800000E+00  1.00800000E+00
  1.00800000E+00  1.40100000E+01  1.20100000E+01  1.20100000E+01  1.00800000E+00
  1.00800000E+00  1.00800000E+00  1.40100000E+01  1.20100000E+01  1.20100000E+01
  1.00800000E+00  1.00800000E+00  1.00800000E+00  1.40100000E+01  1.20100000E+01
  1.20100000E+01  1.00800000E+00  1.00800000E+00  1.00800000E+00  1.40100000E+01
  1.20100000E+01  1.20100000E+01  1.00800000E+00  1.00800000E+00  1.00800000E+00
  1.40100000E+01  1.20100000E+01  1.20100000E+01  1.00800000E+00  1.00800000E+00
  1.00800000E+00  1.40100000E+01  1.20100000E+01  1.20100000E+01  1.00800000E+00
  1.00800000E+00  1.00800000E+00  1.40100000E+01  1.20100000E+01  1.20100000E+01
  1.00800000E+00  1.00800000E+00  1.00800000E+00  1.40100000E+01  1.20100000E+01
  1.20100000E+01  1.00800000E+00  1.00800000E+00  1.00800000E+00  1.40100000E+01
  1.20100000E+01  1.20100000E+01  1.00800000E+00  1.00800000E+00  1.00800000E+00
  1.40100000E+01  1.20100000E+01  1.20100000E+01  1.00800000E+00  1.00800000E+00
  1.00800000E+00  1.40100000E+01  1.20100000E+01  1.20100000E+01  1.00800000E+00
  1.00800000E+00  1.00800000E+00  1.40100000E+01  1.20100000E+01  1.20100000E+01
  1.00800000E+00  1.00800000E+00  1.00800000E+00  1.40100000E+01  1.20100000E+01
  1.20100000E+01  1.00800000E+00  1.00800000E+00  1.00800000E+00  1.40100000E+01
  1.20100000E+01  1.20100000E+01  1.00800000E+00  1.00800000E+00  1.00800000E+00
  1.40100000E+01  1.20100000E+01  1.20100000E+01  1.00800000E+00  1.00800000E+00
  1.00800000E+00  1.40100000E+01  1.20100000E+01  1.20100000E+01  1.00800000E+00
  1.00800000E+00  1.00800000E+00  1.40100000E+01  1.20100000E+01  1.20100000E+01
  1.00800000E+00  1.00800000E+00  1.00800000E+00  1.40100000E+01  1.20100000E+01
  1.20100000E+01  1.00800000E+00  1.00800000E+00  1.00800000E+00  1.40100000E+01
  1.20100000E+01  1.20100000E+01  1.00800000E+00  1.00800000E+00  1.00800000E+00
  1.40100000E+01  1.20100000E+01  1.20100000E+01  1.00800000E+00  1.00800000E+00
  1.00800000E+00  1.40100000E+01  1.20100000E+01  1.20100000E+01  1.00800000E+00
  1.00800000E+00  1.00800000E+00  1.40100000E+01  1.20100000E+01  1.20100000E+01
  1.00800000E+00  1.00800000E+00  1.00800000E+00  1.40100000E+01  1.20100000E+01
  1.20100000E+01  1.00800000E+00  1.00800000E+00  1.00800000E+00  1.40100000E+01
  1.20100000E+01  1.20100000E+01  1.00800000E+00  1.00800000E+00  1.00800000E+00
  1.40100000E+01  1.20100000E+01  1.20100000E+01  1.00800000E+00  1.00800000E+00
  1.00800000E+00  1.40100000E+01  1.20100000E+01  1.20100000E+01  1.00800000E+00
  1.00800000E+00  1.00800000E+00  1.40100000E+01  1.20100000E+01  1.20100000E+01
  1.00800000E+00  1.00800000E+00  1.00800000E+00  1.40100000E+01  1.20100000E+01
  1.20100000E+01  1.00800000E+00  1.00800000E+00  1.00800000E+00  1.40100000E+01
  1.20100000E+01  1.20100000E+01  1.00800000E+00  1.00800000E+00  1.00800000E+00
  1.40100000E+01  1.20100000E+01  1.20100000E+01  1.00800000E+00  1.00800000E+00
  1.00800000E+00  1.40100000E+01  1.20100000E+01  1.20100000E+01  1.00800000E+00
  1.00800000E+00  1.00800000E+00  1.40100000E+01  1.20100000E+01  1.20100000E+01
  1.00800000E+00  1.00800000E+00  1.00800000E+00  1.40100000E+01  1.20100000E+01
  1.20100000E+01  1.00800000E+00  1.00800000E+00  1.00800000E+00  1.40100000E+01
  1.20100000E+01  1.20100000E+01  1.00800000E+00  1.00800000E+00  1.00800000E+00
  1.40100000E+01  1.20100000E+01  1.20100000E+01  1.00800000E+00  1.00800000E+00
  1.00800000E+00  1.40100000E+01  1.20100000E+01  1.20100000E+01  1.00800000E+00
  1.00800000E+00  1.00800000E+00  1.40100000E+01  1.20100000E+01  1.20100000E+01
  1.00800000E+00  1.00800000E+00  1.00800000E+00  1.40100000E+01  1.20100000E+01
  1.20100000E+01  1.00800000E+00  1.00800000E+00  1.00800000E+00  1.40100000E+01
  1.20100000E+01  1.20100000E+01  1.00800000E+00  1.00800000E+00  1.00800000E+00
  1.40100000E+01  1.20100000E+01  1.20100000E+01  1.00800000E+00  1.00800000E+00
  1.00800000E+00  1.40100000E+01  1.20100000E+01  1.20100000E+01  1.00800000E+00
  1.00800000E+00  1.00800000E+00  1.40100000E+01  1.20100000E+01  1.20100000E+01
  1.00800000E+00  1.00800000E+00  1.00800000E+00  1.40100000E+01  1.20100000E+01
  1.20100000E+01  1.00800000E+00  1.00800000E+00  1.00800000E+00  1.40100000E+01
  1.20100000E+01  1.20100000E+01  1.00800000E+00  1.00800000E+00  1.00800000E+00
  1.40100000E+01  1.20100000E+01  1.20100000E+01  1.00800000E+00  1.00800000E+00
  1.00800000E+00  1.40100000E+01  1.20100000E+01  1.20100000E+01  1.00800000E+00
  1.00800000E+00  1.00800000E+00  1.40100000E+01  1.20100000E+01  1.20100000E+01
  1.00800000E+00  1.00800000E+00  1.00800000E+00  1.40100000E+01  1.20100000E+01
  1.20100000E+01  1.00800000E+00  1.00800000E+00  1.00800000E+00  1.40100000E+01
  1.20100000E+01  1.20100000E+01  1.00800000E+00  1.00800000E+00  1.00800000E+00
  1.40100000E+01  1.20100000E+01  1.20100000E+01  1.00800000E+00  1.00800000E+00
  1.00800000E+00  1.40100000E+01  1.20100000E+01  1.20100000E+01  1.00800000E+00
  1.00800000E+00  1.00800000E+00  1.40100000E+01  1.20100000E+01  1.20100000E+01
  1.00800000E+00  1.00800000E+00  1.00800000E+00  1.40100000E+01  1.20100000E+01
  1.20100000E+01  1.00800000E+00  1.00800000E+00  1.00800000E+00  1.40100000E+01
  1.20100000E+01  1.20100000E+01  1.00800000E+00  1.00800000E+00  1.00800000E+00
  1.40100000E+01  1.20100000E+01  1.20100000E+01  1.00800000E+00  1.00800000E+00
  1.00800000E+00  1.40100000E+01  1.20100000E+01  1.20100000E+01  1.00800000E+00
  1.00800000E+00  1.00800000E+00  1.40100000E+01  1.20100000E+01  1.20100000E+01
  1.00800000E+00  1.00800000E+00  1.00800000E+00  1.40100000E+01  1.20100000E+01
  1.20100000E+01  1.00800000E+00  1.00800000E+00  1.00800000E+00  1.40100000E+01
  1.20100000E+01  1.20100000E+01  1.00800000E+00  1.00800000E+00  1.00800000E+00
  1.40100000E+01  1.20100000E+01  1.20100000E+01  1.00800000E+00  1.00800000E+00
  1.00800000E+00  1.40100000E+01  1.20100000E+01  1.20100000E+01  1.00800000E+00
  1.00800000E+00  1.00800000E+00  1.40100000E+01  1.20100000E+01  1.20100000E+01
  1.00800000E+00  1.00800000E+00  1.00800000E+00  1.40100000E+01  1.20100000E+01
  1.20100000E+01  1.00800000E+00  1.00800000E+00  1.00800000E+00  1.40100000E+01
  1.20100000E+01  1.20100000E+01  1.00800000E+00  1.00800000E+00  1.00800000E+00
  1.40100000E+01  1.20100000E+01  1.20100000E+01  1.00800000E+00  1.00800000E+00
  1.00800000E+00  1.40100000E+01  1.20100000E+01  1.20100000E+01  1.00800000E+00
  1.00800000E+00  1.00800000E+00  1.40100000E+01  1.20100000E+01  1.20100000E+01
  1.00800000E+00  1.00800000E+00  1.00800000E+00  1.40100000E+01  1.20100000E+01
  1.20100000E+01  1.00800000E+00  1.00800000E+00  1.00800000E+00  1.40100000E+01
  1.20100000E+01  1.20100000E+01  1.00800000E+00  1.00800000E+00  1.00800000E+00
  1.40100000E+01  1.20100000E+01  1.20100000E+01  1.00800000E+00  1.00800000E+00
  1.00800000E+00  1.40100000E+01  1.20100000E+01  1.20100000E+01  1.00800000E+00
  1.00800000E+00  1.00800000E+00  1.40100000E+01  1.20100000E+01  1.20100000E+01
  1.00800000E+00  1.00800000E+00  1.00800000E+00  1.40100000E+01  1.20100000E+01
  1.20100000E+01  1.00800000E+00  1.00800000E+00  1.00800000E+00  1.40100000E+01
  1.20100000E+01  1.20100000E+01  1.00800000E+00  1.00800000E+00  1.00800000E+00
  1.40100000E+01  1.20100000E+01  1.20100000E+01  1.00800000E+00  1.00800000E+00
  1.00800000E+00  1.40100000E+01  1.20100000E+01  1.20100000E+01  1.00800000E+00
  1.00800000E+00  1.00800000E+00  1.40100000E+01  1.20100000E+01  1.20100000E+01
  1.00800000E+00  1.00800000E+00  1.00800000E+00  1.40100000E+01  1.20100000E+01
  1.20100000E+01  1.00800000E+00  1.00800000E+00  1.00800000E+00  1.40100000E+01
  1.20100000E+01  1.20100000E+01  1.00800000E+00  1.00800000E+00  1.00800000E+00
  1.40100000E+01  1.20100000E+01  1.20100000E+01  1.00800000E+00  1.00800000E+00
  1.00800000E+00  1.40100000E+01  1.20100000E+01  1.20100000E+01  1.00800000E+00
  1.00800000E+00  1.00800000E+00  1.40100000E+01  1.20100000E+01  1.20100000E+01
  1.00800000E+00  1.00800000E+00  1.00800000E+00  1.40100000E+01  1.20100000E+01
  1.20100000E+01  1.00800000E+00  1.00800000E+00  1.00800000E+00  1.40100000E+01
  1.20100000E+01  1.20100000E+01  1.00800000E+00  1.00800000E+00  1.00800000E+00
  1.40100000E+01  1.20100000E+01  1.20100000E+01  1.00800000E+00  1.00800000E+00
  1.00800000E+00  1.40100000E+01  1.20100000E+01  1.20100000E+01  1.00800000E+00
  1.00800000E+00  1.00800000E+00  1.40100000E+01  1.20100000E+01  1.20100000E+01
  1.00800000E+00  1.00800000E+00  1.00800000E+00  1.40100000E+01  1.20100000E+01
  1.20100000E+01  1.00800000E+00  1.00800000E+00  1.00800000E+00  1.40100000E+01
  1.20100000E+01  1.20100000E+01  1.00800000E+00  1.00800000E+00  1.00800000E+00
  1.40100000E+01  1.20100000E+01  1.20100000E+01  1.00800000E+00  1.00800000E+00
  1.00800000E+00  1.40100000E+01  1.20100000E+01  1.20100000E+01  1.00800000E+00
  1.00800000E+00  1.00800000E+00  1.40100000E+01  1.20100000E+01  1.20100000E+01
  1.00800000E+00  1.00800000E+00  1.00800000E+00  1.40100000E+01  1.20100000E+01
  1.20100000E+01  1.00800000E+00  1.00800000E+00  1.00800000E+00  1.40100000E+01
  1.20100000E+01  1.20100000E+01  1.00800000E+00  1.00800000E+00  1.00800000E+00
  1.40100000E+01  1.20100000E+01  1.20100000E+01  1.00800000E+00  1.00800000E+00
  1.00800000E+00  1.40100000E+01  1.20100000E+01  1.20100000E+01  1.00800000E+00
  1.00800000E+00  1.00800000E+00  1.40100000E+01  1.20100000E+01  1.20100000E+01
  1.00800000E+00  1.00800000E+00  1.00800000E+00  1.40100000E+01  1.20100000E+01
  1.20100000E+01  1.00800000E+00  1.00800000E+00  1.00800000E+00  1.40100000E+01
  1.20100000E+01  1.20100000E+01  1.00800000E+00  1.00800000E+00  1.00800000E+00
  1.40100000E+01  1.20100000E+01  1.20100000E+01  1.00800000E+00  1.00800000E+00
  1.00800000E+00  1.40100000E+01  1.20100000E+01  1.20100000E+01  1.00800000E+00
  1.00800000E+00  1.00800000E+00  1.40100000E+01  1.20100000E+01  1.20100000E+01
  1.00800000E+00  1.00800000E+00  1.00800000E+00  1.40100000E+01  1.20100000E+01
  1.20100000E+01  1.00800000E+00  1.00800000E+00  1.00800000E+00  1.40100000E+01
  1.20100000E+01  1.20100000E+01  1.00800000E+00  1.00800000E+00  1.00800000E+00
  1.40100000E+01  1.20100000E+01  1.20100000E+01  1.00800000E+00  1.00800000E+00
  1.00800000E+00  1.40100000E+01  1.20100000E+01  1.20100000E+01  1.00800000E+00
  1.00800000E+00  1.00800000E+00  1.40100000E+01  1.20100000E+01  1.20100000E+01
  1.00800000E+00  1.00800000E+00  1.00800000E+00  1.40100000E+01  1.20100000E+01
  1.20100000E+01  1.00800000E+00  1.00800000E+00  1.00800000E+00  1.40100000E+01
  1.20100000E+01  1.20100000E+01  1.00800000E+00  1.00800000E+00  1.00800000E+00
  1.40100000E+01  1.20100000E+01  1.20100000E+01  1.00800000E+00  1.00800000E+00
  1.00800000E+00  1.40100000E+01  1.20100000E+01  1.20100000E+01  1.00800000E+00
  1.00800000E+00  1.00800000E+00  1.40100000E+01  1.20100000E+01  1.20100000E+01
  1.00800000E+00  1.00800000E+00  1.00800000E+00  1.40100000E+01  1.20100000E+01
  1.20100000E+01  1.00800000E+00  1.00800000E+00  1.00800000E+00  1.40100000E+01
  1.20100000E+01  1.20100000E+01  1.00800000E+00  1.00800000E+00  1.00800000E+00
  1.40100000E+01  1.20100000E+01  1.20100000E+01  1.00800000E+00  1.00800000E+00
  1.00800000E+00  1.40100000E+01  1.20100000E+01  1.20100000E+01  1.00800000E+00
  1.00800000E+00  1.00800000E+00  1.40100000E+01  1.20100000E+01  1.20100000E+01
  1.00800000E+00  1.00800000E+00  1.00800000E+00  1.40100000E+01  1.20100000E+01
  1.20100000E+01  1.00800000E+00  1.00800000E+00  1.00800000E+00  1.40100000E+01
  1.20100000E+01  1.20100000E+01  1.00800000E+00  1.00800000E+00  1.00800000E+00
  1.40100000E+01  1.20100000E+01  1.20100000E+01  1.00800000E+00  1.00800000E+00
  1.00800000E+00  1.40100000E+01  1.20100000E+01  1.20100000E+01  1.00800000E+00
  1.00800000E+00  1.00800000E+00  1.40100000E+01  1.20100000E+01  1.20100000E+01
  1.00800000E+00  1.00800000E+00  1.00800000E+00  1.40100000E+01  1.20100000E+01
  1.20100000E+01  1.00800000E+00  1.00800000E+00  1.00800000E+00  1.40100000E+01
  1.20100000E+01  1.20100000E+01  1.00800000E+00  1.00800000E+00  1.00800000E+00
  1.40100000E+01  1.20100000E+01  1.20100000E+01  1.00800000E+00  1.00800000E+00
  1.00800000E+00  1.40100000E+01  1.20100000E+01  1.20100000E+01  1.00800000E+00
  1.00800000E+00  1.00800000E+00  1.40100000E+01  1.20100000E+01  1.20100000E+01
  1.00800000E+00  1.00800000E+00  1.00800000E+00  1.40100000E+01  1.20100000E+01
  1.20100000E+01  1.00800000E+00  1.00800000E+00  1.00800000E+00  1.40100000E+01
  1.20100000E+01  1.20100000E+01  1.00800000E+00  1.00800000E+00  1.00800000E+00
  1.40100000E+01  1.20100000E+01  1.20100000E+01  1.00800000E+00  1.00800000E+00
  1.00800000E+00  1.40100000E+01  1.20100000E+01  1.20100000E+01  1.00800000E+00
  1.00800000E+00  1.00800000E+00  1.40100000E+01  1.20100000E+01  1.20100000E+01
  1.00800000E+00  1.00800000E+00  1.00800000E+00  1.40100000E+01  1.20100000E+01
  1.20100000E+01  1.00800000E+00  1.00800000E+00  1.00800000E+00  1.40100000E+01
  1.20100000E+01  1.20100000E+01  1.00800000E+00  1.00800000E+00  1.00800000E+00
  1.40100000E+01  1.20100000E+01  1.20100000E+01  1.00800000E+00  1.00800000E+00
  1.00800000E+00  1.40100000E+01  1.20100000E+01  1.20100000E+01  1.00800000E+00
  1.00800000E+00  1.00800000E+00  1.40100000E+01  1.20100000E+01  1.20100000E+01
  1.00800000E+00  1.00800000E+00  1.00800000E+00  1.40100000E+01  1.20100000E+01
  1.20100000E+01  1.00800000E+00  1.00800000E+00  1.00800000E+00  1.40100000E+01
  1.20100000E+01  1.20100000E+01  1.00800000E+00  1.00800000E+00  1.00800000E+00
  1.40100000E+01  1.20100000E+01  1.20100000E+01  1.00800000E+00  1.00800000E+00
  1.00800000E+00  1.40100000E+01  1.20100000E+01  1.20100000E+01  1.00800000E+00
  1.00800000E+00  1.00800000E+00  1.40100000E+01  1.20100000E+01  1.20100000E+01
  1.00800000E+00  1.00800000E+00  1.00800000E+00  1.40100000E+01  1.20100000E+01
  1.20100000E+01  1.00800000E+00  1.00800000E+00  1.00800000E+00  1.40100000E+01
  1.20100000E+01  1.20100000E+01  1.00800000E+00  1.00800000E+00  1.00800000E+00
  1.40100000E+01  1.20100000E+01  1.20100000E+01  1.00800000E+00  1.00800000E+00
  1.00800000E+00  1.40100000E+01  1.20100000E+01  1.20100000E+01  1.00800000E+00
  1.00800000E+00  1.00800000E+00  1.40100000E+01  1.20100000E+01  1.20100000E+01
  1.00800000E+00  1.00800000E+00  1.00800000E+00  1.40100000E+01  1.20100000E+01
  1.20100000E+01  1.00800000E+00  1.00800000E+00  1.00800000E+00  1.40100000E+01
  1.20100000E+01  1.20100000E+01  1.00800000E+00  1.00800000E+00  1.00800000E+00
  1.40100000E+01  1.20100000E+01  1.20100000E+01  1.00800000E+00  1.00800000E+00
  1.00800000E+00  1.40100000E+01  1.20100000E+01  1.20100000E+01  1.00800000E+00
  1.00800000E+00  1.00800000E+00  1.40100000E+01  1.20100000E+01  1.20100000E+01
  1.00800000E+00  1.00800000E+00  1.00800000E+00  1.40100000E+01  1.20100000E+01
  1.20100000E+01  1.00800000E+00  1.00800000E+00  1.00800000E+00  1.40100000E+01
  1.20100000E+01  1.20100000E+01  1.00800000E+00  1.00800000E+00  1.00800000E+00
  1.40100000E+01  1.20100000E+01  1.20100000E+01  1.00800000E+00  1.00800000E+00
  1.00800000E+00  1.40100000E+01  1.20100000E+01  1.20100000E+01  1.00800000E+00
  1.00800000E+00  1.00800000E+00  1.40100000E+01  1.20100000E+01  1.20100000E+01
  1.00800000E+00  1.00800000E+00  1.00800000E+00  1.40100000E+01  1.20100000E+01
  1.20100000E+01  1.00800000E+00  1.00800000E+00  1.00800000E+00  1.40100000E+01
  1.20100000E+01  1.20100000E+01  1.00800000E+00  1.00800000E+00  1.00800000E+00
  1.40100000E+01  1.20100000E+01  1.20100000E+01  1.00800000E+00  1.00800000E+00
  1.00800000E+00  1.40100000E+01  1.20100000E+01  1.20100000E+01  1.00800000E+00
  1.00800000E+00  1.00800000E+00  1.40100000E+01  1.20100000E+01  1.20100000E+01
  1.00800000E+00  1.00800000E+00  1.00800000E+00  1.40100000E+01  1.20100000E+01
  1.20100000E+01  1.00800000E+00  1.00800000E+00  1.00800000E+00  1.40100000E+01
  1.20100000E+01  1.20100000E+01  1.00800000E+00  1.00800000E+00  1.00800000E+00
  1.40100000E+01  1.20100000E+01  1.20100000E+01  1.00800000E+00  1.00800000E+00
  1.00800000E+00  1.40100000E+01  1.20100000E+01  1.20100000E+01  1.00800000E+00
  1.00800000E+00  1.00800000E+00  1.40100000E+01  1.20100000E+01  1.20100000E+01
  1.00800000E+00  1.00800000E+00  1.00800000E+00  1.40100000E+01  1.20100000E+01
  1.20100000E+01  1.00800000E+00  1.00800000E+00  1.00800000E+00  1.40100000E+01
  1.20100000E+01  1.20100000E+01  1.00800000E+00  1.00800000E+00  1.00800000E+00
  1.40100000E+01  1.20100000E+01  1.20100000E+01  1.00800000E+00  1.00800000E+00
  1.00800000E+00  1.40100000E+01  1.20100000E+01  1.20100000E+01  1.00800000E+00
  1.00800000E+00  1.00800000E+00  1.40100000E+01  1.20100000E+01  1.20100000E+01
  1.00800000E+00  1.00800000E+00  1.00800000E+00  1.40100000E+01  1.20100000E+01
  1.20100000E+01  1.00800000E+00  1.00800000E+00  1.00800000E+00  1.40100000E+01
  1.20100000E+01  1.20100000E+01  1.00800000E+00  1.00800000E+00  1.00800000E+00
  1.40100000E+01  1.20100000E+01  1.20100000E+01  1.00800000E+00  1.00800000E+00
  1.00800000E+00  1.40100000E+01  1.20100000E+01  1.20100000E+01  1.00800000E+00
  1.00800000E+00  1.00800000E+00  1.40100000E+01  1.20100000E+01  1.20100000E+01
  1.00800000E+00  1.00800000E+00  1.00800000E+00  1.40100000E+01  1.20100000E+01
  1.20100000E+01  1.00800000E+00  1.00800000E+00  1.00800000E+00  1.40100000E+01
  1.20100000E+01  1.20100000E+01  1.00800000E+00  1.00800000E+00  1.00800000E+00
  1.40100000E+01  1.20100000E+01  1.20100000E+01  1.00800000E+00  1.00800000E+00
  1.00800000E+00  1.40100000E+01  1.20100000E+01  1.20100000E+01  1.00800000E+00
  1.00800000E+00  1.00800000E+00  1.40100000E+01  1.20100000E+01  1.20100000E+01
  1.00800000E+00  1.00800000E+00  1.00800000E+00  1.40100000E+01  1.20100000E+01
  1.20100000E+01  1.00800000E+00  1.00800000E+00  1.00800000E+00  1.40100000E+01
  1.20100000E+01  1.20100000E+01  1.00800000E+00  1.00800000E+00  1.00800000E+00
  1.40100000E+01  1.20100000E+01  1.20100000E+01  1.00800000E+00  1.00800000E+00
  1.00800000E+00  1.40100000E+01  1.20100000E+01  1.20100000E+01  1.00800000E+00
  1.00800000E+00  1.00800000E+00  1.40100000E+01  1.20100000E+01  1.20100000E+01
  1.00800000E+00  1.00800000E+00  1.00800000E+00  1.40100000E+01  1.20100000E+01
  1.20100000E+01  1.00800000E+00  1.00800000E+00  1.00800000E+00  1.40100000E+01
  1.20100000E+01  1.20100000E+01  1.00800000E+00  1.00800000E+00  1.00800000E+00
  1.40100000E+01  1.20100000E+01  1.20100000E+01  1.00800000E+00  1.00800000E+00
  1.00800000E+00  1.40100000E+01  1.20100000E+01  1.20100000E+01  1.00800000E+00
  1.00800000E+00  1.00800000E+00  1.40100000E+01  1.20100000E+01  1.20100000E+01
  1.00800000E+00  1.00800000E+00  1.00800000E+00  1.40100000E+01  1.20100000E+01
  1.20100000E+01  1.00800000E+00  1.00800000E+00  1.00800000E+00  1.40100000E+01
  1.20100000E+01  1.20100000E+01  1.00800000E+00  1.00800000E+00  1.00800000E+00
  1.40100000E+01  1.20100000E+01  1.20100000E+01  1.00800000E+00  1.00800000E+00
  1.00800000E+00  1.40100000E+01  1.20100000E+01  1.20100000E+01  1.00800000E+00
  1.00800000E+00  1.00800000E+00  1.40100000E+01  1.20100000E+01  1.20100000E+01
  1.00800000E+00  1.00800000E+00  1.00800000E+00  1.40100000E+01  1.20100000E+01
  1.20100000E+01  1.00800000E+00  1.00800000E+00  1.00800000E+00  1.40100000E+01
  1.20100000E+01  1.20100000E+01  1.00800000E+00  1.00800000E+00  1.00800000E+00
  1.40100000E+01  1.20100000E+01  1.20100000E+01  1.00800000E+00  1.00800000E+00
  1.00800000E+00  1.40100000E+01  1.20100000E+01  1.20100000E+01  1.00800000E+00
  1.00800000E+00  1.00800000E+00  1.40100000E+01  1.20100000E+01  1.20100000E+01
  1.00800000E+00  1.00800000E+00  1.00800000E+00  1.40100000E+01  1.20100000E+01
  1.20100000E+01  1.00800000E+00  1.00800000E+00  1.00800000E+00  1.40100000E+01
  1.20100000E+01  1.20100000E+01  1.00800000E+00  1.00800000E+00  1.00800000E+00
  1.40100000E+01  1.20100000E+01  1.20100000E+01  1.00800000E+00  1.00800000E+00
  1.00800000E+00  1.40100000E+01  1.20100000E+01  1.20100000E+01  1.00800000E+00
  1.00800000E+00  1.00800000E+00  1.40100000E+01  1.20100000E+01  1.20100000E+01
  1.00800000E+00  1.00800000E+00  1.00800000E+00  1.40100000E+01  1.20100000E+01
  1.20100000E+01  1.00800000E+00  1.00800000E+00  1.00800000E+00  1.40100000E+01
  1.20100000E+01  1.20100000E+01  1.00800000E+00  1.00800000E+00  1.00800000E+00
  1.40100000E+01  1.20100000E+01  1.20100000E+01  1.00800000E+00  1.00800000E+00
  1.00800000E+00  1.40100000E+01  1.20100000E+01  1.20100000E+01  1.00800000E+00
  1.00800000E+00  1.00800000E+00  1.40100000E+01  1.20100000E+01  1.20100000E+01
  1.00800000E+00  1.00800000E+00  1.00800000E+00  1.40100000E+01  1.20100000E+01
  1.20100000E+01  1.00800000E+00  1.00800000E+00  1.00800000E+00  1.40100000E+01
  1.20100000E+01  1.20100000E+01  1.00800000E+00  1.00800000E+00  1.00800000E+00
  1.40100000E+01  1.20100000E+01  1.20100000E+01  1.00800000E+00  1.00800000E+00
  1.00800000E+00  1.40100000E+01  1.20100000E+01  1.20100000E+01  1.00800000E+00
  1.00800000E+00  1.00800000E+00  1.40100000E+01  1.20100000E+01  1.20100000E+01
  1.00800000E+00  1.00800000E+00  1.00800000E+00  1.40100000E+01  1.20100000E+01
  1.20100000E+01  1.00800000E+00  1.00800000E+00  1.00800000E+00  1.40100000E+01
  1.20100000E+01  1.20100000E+01  1.00800000E+00  1.00800000E+00  1.00800000E+00
  1.40100000E+01  1.20100000E+01  1.20100000E+01  1.00800000E+00  1.00800000E+00
  1.00800000E+00  1.40100000E+01  1.20100000E+01  1.20100000E+01  1.00800000E+00
  1.00800000E+00  1.00800000E+00  1.40100000E+01  1.20100000E+01  1.20100000E+01
  1.00800000E+00  1.00800000E+00  1.00800000E+00  1.40100000E+01  1.20100000E+01
  1.20100000E+01  1.00800000E+00  1.00800000E+00  1.00800000E+00  1.40100000E+01
  1.20100000E+01  1.20100000E+01  1.00800000E+00  1.00800000E+00  1.00800000E+00
  1.40100000E+01  1.20100000E+01  1.20100000E+01  1.00800000E+00  1.00800000E+00
  1.00800000E+00  1.40100000E+01  1.20100000E+01  1.20100000E+01  1.00800000E+00
  1.00800000E+00  1.00800000E+00  1.40100000E+01  1.20100000E+01  1.20100000E+01
  1.00800000E+00  1.00800000E+00  1.00800000E+00  1.40100000E+01  1.20100000E+01
  1.20100000E+01  1.00800000E+00  1.00800000E+00  1.00800000E+00  1.40100000E+01
  1.20100000E+01  1.20100000E+01  1.00800000E+00  1.00800000E+00  1.00800000E+00
  1.40100000E+01  1.20100000E+01  1.20100000E+01  1.00800000E+00  1.00800000E+00
  1.00800000E+00  1.40100000E+01  1.20100000E+01  1.20100000E+01  1.00800000E+00
  1.00800000E+00  1.00800000E+00  1.40100000E+01  1.20100000E+01  1.20100000E+01
  1.00800000E+00  1.00800000E+00  1.00800000E+00  1.40100000E+01  1.20100000E+01
  1.20100000E+01  1.00800000E+00  1.00800000E+00  1.00800000E+00  1.40100000E+01
  1.20100000E+01  1.20100000E+01  1.00800000E+00  1.00800000E+00  1.00800000E+00
  1.40100000E+01  1.20100000E+01  1.20100000E+01  1.00800000E+00  1.00800000E+00
  1.00800000E+00  1.40100000E+01  1.20100000E+01  1.20100000E+01  1.00800000E+00
  1.00800000E+00  1.00800000E+00  1.40100000E+01  1.20100000E+01  1.20100000E+01
  1.00800000E+00  1.00800000E+00  1.00800000E+00  1.40100000E+01  1.20100000E+01
  1.20100000E+01  1.00800000E+00  1.00800000E+00  1.00800000E+00  1.40100000E+01
  1.20100000E+01  1.20100000E+01  1.00800000E+00  1.00800000E+00  1.00800000E+00
  1.40100000E+01  1.20100000E+01  1.20100000E+01  1.00800000E+00  1.00800000E+00
  1.00800000E+00  1.40100000E+01  1.20100000E+01  1.20100000E+01  1.00800000E+00
  1.00800000E+00  1.00800000E+00  1.40100000E+01  1.20100000E+01  1.20100000E+01
  1.00800000E+00  1.00800000E+00  1.00800000E+00  1.40100000E+01  1.20100000E+01
  1.20100000E+01  1.00800000E+00  1.00800000E+00  1.00800000E+00  1.40100000E+01
  1.20100000E+01  1.20100000E+01  1.00800000E+00  1.00800000E+00  1.00800000E+00
  1.40100000E+01  1.20100000E+01  1.20100000E+01  1.00800000E+00  1.00800000E+00
  1.00800000E+00  1.40100000E+01  1.20100000E+01  1.20100000E+01  1.00800000E+00
  1.00800000E+00  1.00800000E+00  1.40100000E+01  1.20100000E+01  1.20100000E+01
  1.00800000E+00  1.00800000E+00  1.00800000E+00  1.40100000E+01  1.20100000E+01
  1.20100000E+01  1.00800000E+00  1.00800000E+00  1.00800000E+00  1.40100000E+01
  1.20100000E+01  1.20100000E+01  1.00800000E+00  1.00800000E+00  1.00800000E+00
  1.40100000E+01  1.20100000E+01  1.20100000E+01  1.00800000E+00  1.00800000E+00
  1.00800000E+00  1.40100000E+01  1.20100000E+01  1.20100000E+01  1.00800000E+00
  1.00800000E+00  1.00800000E+00  1.40100000E+01  1.20100000E+01  1.20100000E+01
  1.00800000E+00  1.00800000E+00  1.00800000E+00  1.40100000E+01  1.20100000E+01
  1.20100000E+01  1.00800000E+00  1.00800000E+00  1.00800000E+00  1.40100000E+01
  1.20100000E+01  1.20100000E+01  1.00800000E+00  1.00800000E+00  1.00800000E+00
  1.40100000E+01  1.20100000E+01  1.20100000E+01  1.00800000E+00  1.00800000E+00
  1.00800000E+00  1.40100000E+01  1.20100000E+01  1.20100000E+01  1.00800000E+00
  1.00800000E+00  1.00800000E+00  1.40100000E+01  1.20100000E+01  1.20100000E+01
  1.00800000E+00  1.00800000E+00  1.00800000E+00  1.40100000E+01  1.20100000E+01
  1.20100000E+01  1.00800000E+00  1.00800000E+00  1.00800000E+00  1.40100000E+01
  1.20100000E+01  1.20100000E+01  1.00800000E+00  1.00800000E+00  1.00800000E+00
  1.40100000E+01  1.20100000E+01  1.20100000E+01  1.00800000E+00  1.00800000E+00
  1.00800000E+00  1.40100000E+01  1.20100000E+01  1.20100000E+01  1.00800000E+00
  1.00800000E+00  1.00800000E+00  1.40100000E+01  1.20100000E+01  1.20100000E+01
  1.00800000E+00  1.00800000E+00  1.00800000E+00  1.40100000E+01  1.20100000E+01
  1.20100000E+01  1.00800000E+00  1.00800000E+00  1.00800000E+00  1.40100000E+01
  1.20100000E+01  1.20100000E+01  1.00800000E+00  1.00800000E+00  1.00800000E+00
  1.40100000E+01  1.20100000E+01  1.20100000E+01  1.00800000E+00  1.00800000E+00
  1.00800000E+00  1.40100000E+01  1.20100000E+01  1.20100000E+01  1.00800000E+00
  1.00800000E+00  1.00800000E+00  1.40100000E+01  1.20100000E+01  1.20100000E+01
  1.00800000E+00  1.00800000E+00  1.00800000E+00  1.40100000E+01  1.20100000E+01
  1.20100000E+01  1.00800000E+00  1.00800000E+00  1.00800000E+00  1.40100000E+01
  1.20100000E+01  1.20100000E+01  1.00800000E+00  1.00800000E+00  1.00800000E+00
  1.40100000E+01  1.20100000E+01  1.20100000E+01  1.00800000E+00  1.00800000E+00
  1.00800000E+00  1.40100000E+01  1.20100000E+01  1.20100000E+01  1.00800000E+00
  1.00800000E+00  1.00800000E+00  1.40100000E+01  1.20100000E+01  1.20100000E+01
  1.00800000E+00  1.00800000E+00  1.00800000E+00  1.40100000E+01  1.20100000E+01
  1.20100000E+01  1.00800000E+00  1.00800000E+00  1.00800000E+00  1.40100000E+01
  1.20100000E+01  1.20100000E+01  1.00800000E+00  1.00800000E+00  1.00800000E+00
  1.40100000E+01  1.20100000E+01  1.20100000E+01  1.00800000E+00  1.00800000E+00
  1.00800000E+00  1.40100000E+01  1.20100000E+01  1.20100000E+01  1.00800000E+00
  1.00800000E+00  1.00800000E+00  1.40100000E+01  1.20100000E+01  1.20100000E+01
  1.00800000E+00  1.00800000E+00  1.00800000E+00  1.40100000E+01  1.20100000E+01
  1.20100000E+01  1.00800000E+00  1.00800000E+00  1.00800000E+00  1.40100000E+01
  1.20100000E+01  1.20100000E+01  1.00800000E+00  1.00800000E+00  1.00800000E+00
  1.40100000E+01  1.20100000E+01  1.20100000E+01  1.00800000E+00  1.00800000E+00
  1.00800000E+00  1.40100000E+01  1.20100000E+01  1.20100000E+01  1.00800000E+00
  1.00800000E+00  1.00800000E+00  1.40100000E+01  1.20100000E+01  1.20100000E+01
  1.00800000E+00  1.00800000E+00  1.00800000E+00  1.40100000E+01  1.20100000E+01
  1.20100000E+01  1.00800000E+00  1.00800000E+00  1.00800000E+00  1.40100000E+01
  1.20100000E+01  1.20100000E+01  1.00800000E+00  1.00800000E+00  1.00800000E+00
  1.40100000E+01  1.20100000E+01  1.20100000E+01  1.00800000E+00  1.00800000E+00
  1.00800000E+00  1.40100000E+01  1.20100000E+01  1.20100000E+01  1.00800000E+00
  1.00800000E+00  1.00800000E+00  1.40100000E+01  1.20100000E+01  1.20100000E+01
  1.00800000E+00  1.00800000E+00  1.00800000E+00  1.40100000E+01  1.20100000E+01
  1.20100000E+01  1.00800000E+00  1.00800000E+00  1.00800000E+00  1.40100000E+01
  1.20100000E+01  1.20100000E+01  1.00800000E+00  1.00800000E+00  1.00800000E+00
  1.40100000E+01  1.20100000E+01  1.20100000E+01  1.00800000E+00  1.00800000E+00
  1.00800000E+00  1.40100000E+01  1.20100000E+01  1.20100000E+01  1.00800000E+00
  1.00800000E+00  1.00800000E+00  1.40100000E+01  1.20100000E+01  1.20100000E+01
  1.00800000E+00  1.00800000E+00  1.00800000E+00  1.40100000E+01  1.20100000E+01
  1.20100000E+01  1.00800000E+00  1.00800000E+00  1.00800000E+00  1.40100000E+01
  1.20100000E+01  1.20100000E+01  1.00800000E+00  1.00800000E+00  1.00800000E+00
  1.40100000E+01  1.20100000E+01  1.20100000E+01  1.00800000E+00  1.00800000E+00
  1.00800000E+00  1.40100000E+01  1.20100000E+01  1.20100000E+01  1.00800000E+00
  1.00800000E+00  1.00800000E+00  1.40100000E+01  1.20100000E+01  1.20100000E+01
  1.00800000E+00  1.00800000E+00  1.00800000E+00  1.40100000E+01  1.20100000E+01
  1.20100000E+01  1.00800000E+00  1.00800000E+00  1.00800000E+00  1.40100000E+01
  1.20100000E+01  1.20100000E+01  1.00800000E+00  1.00800000E+00  1.00800000E+00
  1.40100000E+01  1.20100000E+01  1.20100000E+01  1.00800000E+00  1.00800000E+00
  1.00800000E+00  1.40100000E+01  1.20100000E+01  1.20100000E+01  1.00800000E+00
  1.00800000E+00  1.00800000E+00  1.40100000E+01  1.20100000E+01  1.20100000E+01
  1.00800000E+00  1.00800000E+00  1.00800000E+00  1.40100000E+01  1.20100000E+01
  1.20100000E+01  1.00800000E+00  1.00800000E+00  1.00800000E+00  1.40100000E+01
  1.20100000E+01  1.20100000E+01  1.00800000E+00  1.00800000E+00  1.00800000E+00
  1.40100000E+01  1.20100000E+01  1.20100000E+01  1.00800000E+00  1.00800000E+00
  1.00800000E+00  1.40100000E+01  1.20100000E+01  1.20100000E+01  1.00800000E+00
  1.00800000E+00  1.00800000E+00  1.40100000E+01  1.20100000E+01  1.20100000E+01
  1.00800000E+00  1.00800000E+00  1.00800000E+00  1.40100000E+01  1.20100000E+01
  1.20100000E+01  1.00800000E+00  1.00800000E+00  1.00800000E+00  1.40100000E+01
  1.20100000E+01  1.20100000E+01  1.00800000E+00  1.00800000E+00  1.00800000E+00
  1.40100000E+01  1.20100000E+01  1.20100000E+01  1.00800000E+00  1.00800000E+00
  1.00800000E+00  1.40100000E+01  1.20100000E+01  1.20100000E+01  1.00800000E+00
  1.00800000E+00  1.00800000E+00  1.40100000E+01  1.20100000E+01  1.20100000E+01
  1.00800000E+00  1.00800000E+00  1.00800000E+00  1.40100000E+01  1.20100000E+01
  1.20100000E+01  1.00800000E+00  1.00800000E+00  1.00800000E+00  1.40100000E+01
  1.20100000E+01  1.20100000E+01  1.00800000E+00  1.00800000E+00  1.00800000E+00
  1.40100000E+01  1.20100000E+01  1.20100000E+01  1.00800000E+00  1.00800000E+00
  1.00800000E+00  1.40100000E+01  1.20100000E+01  1.20100000E+01  1.00800000E+00
  1.00800000E+00  1.00800000E+00  1.40100000E+01  1.20100000E+01  1.20100000E+01
  1.00800000E+00  1.00800000E+00  1.00800000E+00  1.40100000E+01  1.20100000E+01
  1.20100000E+01  1.00800000E+00  1.00800000E+00  1.00800000E+00  1.40100000E+01
  1.20100000E+01  1.20100000E+01  1.00800000E+00  1.00800000E+00  1.00800000E+00
  1.40100000E+01  1.20100000E+01  1.20100000E+01  1.00800000E+00  1.00800000E+00
  1.00800000E+00  1.40100000E+01  1.20100000E+01  1.20100000E+01  1.00800000E+00
  1.00800000E+00  1.00800000E+00  1.40100000E+01  1.20100000E+01  1.20100000E+01
  1.00800000E+00  1.00800000E+00  1.00800000E+00  1.40100000E+01  1.20100000E+01
  1.20100000E+01  1.00800000E+00  1.00800000E+00  1.00800000E+00  1.40100000E+01
  1.20100000E+01  1.20100000E+01  1.00800000E+00  1.00800000E+00  1.00800000E+00
  1.40100000E+01  1.20100000E+01  1.20100000E+01  1.00800000E+00  1.00800000E+00
  1.00800000E+00  1.40100000E+01  1.20100000E+01  1.20100000E+01  1.00800000E+00
  1.00800000E+00  1.00800000E+00  1.40100000E+01  1.20100000E+01  1.20100000E+01
  1.00800000E+00  1.00800000E+00  1.00800000E+00  1.40100000E+01  1.20100000E+01
  1.20100000E+01  1.00800000E+00  1.00800000E+00  1.00800000E+00  1.40100000E+01
  1.20100000E+01  1.20100000E+01  1.00800000E+00  1.00800000E+00  1.00800000E+00
  1.40100000E+01  1.20100000E+01  1.20100000E+01  1.00800000E+00  1.00800000E+00
  1.00800000E+00  1.40100000E+01  1.20100000E+01  1.20100000E+01  1.00800000E+00
  1.00800000E+00  1.00800000E+00  1.40100000E+01  1.20100000E+01  1.20100000E+01
  1.00800000E+00  1.00800000E+00  1.00800000E+00  1.40100000E+01  1.20100000E+01
  1.20100000E+01  1.00800000E+00  1.00800000E+00  1.00800000E+00  1.40100000E+01
  1.20100000E+01  1.20100000E+01  1.00800000E+00  1.00800000E+00  1.00800000E+00
  1.40100000E+01  1.20100000E+01  1.20100000E+01  1.00800000E+00  1.00800000E+00
  1.00800000E+00  1.40100000E+01  1.20100000E+01  1.20100000E+01  1.00800000E+00
  1.00800000E+00  1.00800000E+00  1.40100000E+01  1.20100000E+01  1.20100000E+01
  1.00800000E+00  1.00800000E+00  1.00800000E+00  1.40100000E+01  1.20100000E+01
  1.20100000E+01  1.00800000E+00  1.00800000E+00  1.00800000E+00  1.40100000E+01
  1.20100000E+01  1.20100000E+01  1.00800000E+00  1.00800000E+00  1.00800000E+00
  1.40100000E+01  1.20100000E+01  1.20100000E+01  1.00800000E+00  1.00800000E+00
  1.00800000E+00  1.40100000E+01  1.20100000E+01  1.20100000E+01  1.00800000E+00
  1.00800000E+00  1.00800000E+00  1.40100000E+01  1.20100000E+01  1.20100000E+01
  1.00800000E+00  1.00800000E+00  1.00800000E+00  1.40100000E+01  1.20100000E+01
  1.20100000E+01  1.00800000E+00  1.00800000E+00  1.00800000E+00  1.40100000E+01
  1.20100000E+01  1.20100000E+01  1.00800000E+00  1.00800000E+00  1.00800000E+00
  1.40100000E+01  1.20100000E+01  1.20100000E+01  1.00800000E+00  1.00800000E+00
  1.00800000E+00  1.40100000E+01  1.20100000E+01  1.20100000E+01  1.00800000E+00
  1.00800000E+00  1.00800000E+00  1.40100000E+01  1.20100000E+01  1.20100000E+01
  1.00800000E+00  1.00800000E+00  1.00800000E+00  1.40100000E+01  1.20100000E+01
  1.20100000E+01  1.00800000E+00  1.00800000E+00  1.00800000E+00  1.40100000E+01
  1.20100000E+01  1.20100000E+01  1.00800000E+00  1.00800000E+00  1.00800000E+00
  1.40100000E+01  1.20100000E+01  1.20100000E+01  1.00800000E+00  1.00800000E+00
  1.00800000E+00  1.40100000E+01  1.20100000E+01  1.20100000E+01  1.00800000E+00
  1.00800000E+00  1.00800000E+00  1.40100000E+01  1.20100000E+01  1.20100000E+01
  1.00800000E+00  1.00800000E+00  1.00800000E+00  1.40100000E+01  1.20100000E+01
  1.20100000E+01  1.00800000E+00  1.00800000E+00  1.00800000E+00  1.40100000E+01
  1.20100000E+01  1.20100000E+01  1.00800000E+00  1.00800000E+00  1.00800000E+00
  1.40100000E+01  1.20100000E+01  1.20100000E+01  1.00800000E+00  1.00800000E+00
  1.00800000E+00  1.40100000E+01  1.20100000E+01  1.20100000E+01  1.00800000E+00
  1.00800000E+00  1.00800000E+00  1.40100000E+01  1.20100000E+01  1.20100000E+01
  1.00800000E+00  1.00800000E+00  1.00800000E+00  1.40100000E+01  1.20100000E+01
  1.20100000E+01  1.00800000E+00  1.00800000E+00  1.00800000E+00  1.40100000E+01
  1.20100000E+01  1.20100000E+01  1.00800000E+00  1.00800000E+00  1.00800000E+00
  1.40100000E+01  1.20100000E+01  1.20100000E+01  1.00800000E+00  1.00800000E+00
  1.00800000E+00  1.40100000E+01  1.20100000E+01  1.20100000E+01  1.00800000E+00
  1.00800000E+00  1.00800000E+00  1.40100000E+01  1.20100000E+01  1.20100000E+01
  1.00800000E+00  1.00800000E+00  1.00800000E+00  1.40100000E+01  1.20100000E+01
  1.20100000E+01  1.00800000E+00  1.00800000E+00  1.00800000E+00  1.40100000E+01
  1.20100000E+01  1.20100000E+01  1.00800000E+00  1.00800000E+00  1.00800000E+00
  1.40100000E+01  1.20100000E+01  1.20100000E+01  1.00800000E+00  1.00800000E+00
  1.00800000E+00  1.40100000E+01  1.20100000E+01  1.20100000E+01  1.00800000E+00
  1.00800000E+00  1.00800000E+00  1.40100000E+01  1.20100000E+01  1.20100000E+01
  1.00800000E+00  1.00800000E+00  1.00800000E+00  1.40100000E+01  1.20100000E+01
  1.20100000E+01  1.00800000E+00  1.00800000E+00  1.00800000E+00  1.40100000E+01
  1.20100000E+01  1.20100000E+01  1.00800000E+00  1.00800000E+00  1.00800000E+00
  1.40100000E+01  1.20100000E+01  1.20100000E+01  1.00800000E+00  1.00800000E+00
  1.00800000E+00  1.40100000E+01  1.20100000E+01  1.20100000E+01  1.00800000E+00
  1.00800000E+00  1.00800000E+00  1.40100000E+01  1.20100000E+01  1.20100000E+01
  1.00800000E+00  1.00800000E+00  1.00800000E+00  1.40100000E+01  1.20100000E+01
  1.20100000E+01  1.00800000E+00  1.00800000E+00  1.00800000E+00  1.40100000E+01
  1.20100000E+01  1.20100000E+01  1.00800000E+00  1.00800000E+00  1.00800000E+00
  1.40100000E+01  1.20100000E+01  1.20100000E+01  1.00800000E+00  1.00800000E+00
  1.00800000E+00  1.40100000E+01  1.20100000E+01  1.20100000E+01  1.00800000E+00
  1.00800000E+00  1.00800000E+00  1.40100000E+01  1.20100000E+01  1.20100000E+01
  1.00800000E+00  1.00800000E+00  1.00800000E+00  1.40100000E+01  1.20100000E+01
  1.20100000E+01  1.00800000E+00  1.00800000E+00  1.00800000E+00  1.40100000E+01
  1.20100000E+01  1.20100000E+01  1.00800000E+00  1.00800000E+00  1.00800000E+00
  1.40100000E+01  1.20100000E+01  1.20100000E+01  1.00800000E+00  1.00800000E+00
  1.00800000E+00  1.40100000E+01  1.20100000E+01  1.20100000E+01  1.00800000E+00
  1.00800000E+00  1.00800000E+00  1.40100000E+01  1.20100000E+01  1.20100000E+01
  1.00800000E+00  1.00800000E+00  1.00800000E+00  1.40100000E+01  1.20100000E+01
  1.20100000E+01  1.00800000E+00  1.00800000E+00  1.00800000E+00  1.40100000E+01
  1.20100000E+01  1.20100000E+01  1.00800000E+00  1.00800000E+00  1.00800000E+00
  1.40100000E+01  1.20100000E+01  1.20100000E+01  1.00800000E+00  1.00800000E+00
  1.00800000E+00  1.40100000E+01  1.20100000E+01  1.20100000E+01  1.00800000E+00
  1.00800000E+00  1.00800000E+00  1.40100000E+01  1.20100000E+01  1.20100000E+01
  1.00800000E+00  1.00800000E+00  1.00800000E+00  1.40100000E+01  1.20100000E+01
  1.20100000E+01  1.00800000E+00  1.00800000E+00  1.00800000E+00  1.40100000E+01
  1.20100000E+01  1.20100000E+01  1.00800000E+00  1.00800000E+00  1.00800000E+00
  1.40100000E+01  1.20100000E+01  1.20100000E+01  1.00800000E+00  1.00800000E+00
  1.00800000E+00  1.40100000E+01  1.20100000E+01  1.20100000E+01  1.00800000E+00
  1.00800000E+00  1.00800000E+00  1.40100000E+01  1.20100000E+01  1.20100000E+01
  1.00800000E+00  1.00800000E+00  1.00800000E+00  1.40100000E+01  1.20100000E+01
  1.20100000E+01  1.00800000E+00  1.00800000E+00  1.00800000E+00  1.40100000E+01
  1.20100000E+01  1.20100000E+01  1.00800000E+00  1.00800000E+00  1.00800000E+00
  1.40100000E+01  1.20100000E+01  1.20100000E+01  1.00800000E+00  1.00800000E+00
  1.00800000E+00  1.40100000E+01  1.20100000E+01  1.20100000E+01  1.00800000E+00
  1.00800000E+00  1.00800000E+00  1.40100000E+01  1.20100000E+01  1.20100000E+01
  1.00800000E+00  1.00800000E+00  1.00800000E+00  1.40100000E+01  1.20100000E+01
  1.20100000E+01  1.00800000E+00  1.00800000E+00  1.00800000E+00  1.40100000E+01
  1.20100000E+01  1.20100000E+01  1.00800000E+00  1.00800000E+00  1.00800000E+00
  1.40100000E+01  1.20100000E+01  1.20100000E+01  1.00800000E+00  1.00800000E+00
  1.00800000E+00  1.40100000E+01  1.20100000E+01  1.20100000E+01  1.00800000E+00
  1.00800000E+00  1.00800000E+00  1.40100000E+01  1.20100000E+01  1.20100000E+01
  1.00800000E+00  1.00800000E+00  1.00800000E+00  1.40100000E+01  1.20100000E+01
  1.20100000E+01  1.00800000E+00  1.00800000E+00  1.00800000E+00  1.40100000E+01
  1.20100000E+01  1.20100000E+01  1.00800000E+00  1.00800000E+00  1.00800000E+00
  1.40100000E+01  1.20100000E+01  1.20100000E+01  1.00800000E+00  1.00800000E+00
  1.00800000E+00  1.40100000E+01  1.20100000E+01  1.20100000E+01  1.00800000E+00
  1.00800000E+00  1.00800000E+00  1.40100000E+01  1.20100000E+01  1.20100000E+01
  1.00800000E+00  1.00800000E+00  1.00800000E+00  1.40100000E+01  1.20100000E+01
  1.20100000E+01  1.00800000E+00  1.00800000E+00  1.00800000E+00  1.40100000E+01
  1.20100000E+01  1.20100000E+01  1.00800000E+00  1.00800000E+00  1.00800000E+00
  1.40100000E+01  1.20100000E+01  1.20100000E+01  1.00800000E+00  1.00800000E+00
  1.00800000E+00  1.40100000E+01  1.20100000E+01  1.20100000E+01  1.00800000E+00
  1.00800000E+00  1.00800000E+00  1.40100000E+01  1.20100000E+01  1.20100000E+01
  1.00800000E+00  1.00800000E+00  1.00800000E+00  1.40100000E+01  1.20100000E+01
  1.20100000E+01  1.00800000E+00  1.00800000E+00  1.00800000E+00  1.40100000E+01
  1.20100000E+01  1.20100000E+01  1.00800000E+00  1.00800000E+00  1.00800000E+00
  1.40100000E+01  1.20100000E+01  1.20100000E+01  1.00800000E+00  1.00800000E+00
  1.00800000E+00  1.40100000E+01  1.20100000E+01  1.20100000E+01  1.00800000E+00
  1.00800000E+00  1.00800000E+00  1.40100000E+01  1.20100000E+01  1.20100000E+01
  1.00800000E+00  1.00800000E+00  1.00800000E+00  1.40100000E+01  1.20100000E+01
  1.20100000E+01  1.00800000E+00  1.00800000E+00  1.00800000E+00  1.40100000E+01
  1.20100000E+01  1.20100000E+01  1.00800000E+00  1.00800000E+00  1.00800000E+00
  1.40100000E+01  1.20100000E+01  1.20100000E+01  1.00800000E+00  1.00800000E+00
  1.00800000E+00  1.40100000E+01  1.20100000E+01  1.20100000E+01  1.00800000E+00
  1.00800000E+00  1.00800000E+00  1.40100000E+01  1.20100000E+01  1.20100000E+01
  1.00800000E+00  1.00800000E+00  1.00800000E+00  1.40100000E+01  1.20100000E+01
  1.20100000E+01  1.00800000E+00  1.00800000E+00  1.00800000E+00  1.40100000E+01
  1.20100000E+01  1.20100000E+01  1.00800000E+00  1.00800000E+00  1.00800000E+00
  1.40100000E+01  1.20100000E+01  1.20100000E+01  1.00800000E+00  1.00800000E+00
  1.00800000E+00  1.40100000E+01  1.20100000E+01  1.20100000E+01  1.00800000E+00
  1.00800000E+00  1.00800000E+00  1.40100000E+01  1.20100000E+01  1.20100000E+01
  1.00800000E+00  1.00800000E+00  1.00800000E+00  1.40100000E+01  1.20100000E+01
  1.20100000E+01  1.00800000E+00  1.00800000E+00  1.00800000E+00  1.40100000E+01
  1.20100000E+01  1.20100000E+01  1.00800000E+00  1.00800000E+00  1.00800000E+00
  1.40100000E+01  1.20100000E+01  1.20100000E+01  1.00800000E+00  1.00800000E+00
  1.00800000E+00  1.40100000E+01  1.20100000E+01  1.20100000E+01  1.00800000E+00
  1.00800000E+00  1.00800000E+00  1.40100000E+01  1.20100000E+01  1.20100000E+01
  1.00800000E+00  1.00800000E+00  1.00800000E+00  1.40100000E+01  1.20100000E+01
  1.20100000E+01  1.00800000E+00  1.00800000E+00  1.00800000E+00  1.40100000E+01
  1.20100000E+01  1.20100000E+01  1.00800000E+00  1.00800000E+00  1.00800000E+00
  1.40100000E+01  1.20100000E+01  1.20100000E+01  1.00800000E+00  1.00800000E+00
  1.00800000E+00  1.40100000E+01  1.20100000E+01  1.20100000E+01  1.00800000E+00
  1.00800000E+00  1.00800000E+00  1.40100000E+01  1.20100000E+01  1.20100000E+01
  1.00800000E+00  1.00800000E+00  1.00800000E+00  1.40100000E+01  1.20100000E+01
  1.20100000E+01  1.00800000E+00  1.00800000E+00  1.00800000E+00  1.40100000E+01
  1.20100000E+01  1.20100000E+01  1.00800000E+00  1.00800000E+00  1.00800000E+00
  1.40100000E+01  1.20100000E+01  1.20100000E+01  1.00800000E+00  1.00800000E+00
  1.00800000E+00  1.40100000E+01  1.20100000E+01  1.20100000E+01  1.00800000E+00
  1.00800000E+00  1.00800000E+00  1.40100000E+01  1.20100000E+01  1.20100000E+01
  1.00800000E+00  1.00800000E+00  1.00800000E+00  1.40100000E+01  1.20100000E+01
  1.20100000E+01  1.00800000E+00  1.00800000E+00  1.00800000E+00  1.40100000E+01
  1.20100000E+01  1.20100000E+01  1.00800000E+00  1.00800000E+00  1.00800000E+00
  1.40100000E+01  1.20100000E+01  1.20100000E+01  1.00800000E+00  1.00800000E+00
  1.00800000E+00  1.40100000E+01  1.20100000E+01  1.20100000E+01  1.00800000E+00
  1.00800000E+00  1.00800000E+00  1.40100000E+01  1.20100000E+01  1.20100000E+01
  1.00800000E+00  1.00800000E+00  1.00800000E+00  1.40100000E+01  1.20100000E+01
  1.20100000E+01  1.00800000E+00  1.00800000E+00  1.00800000E+00  1.40100000E+01
  1.20100000E+01  1.20100000E+01  1.00800000E+00  1.00800000E+00  1.00800000E+00
  1.40100000E+01  1.20100000E+01  1.20100000E+01  1.00800000E+00  1.00800000E+00
  1.00800000E+00  1.40100000E+01  1.20100000E+01  1.20100000E+01  1.00800000E+00
  1.00800000E+00  1.00800000E+00  1.40100000E+01  1.20100000E+01  1.20100000E+01
  1.00800000E+00  1.00800000E+00  1.00800000E+00  1.40100000E+01  1.20100000E+01
  1.20100000E+01  1.00800000E+00  1.00800000E+00  1.00800000E+00  1.40100000E+01
  1.20100000E+01  1.20100000E+01  1.00800000E+00  1.00800000E+00  1.00800000E+00
  1.40100000E+01  1.20100000E+01  1.20100000E+01  1.00800000E+00  1.00800000E+00
  1.00800000E+00  1.40100000E+01  1.20100000E+01  1.20100000E+01  1.00800000E+00
  1.00800000E+00  1.00800000E+00  1.40100000E+01  1.20100000E+01  1.20100000E+01
  1.00800000E+00  1.00800000E+00  1.00800000E+00  1.40100000E+01  1.20100000E+01
  1.20100000E+01  1.00800000E+00  1.00800000E+00  1.00800000E+00  1.40100000E+01
  1.20100000E+01  1.20100000E+01  1.00800000E+00  1.00800000E+00  1.00800000E+00
  1.40100000E+01  1.20100000E+01  1.20100000E+01  1.00800000E+00  1.00800000E+00
  1.00800000E+00  1.40100000E+01  1.20100000E+01  1.20100000E+01  1.00800000E+00
  1.00800000E+00  1.00800000E+00  1.40100000E+01  1.20100000E+01  1.20100000E+01
  1.00800000E+00  1.00800000E+00  1.00800000E+00  1.40100000E+01  1.20100000E+01
  1.20100000E+01  1.00800000E+00  1.00800000E+00  1.00800000E+00  1.40100000E+01
  1.20100000E+01  1.20100000E+01  1.00800000E+00  1.00800000E+00  1.00800000E+00
  1.40100000E+01  1.20100000E+01  1.20100000E+01  1.00800000E+00  1.00800000E+00
  1.00800000E+00  1.40100000E+01  1.20100000E+01  1.20100000E+01  1.00800000E+00
  1.00800000E+00  1.00800000E+00  1.40100000E+01  1.20100000E+01  1.20100000E+01
  1.00800000E+00  1.00800000E+00  1.00800000E+00  1.40100000E+01  1.20100000E+01
  1.20100000E+01  1.00800000E+00  1.00800000E+00  1.00800000E+00  1.40100000E+01
  1.20100000E+01  1.20100000E+01  1.00800000E+00  1.00800000E+00  1.00800000E+00
  1.40100000E+01  1.20100000E+01  1.20100000E+01  1.00800000E+00  1.00800000E+00
  1.00800000E+00  1.40100000E+01  1.20100000E+01  1.20100000E+01  1.00800000E+00
  1.00800000E+00  1.00800000E+00  1.40100000E+01  1.20100000E+01  1.20100000E+01
  1.00800000E+00  1.00800000E+00  1.00800000E+00  1.40100000E+01  1.20100000E+01
  1.20100000E+01  1.00800000E+00  1.00800000E+00  1.00800000E+00  1.40100000E+01
  1.20100000E+01  1.20100000E+01  1.00800000E+00  1.00800000E+00  1.00800000E+00
  1.40100000E+01  1.20100000E+01  1.20100000E+01  1.00800000E+00  1.00800000E+00
  1.00800000E+00  1.40100000E+01  1.20100000E+01  1.20100000E+01  1.00800000E+00
  1.00800000E+00  1.00800000E+00  1.40100000E+01  1.20100000E+01  1.20100000E+01
  1.00800000E+00  1.00800000E+00  1.00800000E+00  1.40100000E+01  1.20100000E+01
  1.20100000E+01  1.00800000E+00  1.00800000E+00  1.00800000E+00  1.40100000E+01
  1.20100000E+01  1.20100000E+01  1.00800000E+00  1.00800000E+00  1.00800000E+00
  1.40100000E+01  1.20100000E+01  1.20100000E+01  1.00800000E+00  1.00800000E+00
  1.00800000E+00  1.40100000E+01  1.20100000E+01  1.20100000E+01  1.00800000E+00
  1.00800000E+00  1.00800000E+00  1.40100000E+01  1.20100000E+01  1.20100000E+01
  1.00800000E+00  1.00800000E+00  1.00800000E+00  1.40100000E+01  1.20100000E+01
  1.20100000E+01  1.00800000E+00  1.00800000E+00  1.00800000E+00  1.40100000E+01
  1.20100000E+01  1.20100000E+01  1.00800000E+00  1.00800000E+00  1.00800000E+00
  1.40100000E+01  1.20100000E+01  1.20100000E+01  1.00800000E+00  1.00800000E+00
  1.00800000E+00  1.40100000E+01  1.20100000E+01  1.20100000E+01  1.00800000E+00
  1.00800000E+00  1.00800000E+00  1.40100000E+01  1.20100000E+01  1.20100000E+01
  1.00800000E+00  1.00800000E+00  1.00800000E+00  1.40100000E+01  1.20100000E+01
  1.20100000E+01  1.00800000E+00  1.00800000E+00  1.00800000E+00  1.40100000E+01
  1.20100000E+01  1.20100000E+01  1.00800000E+00  1.00800000E+00  1.00800000E+00
  1.40100000E+01  1.20100000E+01  1.20100000E+01  1.00800000E+00  1.00800000E+00
  1.00800000E+00  1.40100000E+01  1.20100000E+01  1.20100000E+01  1.00800000E+00
  1.00800000E+00  1.00800000E+00  1.40100000E+01  1.20100000E+01  1.20100000E+01
  1.00800000E+00  1.00800000E+00  1.00800000E+00  1.40100000E+01  1.20100000E+01
  1.20100000E+01  1.00800000E+00  1.00800000E+00  1.00800000E+00  1.40100000E+01
  1.20100000E+01  1.20100000E+01  1.00800000E+00  1.00800000E+00  1.00800000E+00
  1.40100000E+01  1.20100000E+01  1.20100000E+01  1.00800000E+00  1.00800000E+00
  1.00800000E+00  1.40100000E+01  1.20100000E+01  1.20100000E+01  1.00800000E+00
  1.00800000E+00  1.00800000E+00  1.40100000E+01  1.20100000E+01  1.20100000E+01
  1.00800000E+00  1.00800000E+00  1.00800000E+00  1.40100000E+01  1.20100000E+01
  1.20100000E+01  1.00800000E+00  1.00800000E+00  1.00800000E+00  1.40100000E+01
  1.20100000E+01  1.20100000E+01  1.00800000E+00  1.00800000E+00  1.00800000E+00
  1.40100000E+01  1.20100000E+01  1.20100000E+01  1.00800000E+00  1.00800000E+00
  1.00800000E+00  1.40100000E+01  1.20100000E+01  1.20100000E+01  1.00800000E+00
  1.00800000E+00  1.00800000E+00  1.40100000E+01  1.20100000E+01  1.20100000E+01
  1.00800000E+00  1.00800000E+00  1.00800000E+00  1.40100000E+01  1.20100000E+01
  1.20100000E+01  1.00800000E+00  1.00800000E+00  1.00800000E+00  1.40100000E+01
  1.20100000E+01  1.20100000E+01  1.00800000E+00  1.00800000E+00  1.00800000E+00
  1.40100000E+01  1.20100000E+01  1.20100000E+01  1.00800000E+00  1.00800000E+00
  1.00800000E+00  1.40100000E+01  1.20100000E+01  1.20100000E+01  1.00800000E+00
  1.00800000E+00  1.00800000E+00  1.40100000E+01  1.20100000E+01  1.20100000E+01
  1.00800000E+00  1.00800000E+00  1.00800000E+00  1.40100000E+01  1.20100000E+01
  1.20100000E+01  1.00800000E+00  1.00800000E+00  1.00800000E+00  1.40100000E+01
  1.20100000E+01  1.20100000E+01  1.00800000E+00  1.00800000E+00  1.00800000E+00
  1.40100000E+01  1.20100000E+01  1.20100000E+01  1.00800000E+00  1.00800000E+00
  1.00800000E+00  1.40100000E+01  1.20100000E+01  1.20100000E+01  1.00800000E+00
  1.00800000E+00  1.00800000E+00  1.40100000E+01  1.20100000E+01  1.20100000E+01
  1.00800000E+00  1.00800000E+00  1.00800000E+00  1.40100000E+01  1.20100000E+01
  1.20100000E+01  1.00800000E+00  1.00800000E+00  1.00800000E+00  1.40100000E+01
  1.20100000E+01  1.20100000E+01  1.00800000E+00  1.00800000E+00  1.00800000E+00
  1.40100000E+01  1.20100000E+01  1.20100000E+01  1.00800000E+00  1.00800000E+00
  1.00800000E+00  1.40100000E+01  1.20100000E+01  1.20100000E+01  1.00800000E+00
  1.00800000E+00  1.00800000E+00  1.40100000E+01  1.20100000E+01  1.20100000E+01
  1.00800000E+00  1.00800000E+00  1.00800000E+00  1.40100000E+01  1.20100000E+01
  1.20100000E+01  1.00800000E+00  1.00800000E+00  1.00800000E+00  1.40100000E+01
  1.20100000E+01  1.20100000E+01  1.00800000E+00  1.00800000E+00  1.00800000E+00
  1.40100000E+01  1.20100000E+01  1.20100000E+01  1.00800000E+00  1.00800000E+00
  1.00800000E+00  1.40100000E+01  1.20100000E+01  1.20100000E+01  1.00800000E+00
  1.00800000E+00  1.00800000E+00  1.40100000E+01  1.20100000E+01  1.20100000E+01
  1.00800000E+00  1.00800000E+00  1.00800000E+00  1.40100000E+01  1.20100000E+01
  1.20100000E+01  1.00800000E+00  1.00800000E+00  1.00800000E+00  1.40100000E+01
  1.20100000E+01  1.20100000E+01  1.00800000E+00  1.00800000E+00  1.00800000E+00
  1.40100000E+01  1.20100000E+01  1.20100000E+01  1.00800000E+00  1.00800000E+00
  1.00800000E+00  1.40100000E+01  1.20100000E+01  1.20100000E+01  1.00800000E+00
  1.00800000E+00  1.00800000E+00  1.40100000E+01  1.20100000E+01  1.20100000E+01
  1.00800000E+00  1.00800000E+00  1.00800000E+00  1.40100000E+01  1.20100000E+01
  1.20100000E+01  1.00800000E+00  1.00800000E+00  1.00800000E+00  1.40100000E+01
  1.20100000E+01  1.20100000E+01  1.00800000E+00  1.00800000E+00  1.00800000E+00
  1.40100000E+01  1.20100000E+01  1.20100000E+01  1.00800000E+00  1.00800000E+00
  1.00800000E+00  1.40100000E+01  1.20100000E+01  1.20100000E+01  1.00800000E+00
  1.00800000E+00  1.00800000E+00  1.40100000E+01  1.20100000E+01  1.20100000E+01
  1.00800000E+00  1.00800000E+00  1.00800000E+00  1.40100000E+01  1.20100000E+01
  1.20100000E+01  1.00800000E+00  1.00800000E+00  1.00800000E+00  1.40100000E+01
  1.20100000E+01  1.20100000E+01  1.00800000E+00  1.00800000E+00  1.00800000E+00
  1.40100000E+01  1.20100000E+01  1.20100000E+01  1.00800000E+00  1.00800000E+00
  1.00800000E+00  1.40100000E+01  1.20100000E+01  1.20100000E+01  1.00800000E+00
  1.00800000E+00  1.00800000E+00  1.40100000E+01  1.20100000E+01  1.20100000E+01
  1.00800000E+00  1.00800000E+00  1.00800000E+00  1.40100000E+01  1.20100000E+01
  1.20100000E+01  1.00800000E+00  1.00800000E+00  1.00800000E+00  1.40100000E+01
  1.20100000E+01  1.20100000E+01  1.00800000E+00  1.00800000E+00  1.00800000E+00
  1.40100000E+01  1.20100000E+01  1.20100000E+01  1.00800000E+00  1.00800000E+00
  1.00800000E+00  1.40100000E+01  1.20100000E+01  1.20100000E+01  1.00800000E+00
  1.00800000E+00  1.00800000E+00  1.40100000E+01  1.20100000E+01  1.20100000E+01
  1.00800000E+00  1.00800000E+00  1.00800000E+00  1.40100000E+01  1.20100000E+01
  1.20100000E+01  1.00800000E+00  1.00800000E+00  1.00800000E+00  1.40100000E+01
  1.20100000E+01  1.20100000E+01  1.00800000E+00  1.00800000E+00  1.00800000E+00
  1.40100000E+01  1.20100000E+01  1.20100000E+01  1.00800000E+00  1.00800000E+00
  1.00800000E+00  1.40100000E+01  1.20100000E+01  1.20100000E+01  1.00800000E+00
  1.00800000E+00  1.00800000E+00  1.40100000E+01  1.20100000E+01  1.20100000E+01
  1.00800000E+00  1.00800000E+00  1.00800000E+00  1.40100000E+01  1.20100000E+01
  1.20100000E+01  1.00800000E+00  1.00800000E+00  1.00800000E+00  1.40100000E+01
  1.20100000E+01  1.20100000E+01  1.00800000E+00  1.00800000E+00  1.00800000E+00
  1.40100000E+01  1.20100000E+01  1.20100000E+01  1.00800000E+00  1.00800000E+00
  1.00800000E+00  1.40100000E+01  1.20100000E+01  1.20100000E+01  1.00800000E+00
  1.00800000E+00  1.00800000E+00  1.40100000E+01  1.20100000E+01  1.20100000E+01
  1.00800000E+00  1.00800000E+00  1.00800000E+00  1.40100000E+01  1.20100000E+01
  1.20100000E+01  1.00800000E+00  1.00800000E+00  1.00800000E+00  1.40100000E+01
  1.20100000E+01  1.20100000E+01  1.00800000E+00  1.00800000E+00  1.00800000E+00
  1.40100000E+01  1.20100000E+01  1.20100000E+01  1.00800000E+00  1.00800000E+00
  1.00800000E+00  1.40100000E+01  1.20100000E+01  1.20100000E+01  1.00800000E+00
  1.00800000E+00  1.00800000E+00  1.40100000E+01  1.20100000E+01  1.20100000E+01
  1.00800000E+00  1.00800000E+00  1.00800000E+00  1.40100000E+01  1.20100000E+01
  1.20100000E+01  1.00800000E+00  1.00800000E+00  1.00800000E+00  1.40100000E+01
  1.20100000E+01  1.20100000E+01  1.00800000E+00  1.00800000E+00  1.00800000E+00
  1.40100000E+01  1.20100000E+01  1.20100000E+01  1.00800000E+00  1.00800000E+00
  1.00800000E+00  1.40100000E+01  1.20100000E+01  1.20100000E+01  1.00800000E+00
  1.00800000E+00  1.00800000E+00  1.40100000E+01  1.20100000E+01  1.20100000E+01
  1.00800000E+00  1.00800000E+00  1.00800000E+00  1.40100000E+01  1.20100000E+01
  1.20100000E+01  1.00800000E+00  1.00800000E+00  1.00800000E+00  1.40100000E+01
  1.20100000E+01  1.20100000E+01  1.00800000E+00  1.00800000E+00  1.00800000E+00
  1.40100000E+01  1.20100000E+01  1.20100000E+01  1.00800000E+00  1.00800000E+00
  1.00800000E+00  1.40100000E+01  1.20100000E+01  1.20100000E+01  1.00800000E+00
  1.00800000E+00  1.00800000E+00  1.40100000E+01  1.20100000E+01  1.20100000E+01
  1.00800000E+00  1.00800000E+00  1.00800000E+00  1.40100000E+01  1.20100000E+01
  1.20100000E+01  1.00800000E+00  1.00800000E+00  1.00800000E+00  1.40100000E+01
  1.20100000E+01  1.20100000E+01  1.00800000E+00  1.00800000E+00  1.00800000E+00
  1.40100000E+01  1.20100000E+01  1.20100000E+01  1.00800000E+00  1.00800000E+00
  1.00800000E+00  1.40100000E+01  1.20100000E+01  1.20100000E+01  1.00800000E+00
  1.00800000E+00  1.00800000E+00  1.40100000E+01  1.20100000E+01  1.20100000E+01
  1.00800000E+00  1.00800000E+00  1.00800000E+00  1.40100000E+01  1.20100000E+01
  1.20100000E+01  1.00800000E+00  1.00800000E+00  1.00800000E+00  1.40100000E+01
  1.20100000E+01  1.20100000E+01  1.00800000E+00  1.00800000E+00  1.00800000E+00
  1.40100000E+01  1.20100000E+01  1.20100000E+01  1.00800000E+00  1.00800000E+00
  1.00800000E+00  1.40100000E+01  1.20100000E+01  1.20100000E+01  1.00800000E+00
  1.00800000E+00  1.00800000E+00  1.40100000E+01  1.20100000E+01  1.20100000E+01
  1.00800000E+00  1.00800000E+00  1.00800000E+00  1.40100000E+01  1.20100000E+01
  1.20100000E+01  1.00800000E+00  1.00800000E+00  1.00800000E+00  1.40100000E+01
  1.20100000E+01  1.20100000E+01  1.00800000E+00  1.00800000E+00  1.00800000E+00
  1.40100000E+01  1.20100000E+01  1.20100000E+01  1.00800000E+00  1.00800000E+00
  1.00800000E+00  1.40100000E+01  1.20100000E+01  1.20100000E+01  1.00800000E+00
  1.00800000E+00  1.00800000E+00  1.40100000E+01  1.20100000E+01  1.20100000E+01
  1.00800000E+00  1.00800000E+00  1.00800000E+00  1.40100000E+01  1.20100000E+01
  1.20100000E+01  1.00800000E+00  1.00800000E+00  1.00800000E+00  1.40100000E+01
  1.20100000E+01  1.20100000E+01  1.00800000E+00  1.00800000E+00  1.00800000E+00
  1.40100000E+01  1.20100000E+01  1.20100000E+01  1.00800000E+00  1.00800000E+00
  1.00800000E+00  1.40100000E+01  1.20100000E+01  1.20100000E+01  1.00800000E+00
  1.00800000E+00  1.00800000E+00  1.40100000E+01  1.20100000E+01  1.20100000E+01
  1.00800000E+00  1.00800000E+00  1.00800000E+00  1.40100000E+01  1.20100000E+01
  1.20100000E+01  1.00800000E+00  1.00800000E+00  1.00800000E+00  1.40100000E+01
  1.20100000E+01  1.20100000E+01  1.00800000E+00  1.00800000E+00  1.00800000E+00
  1.40100000E+01  1.20100000E+01  1.20100000E+01  1.00800000E+00  1.00800000E+00
  1.00800000E+00  1.40100000E+01  1.20100000E+01  1.20100000E+01  1.00800000E+00
  1.00800000E+00  1.00800000E+00  1.40100000E+01  1.20100000E+01  1.20100000E+01
  1.00800000E+00  1.00800000E+00  1.00800000E+00  1.40100000E+01  1.20100000E+01
  1.20100000E+01  1.00800000E+00  1.00800000E+00  1.00800000E+00  1.40100000E+01
  1.20100000E+01  1.20100000E+01  1.00800000E+00  1.00800000E+00  1.00800000E+00
  1.40100000E+01  1.20100000E+01  1.20100000E+01  1.00800000E+00  1.00800000E+00
  1.00800000E+00  1.40100000E+01  1.20100000E+01  1.20100000E+01  1.00800000E+00
  1.00800000E+00  1.00800000E+00  1.40100000E+01  1.20100000E+01  1.20100000E+01
  1.00800000E+00  1.00800000E+00  1.00800000E+00  1.40100000E+01  1.20100000E+01
  1.20100000E+01  1.00800000E+00  1.00800000E+00  1.00800000E+00  1.40100000E+01
  1.20100000E+01  1.20100000E+01  1.00800000E+00  1.00800000E+00  1.00800000E+00
  1.40100000E+01  1.20100000E+01  1.20100000E+01  1.00800000E+00  1.00800000E+00
  1.00800000E+00  1.40100000E+01  1.20100000E+01  1.20100000E+01  1.00800000E+00
  1.00800000E+00  1.00800000E+00  1.40100000E+01  1.20100000E+01  1.20100000E+01
  1.00800000E+00  1.00800000E+00  1.00800000E+00  1.40100000E+01  1.20100000E+01
  1.20100000E+01  1.00800000E+00  1.00800000E+00  1.00800000E+00  1.40100000E+01
  1.20100000E+01  1.20100000E+01  1.00800000E+00  1.00800000E+00  1.00800000E+00
  1.40100000E+01  1.20100000E+01  1.20100000E+01  1.00800000E+00  1.00800000E+00
  1.00800000E+00  1.40100000E+01  1.20100000E+01  1.20100000E+01  1.00800000E+00
  1.00800000E+00  1.00800000E+00  1.40100000E+01  1.20100000E+01  1.20100000E+01
  1.00800000E+00  1.00800000E+00  1.00800000E+00  1.40100000E+01  1.20100000E+01
  1.20100000E+01  1.00800000E+00  1.00800000E+00  1.00800000E+00  1.40100000E+01
  1.20100000E+01  1.20100000E+01  1.00800000E+00  1.00800000E+00  1.00800000E+00
  1.40100000E+01  1.20100000E+01  1.20100000E+01  1.00800000E+00  1.00800000E+00
  1.00800000E+00  1.40100000E+01  1.20100000E+01  1.20100000E+01  1.00800000E+00
  1.00800000E+00  1.00800000E+00  1.40100000E+01  1.20100000E+01  1.20100000E+01
  1.00800000E+00  1.00800000E+00  1.00800000E+00  1.40100000E+01  1.20100000E+01
  1.20100000E+01  1.00800000E+00  1.00800000E+00  1.00800000E+00  1.40100000E+01
  1.20100000E+01  1.20100000E+01  1.00800000E+00  1.00800000E+00  1.00800000E+00
  1.40100000E+01  1.20100000E+01  1.20100000E+01  1.00800000E+00  1.00800000E+00
  1.00800000E+00  1.40100000E+01  1.20100000E+01  1.20100000E+01  1.00800000E+00
  1.00800000E+00  1.00800000E+00  1.40100000E+01  1.20100000E+01  1.20100000E+01
  1.00800000E+00  1.00800000E+00  1.00800000E+00  1.40100000E+01  1.20100000E+01
  1.20100000E+01  1.00800000E+00  1.00800000E+00  1.00800000E+00  1.40100000E+01
  1.20100000E+01  1.20100000E+01  1.00800000E+00  1.00800000E+00  1.00800000E+00
  1.40100000E+01  1.20100000E+01  1.20100000E+01  1.00800000E+00  1.00800000E+00
  1.00800000E+00  1.40100000E+01  1.20100000E+01  1.20100000E+01  1.00800000E+00
  1.00800000E+00  1.00800000E+00  1.40100000E+01  1.20100000E+01  1.20100000E+01
  1.00800000E+00  1.00800000E+00  1.00800000E+00  1.40100000E+01  1.20100000E+01
  1.20100000E+01  1.00800000E+00  1.00800000E+00  1.00800000E+00  1.40100000E+01
  1.20100000E+01  1.20100000E+01  1.00800000E+00  1.00800000E+00  1.00800000E+00
  1.40100000E+01  1.20100000E+01  1.20100000E+01  1.00800000E+00  1.00800000E+00
  1.00800000E+00  1.40100000E+01  1.20100000E+01  1.20100000E+01  1.00800000E+00
  1.00800000E+00  1.00800000E+00  1.40100000E+01  1.20100000E+01  1.20100000E+01
  1.00800000E+00  1.00800000E+00  1.00800000E+00  1.40100000E+01  1.20100000E+01
  1.20100000E+01  1.00800000E+00  1.00800000E+00  1.00800000E+00  1.40100000E+01
  1.20100000E+01  1.20100000E+01  1.00800000E+00  1.00800000E+00  1.00800000E+00
  1.40100000E+01  1.20100000E+01  1.20100000E+01  1.00800000E+00  1.00800000E+00
  1.00800000E+00  1.40100000E+01  1.20100000E+01  1.20100000E+01  1.00800000E+00
  1.00800000E+00  1.00800000E+00  1.40100000E+01  1.20100000E+01  1.20100000E+01
  1.00800000E+00  1.00800000E+00  1.00800000E+00  1.40100000E+01  1.20100000E+01
  1.20100000E+01  1.00800000E+00  1.00800000E+00  1.00800000E+00  1.40100000E+01
  1.20100000E+01  1.20100000E+01  1.00800000E+00  1.00800000E+00  1.00800000E+00
  1.40100000E+01  1.20100000E+01  1.20100000E+01  1.00800000E+00  1.00800000E+00
  1.00800000E+00  1.40100000E+01  1.20100000E+01  1.20100000E+01  1.00800000E+00
  1.00800000E+00  1.00800000E+00  1.40100000E+01  1.20100000E+01  1.20100000E+01
  1.00800000E+00  1.00800000E+00  1.00800000E+00  1.40100000E+01  1.20100000E+01
  1.20100000E+01  1.00800000E+00  1.00800000E+00  1.00800000E+00  1.40100000E+01
  1.20100000E+01  1.20100000E+01  1.00800000E+00  1.00800000E+00  1.00800000E+00
  1.40100000E+01  1.20100000E+01  1.20100000E+01  1.00800000E+00  1.00800000E+00
  1.00800000E+00  1.40100000E+01  1.20100000E+01  1.20100000E+01  1.00800000E+00
  1.00800000E+00  1.00800000E+00
%FLAG ATOM_TYPE_INDEX                                                           
%FORMAT(10I8)                                                                   
       1       1       1       1       1       1       2       1       3       1
       1       1       1       1       2       2       2       1       1       1
       3       1       1       2       1       1       1       1       4       2
       2       5       2       2       4       6       6       6       4       1
       4       7       7       7       4       4       6       6       6       6
       6       6       4       4       6       6       6       4       4       1
       7       7       7       2       6       6       6       8       9      10
       2       6       6       6       8       9      10      11       2      12
       6       6       6      11       2      12       6       6       6      11
       2      12       6       6       6      11       2      12       6       6
       6      11       2      12       6       6       6      11       2      12
       6       6       6      11       2      12       6       6       6      11
       2      12       6       6       6      11       2      12       6       6
       6      11       2      12       6       6       6      11       2      12
       6       6       6      11       2      12       6       6       6      11
       2      12       6       6       6      11       2      12       6       6
       6      11       2      12       6       6       6      11       2      12
       6       6       6      11       2      12       6       6       6      11
       2      12       6       6       6      11       2      12       6       6
       6      11       2      12       6       6       6      11       2      12
       6       6       6      11       2      12       6       6       6      11
       2      12       6       6       6      11       2      12       6       6
       6      11       2      12       6       6       6      11       2      12
       6       6       6      11       2      12       6       6       6      11
       2      12       6       6       6      11       2      12       6       6
       6      11       2      12       6       6       6      11       2      12
       6       6       6      11       2      12       6       6       6      11
       2      12       6       6       6      11       2      12       6       6
       6      11       2      12       6       6       6      11       2      12
       6       6       6      11       2      12       6       6       6      11
       2      12       6       6       6      11       2      12       6       6
       6      11       2      12       6       6       6      11       2      12
       6       6       6      11       2      12       6       6       6      11
       2      12       6       6       6      11       2      12       6       6
       6      11       2      12       6       6       6      11       2      12
       6       6       6      11       2      12       6       6       6      11
       2      12       6       6       6      11       2      12       6       6
       6      11       2      12       6       6       6      11       2      12
       6       6       6      11       2      12       6       6       6      11
       2      12       6       6       6      11       2      12       6       6
       6      11       2      12       6       6       6      11       2      12
       6       6       6      11       2      12       6       6       6      11
       2      12       6       6       6      11       2      12       6       6
       6      11       2      12       6       6       6      11       2      12
       6       6       6      11       2      12       6       6       6      11
       2      12       6       6       6      11       2      12       6       6
       6      11       2      12       6       6       6      11       2      12
       6       6       6      11       2      12       6       6       6      11
       2      12       6       6       6      11       2      12       6       6
       6      11       2      12       6       6       6      11       2      12
       6       6       6      11       2      12       6       6       6      11
       2      12       6       6       6      11       2      12       6       6
       6      11       2      12       6       6       6      11       2      12
       6       6       6      11       2      12       6       6       6      11
       2      12       6       6       6      11       2      12       6       6
       6      11       2      12       6       6       6      11       2      12
       6       6       6      11       2      12       6       6       6      11
       2      12       6       6       6      11       2      12       6       6
       6      11       2      12       6       6       6      11       2      12
       6       6       6      11       2      12       6       6       6      11
       2      12       6       6       6      11       2      12       6       6
       6      11       2      12       6       6       6      11       2      12
       6       6       6      11       2      12       6       6       6      11
       2      12       6       6       6      11       2      12       6       6
       6      11       2      12       6       6       6      11       2      12
       6       6       6      11       2      12       6       6       6      11
       2      12       6       6       6      11       2      12       6       6
       6      11       2      12       6       6       6      11       2      12
       6       6       6      11       2      12       6       6       6      11
       2      12       6       6       6      11       2      12       6       6
       6      11       2      12       6       6       6      11       2      12
       6       6       6      11       2      12       6       6       6      11
       2      12       6       6       6      11       2      12       6       6
       6      11       2      12       6       6       6      11       2      12
       6       6       6      11       2      12       6       6       6      11
       2      12       6       6       6      11       2      12       6       6
       6      11       2      12       6       6       6      11       2      12
       6       6       6      11       2      12       6       6       6      11
       2      12       6       6       6      11       2      12       6       6
       6      11       2      12       6       6       6      11       2      12
       6       6       6      11       2      12       6       6       6      11
       2      12       6       6       6      11       2      12       6       6
       6      11       2      12       6       6       6      11       2      12
       6       6       6      11       2      12       6       6       6      11
       2      12       6       6       6      11       2      12       6       6
       6      11       2      12       6       6       6      11       2      12
       6       6       6      11       2      12       6       6       6      11
       2      12       6       6       6      11       2      12       6       6
       6      11       2      12       6       6       6      11       2      12
       6       6       6      11       2      12       6       6       6      11
       2      12       6       6       6      11       2      12       6       6
       6      11       2      12       6       6       6      11       2      12
       6       6       6      11       2      12       6       6       6      11
       2      12       6       6       6      11       2      12       6       6
       6      11       2      12       6       6       6      11       2      12
       6       6       6      11       2      12       6       6       6      11
       2      12       6       6       6      11       2      12       6       6
       6      11       2      12       6       6       6      11       2      12
       6       6       6      11       2      12       6       6       6      11
       2      12       6       6       6      11       2      12       6       6
       6      11       2      12       6       6       6      11       2      12
       6       6       6      11       2      12       6       6       6      11
       2      12       6       6       6      11       2      12       6       6
       6      11       2      12       6       6       6      11       2      12
       6       6       6      11       2      12       6       6       6      11
       2      12       6       6       6      11       2      12       6       6
       6      11       2      12       6       6       6      11       2      12
       6       6       6      11       2      12       6       6       6      11
       2      12       6       6       6      11       2      12       6       6
       6      11       2      12       6       6       6      11       2      12
       6       6       6      11       2      12       6       6       6      11
       2      12       6       6       6      11       2      12       6       6
       6      11       2      12       6       6       6      11       2      12
       6       6       6      11       2      12       6       6       6      11
       2      12       6       6       6      11       2      12       6       6
       6      11       2      12       6       6       6      11       2      12
       6       6       6      11       2      12       6       6       6      11
       2      12       6       6       6      11       2      12       6       6
       6      11       2      12       6       6       6      11       2      12
       6       6       6      11       2      12       6       6       6      11
       2      12       6       6       6      11       2      12       6       6
       6      11       2      12       6       6       6      11       2      12
       6       6       6      11       2      12       6       6       6      11
       2      12       6       6       6      11       2      12       6       6
       6      11       2      12       6       6       6      11       2      12
       6       6       6      11       2      12       6       6       6      11
       2      12       6       6       6      11       2      12       6       6
       6      11       2      12       6       6       6      11       2      12
       6       6       6      11       2      12       6       6       6      11
       2      12       6       6       6      11       2      12       6       6
       6      11       2      12       6       6       6      11       2      12
       6       6       6      11       2      12       6       6       6      11
       2      12       6       6       6      11       2      12       6       6
       6      11       2      12       6       6       6      11       2      12
       6       6       6      11       2      12       6       6       6      11
       2      12       6       6       6      11       2      12       6       6
       6      11       2      12       6       6       6      11       2      12
       6       6       6      11       2      12       6       6       6      11
       2      12       6       6       6      11       2      12       6       6
       6      11       2      12       6       6       6      11       2      12
       6       6       6      11       2      12       6       6       6      11
       2      12       6       6       6      11       2      12       6       6
       6      11       2      12       6       6       6      11       2      12
       6       6       6      11       2      12       6       6       6      11
       2      12       6       6       6      11       2      12       6       6
       6      11       2      12       6       6       6      11       2      12
       6       6       6      11       2      12       6       6       6      11
       2      12       6       6       6      11       2      12       6       6
       6      11       2      12       6       6       6      11       2      12
       6       6       6      11       2      12       6       6       6      11
       2      12       6       6       6      11       2      12       6       6
       6      11       2      12       6       6       6      11       2      12
       6       6       6      11       2      12       6       6       6      11
       2      12       6       6       6      11       2      12       6       6
       6      11       2      12       6       6       6      11       2      12
       6       6       6      11       2      12       6       6       6      11
       2      12       6       6       6      11       2      12       6       6
       6      11       2      12       6       6       6      11       2      12
       6       6       6      11       2      12       6       6       6      11
       2      12       6       6       6      11       2      12       6       6
       6      11       2      12       6       6       6      11       2      12
       6       6       6      11       2      12       6       6       6      11
       2      12       6       6       6      11       2      12       6       6
       6      11       2      12       6       6       6      11       2      12
       6       6       6      11       2      12       6       6       6      11
       2      12       6       6       6      11       2      12       6       6
       6      11       2      12       6       6       6      11       2      12
       6       6       6      11       2      12       6       6       6      11
       2      12       6       6       6      11       2      12       6       6
       6      11       2      12       6       6       6      11       2      12
       6       6       6      11       2      12       6       6       6      11
       2      12       6       6       6      11       2      12       6       6
       6      11       2      12       6       6       6      11       2      12
       6       6       6      11       2      12       6       6       6      11
       2      12       6       6       6      11       2      12       6       6
       6      11       2      12       6       6       6      11       2      12
       6       6       6      11       2      12       6       6       6      11
       2      12       6       6       6      11       2      12       6       6
       6      11       2      12       6       6       6      11       2      12
       6       6       6      11       2      12       6       6       6      11
       2      12       6       6       6      11       2      12       6       6
       6      11       2      12       6       6       6      11       2      12
       6       6       6      11       2      12       6       6       6      11
       2      12       6       6       6      11       2      12       6       6
       6      11       2      12       6       6       6      11       2      12
       6       6       6      11       2      12       6       6       6      11
       2      12       6       6       6      11       2      12       6       6
       6      11       2      12       6       6       6      11       2      12
       6       6       6      11       2      12       6       6       6      11
       2      12       6       6       6      11       2      12       6       6
       6      11       2      12       6       6       6      11       2      12
       6       6       6      11       2      12       6       6       6      11
       2      12       6       6       6      11       2      12       6       6
       6      11       2      12       6       6       6      11       2      12
       6       6       6      11       2      12       6       6       6      11
       2      12       6       6       6      11       2      12       6       6
       6      11       2      12       6       6       6      11       2      12
       6       6       6      11       2      12       6       6       6      11
       2      12       6       6       6      11       2      12       6       6
       6      11       2      12       6       6       6      11       2      12
       6       6       6      11       2      12       6       6       6      11
       2      12       6       6       6      11       2      12       6       6
       6      11       2      12       6       6       6      11       2      12
       6       6       6      11       2      12       6       6       6      11
       2      12       6       6       6      11       2      12       6       6
       6      11       2      12       6       6       6      11       2      12
       6       6       6      11       2      12       6       6       6      11
       2      12       6       6       6      11       2      12       6       6
       6      11       2      12       6       6       6      11       2      12
       6       6       6      11       2      12       6       6       6      11
       2      12       6       6       6      11       2      12       6       6
       6      11       2      12       6       6       6      11       2      12
       6       6       6      11       2      12       6       6       6      11
       2      12       6       6       6      11       2      12       6       6
       6      11       2      12       6       6       6      11       2      12
       6       6       6      11       2      12       6       6       6      11
       2      12       6       6       6      11       2      12       6       6
       6      11       2      12       6       6       6      11       2      12
       6       6       6      11       2      12       6       6       6      11
       2      12       6       6       6      11       2      12       6       6
       6      11       2      12       6       6       6      11       2      12
       6       6       6      11       2      12       6       6       6      11
       2      12       6       6       6      11       2      12       6       6
       6      11       2      12       6       6       6      11       2      12
       6       6       6      11       2      12       6       6       6      11
       2      12       6       6       6      11       2      12       6       6
       6      11       2      12       6       6       6      11       2      12
       6       6       6      11       2      12       6       6       6      11
       2      12       6       6       6      11       2      12       6       6
       6      11       2      12       6       6       6      11       2      12
       6       6       6      11       2      12       6       6       6      11
       2      12       6       6       6      11       2      12       6       6
       6      11       2      12       6       6       6      11       2      12
       6       6       6      11       2      12       6       6       6      11
       2      12       6       6       6      11       2      12       6       6
       6      11       2      12       6       6       6      11       2      12
       6       6       6      11       2      12       6       6       6      11
       2      12       6       6       6      11       2      12       6       6
       6      11       2      12       6       6       6      11       2      12
       6       6       6      11       2      12       6       6       6      11
       2      12       6       6       6      11       2      12       6       6
       6      11       2      12       6       6       6      11       2      12
       6       6       6      11       2      12       6       6       6      11
       2      12       6       6       6      11       2      12       6       6
       6      11       2      12       6       6       6      11       2      12
       6       6       6      11       2      12       6       6       6      11
       2      12       6       6       6      11       2      12       6       6
       6      11       2      12       6       6       6      11       2      12
       6       6       6      11       2      12       6       6       6      11
       2      12       6       6       6      11       2      12       6       6
       6      11       2      12       6       6       6      11       2      12
       6       6       6      11       2      12       6       6       6      11
       2      12       6       6       6      11       2      12       6       6
       6      11       2      12       6       6       6      11       2      12
       6       6       6      11       2      12       6       6       6      11
       2      12       6       6       6      11       2      12       6       6
       6      11       2      12       6       6       6      11       2      12
       6       6       6      11       2      12       6       6       6      11
       2      12       6       6       6      11       2      12       6       6
       6      11       2      12       6       6       6      11       2      12
       6       6       6      11       2      12       6       6       6      11
       2      12       6       6       6      11       2      12       6       6
       6      11       2      12       6       6       6      11       2      12
       6       6       6      11       2      12       6       6       6      11
       2      12       6       6       6      11       2      12       6       6
       6      11       2      12       6       6       6      11       2      12
       6       6       6      11       2      12       6       6       6      11
       2      12       6       6       6      11       2      12       6       6
       6      11       2      12       6       6       6      11       2      12
       6       6       6      11       2      12       6       6       6      11
       2      12       6       6       6      11       2      12       6       6
       6      11       2      12       6       6       6      11       2      12
       6       6       6      11       2      12       6       6       6      11
       2      12       6       6       6      11       2      12       6       6
       6      11       2      12       6       6       6      11       2      12
       6       6       6      11       2      12       6       6       6      11
       2      12       6       6       6      11       2      12       6       6
       6      11       2      12       6       6       6      11       2      12
       6       6       6      11       2      12       6       6       6      11
       2      12       6       6       6      11       2      12       6       6
       6      11       2      12       6       6       6      11       2      12
       6       6       6      11       2      12       6       6       6      11
       2      12       6       6       6      11       2      12       6       6
       6      11       2      12       6       6       6      11       2      12
       6       6       6      11       2      12       6       6       6      11
       2      12       6       6       6      11       2      12       6       6
       6      11       2      12       6       6       6      11       2      12
       6       6       6      11       2      12       6       6       6      11
       2      12       6       6       6      11       2      12       6       6
       6      11       2      12       6       6       6      11       2      12
       6       6       6      11       2      12       6       6       6      11
       2      12       6       6       6      11       2      12       6       6
       6      11       2      12       6       6       6      11       2      12
       6       6       6      11       2      12       6       6       6      11
       2      12       6       6       6      11       2      12       6       6
       6      11       2      12       6       6       6      11       2      12
       6       6       6      11       2      12       6       6       6      11
       2      12       6       6       6      11       2      12       6       6
       6      11       2      12       6       6       6      11       2      12
       6       6       6      11       2      12       6       6       6      11
       2      12       6       6       6      11       2      12       6       6
       6      11       2      12       6       6       6      11       2      12
       6       6       6      11       2      12       6       6       6      11
       2      12       6       6       6      11       2      12       6       6
       6      11       2      12       6       6       6      11       2      12
       6       6       6      11       2      12       6       6       6      11
       2      12       6       6       6      11       2      12       6       6
       6      11       2      12       6       6       6      11       2      12
       6       6       6      11       2      12       6       6       6      11
       2      12       6       6       6      11       2      12       6       6
       6      11       2      12       6       6       6      11       2      12
       6       6       6      11       2      12       6       6       6      11
       2      12       6       6       6      11       2      12       6       6
       6      11       2      12       6       6       6      11       2      12
       6       6       6      11       2      12       6       6       6      11
       2      12       6       6       6      11       2      12       6       6
       6      11       2      12       6       6       6      11       2      12
       6       6       6      11       2      12       6       6       6      11
       2      12       6       6       6      11       2      12       6       6
       6      11       2      12       6       6       6      11       2      12
       6       6       6      11       2      12       6       6       6      11
       2      12       6       6       6      11       2      12       6       6
       6      11       2      12       6       6       6      11       2      12
       6       6       6      11       2      12       6       6       6      11
       2      12       6       6       6      11       2      12       6       6
       6      11       2      12       6       6       6      11       2      12
       6       6       6      11       2      12       6       6       6      11
       2      12       6       6       6      11       2      12       6       6
       6      11       2      12       6       6       6      11       2      12
       6       6       6      11       2      12       6       6       6      11
       2      12       6       6       6      11       2      12       6       6
       6      11       2      12       6       6       6      11       2      12
       6       6       6      11       2      12       6       6       6      11
       2      12       6       6       6      11       2      12       6       6
       6      11       2      12       6       6       6      11       2      12
       6       6       6      11       2      12       6       6       6      11
       2      12       6       6       6      11       2      12       6       6
       6      11       2      12       6       6       6      11       2      12
       6       6       6      11       2      12       6       6       6      11
       2      12       6       6       6      11       2      12       6       6
       6      11       2      12       6       6       6      11       2      12
       6       6       6      11       2      12       6       6       6      11
       2      12       6       6       6      11       2      12       6       6
       6      11       2      12       6       6       6      11       2      12
       6       6       6      11       2      12       6       6       6      11
       2      12       6       6       6      11       2      12       6       6
       6      11       2      12       6       6       6      11       2      12
       6       6       6      11       2      12       6       6       6      11
       2      12       6       6       6      11       2      12       6       6
       6      11       2      12       6       6       6      11       2      12
       6       6       6      11       2      12       6       6       6      11
       2      12       6       6       6      11       2      12       6       6
       6      11       2      12       6       6       6      11       2      12
       6       6       6      11       2      12       6       6       6      11
       2      12       6       6       6      11       2      12       6       6
       6      11       2      12       6       6       6      11       2      12
       6       6       6      11       2      12       6       6       6      11
       2      12       6       6       6      11       2      12       6       6
       6      11       2      12       6       6       6      11       2      12
       6       6       6      11       2      12       6       6       6      11
       2      12       6       6       6      11       2      12       6       6
       6      11       2      12       6       6       6      11       2      12
       6       6       6      11       2      12       6       6       6      11
       2      12       6       6       6      11       2      12       6       6
       6      11       2      12       6       6       6      11       2      12
       6       6       6      11       2      12       6       6       6      11
       2      12       6       6       6      11       2      12       6       6
       6      11       2      12       6       6       6      11       2      12
       6       6       6      11       2      12       6       6       6      11
       2      12       6       6       6      11       2      12       6       6
       6      11       2      12       6       6       6      11       2      12
       6       6       6      11       2      12       6       6       6      11
       2      12       6       6       6      11       2      12       6       6
       6      11       2      12       6       6       6      11       2      12
       6       6       6      11       2      12       6       6       6      11
       2      12       6       6       6      11       2      12       6       6
       6      11       2      12       6       6       6      11       2      12
       6       6       6      11       2      12       6       6       6      11
       2      12       6       6       6      11       2      12       6       6
       6      11       2      12       6       6       6      11       2      12
       6       6       6      11       2      12       6       6       6      11
       2      12       6       6       6      11       2      12       6       6
       6      11       2      12       6       6       6      11       2      12
       6       6       6      11       2      12       6       6       6      11
       2      12       6       6       6      11       2      12       6       6
       6      11       2      12       6       6       6      11       2      12
       6       6       6      11       2      12       6       6       6      11
       2      12       6       6       6      11       2      12       6       6
       6      11       2      12       6       6       6      11       2      12
       6       6       6      11       2      12       6       6       6      11
       2      12       6       6       6      11       2      12       6       6
       6      11       2      12       6       6       6      11       2      12
       6       6       6      11       2      12       6       6       6      11
       2      12       6       6       6      11       2      12       6       6
       6      11       2      12       6       6       6      11       2      12
       6       6       6      11       2      12       6       6       6      11
       2      12       6       6       6      11       2      12       6       6
       6      11       2      12       6       6       6      11       2      12
       6       6       6      11       2      12       6       6       6      11
       2      12       6       6       6      11       2      12       6       6
       6      11       2      12       6       6       6      11       2      12
       6       6       6      11       2      12       6       6       6      11
       2      12       6       6       6      11       2      12       6       6
       6      11       2      12       6       6       6      11       2      12
       6       6       6      11       2      12       6       6       6      11
       2      12       6       6       6      11       2      12       6       6
       6      11       2      12       6       6       6      11       2      12
       6       6       6      11       2      12       6       6       6      11
       2      12       6       6       6      11       2      12       6       6
       6      11       2      12       6       6       6      11       2      12
       6       6       6      11       2      12       6       6       6      11
       2      12       6       6       6      11       2      12       6       6
       6      11       2      12       6       6       6      11       2      12
       6       6       6      11       2      12       6       6       6      11
       2      12       6       6       6      11       2      12       6       6
       6      11       2      12       6       6       6      11       2      12
       6       6       6      11       2      12       6       6       6      11
       2      12       6       6       6      11       2      12       6       6
       6      11       2      12       6       6       6      11       2      12
       6       6       6      11       2      12       6       6       6      11
       2      12       6       6       6      11       2      12       6       6
       6      11       2      12       6       6       6      11       2      12
       6       6       6      11       2      12       6       6       6      11
       2      12       6       6       6      11       2      12       6       6
       6      11       2      12       6       6       6      11       2      12
       6       6       6      11       2      12       6       6       6      11
       2      12       6       6       6      11       2      12       6       6
       6      11       2      12       6       6       6      11       2      12
       6       6       6      11       2      12       6       6       6      11
       2      12       6       6       6      11       2      12       6       6
       6      11       2      12       6       6       6      11       2      12
       6       6       6      11       2      12       6       6       6      11
       2      12       6       6       6      11       2      12       6       6
       6      11       2      12       6       6       6      11       2      12
       6       6       6      11       2      12       6       6       6      11
       2      12       6       6       6      11       2      12       6       6
       6      11       2      12       6       6       6      11       2      12
       6       6       6      11       2      12       6       6       6      11
       2      12       6       6       6      11       2      12       6       6
       6      11       2      12       6       6       6      11       2      12
       6       6       6      11       2      12       6       6       6      11
       2      12       6       6       6      11       2      12       6       6
       6      11       2      12       6       6       6      11       2      12
       6       6       6      11       2      12       6       6       6      11
       2      12       6       6       6      11       2      12       6       6
       6      11       2      12       6       6       6      11       2      12
       6       6       6      11       2      12       6       6       6      11
       2      12       6       6       6      11       2      12       6       6
       6      11       2      12       6       6       6      11       2      12
       6       6       6      11       2      12       6       6       6      11
       2      12       6       6       6      11       2      12       6       6
       6      11       2      12       6       6       6      11       2      12
       6       6       6      11       2      12       6       6       6      11
       2      12       6       6       6      11       2      12       6       6
       6      11       2      12       6       6       6      11       2      12
       6       6       6      11       2      12       6       6       6      11
       2      12       6       6       6      11       2      12       6       6
       6      11       2      12       6       6       6      11       2      12
       6       6       6      11       2      12       6       6       6      11
       2      12       6       6       6      11       2      12       6       6
       6      11       2      12       6       6       6      11       2      12
       6       6       6      11       2      12       6       6       6      11
       2      12       6       6       6      11       2      12       6       6
       6      11       2      12       6       6       6      11       2      12
       6       6       6      11       2      12       6       6       6      11
       2      12       6       6       6      11       2      12       6       6
       6      11       2      12       6       6       6      11       2      12
       6       6       6      11       2      12       6       6       6      11
       2      12       6       6       6      11       2      12       6       6
       6      11       2      12       6       6       6      11       2      12
       6       6       6      11       2      12       6       6       6      11
       2      12       6       6       6      11       2      12       6       6
       6      11       2      12       6       6       6      11       2      12
       6       6       6      11       2      12       6       6       6      11
       2      12       6       6       6      11       2      12       6       6
       6      11       2      12       6       6       6      11       2      12
       6       6       6      11       2      12       6       6       6      11
       2      12       6       6       6      11       2      12       6       6
       6      11       2      12       6       6       6      11       2      12
       6       6       6      11       2      12       6       6       6      11
       2      12       6       6       6      11       2      12       6       6
       6      11       2      12       6       6       6      11       2      12
       6       6       6      11       2      12       6       6       6      11
       2      12       6       6       6      11       2      12       6       6
       6      11       2      12       6       6       6      11       2      12
       6       6       6      11       2      12       6       6       6      11
       2      12       6       6       6      11       2      12       6       6
       6      11       2      12       6       6       6      11       2      12
       6       6       6      11       2      12       6       6       6      11
       2      12       6       6       6      11       2      12       6       6
       6      11       2      12       6       6       6      11       2      12
       6       6       6      11       2      12       6       6       6      11
       2      12       6       6       6      11       2      12       6       6
       6      11       2      12       6       6       6      11       2      12
       6       6       6      11       2      12       6       6       6      11
       2      12       6       6       6      11       2      12       6       6
       6      11       2      12       6       6       6      11       2      12
       6       6       6      11       2      12       6       6       6      11
       2      12       6       6       6      11       2      12       6       6
       6      11       2      12       6       6       6      11       2      12
       6       6       6      11       2      12       6       6       6      11
       2      12       6       6       6      11       2      12       6       6
       6      11       2      12       6       6       6      11       2      12
       6       6       6      11       2      12       6       6       6      11
       2      12       6       6       6      11       2      12       6       6
       6      11       2      12       6       6       6      11       2      12
       6       6       6      11       2      12       6       6       6      11
       2      12       6       6       6      11       2      12       6       6
       6      11       2      12       6       6       6      11       2      12
       6       6       6      11       2      12       6       6       6      11
       2      12       6       6       6      11       2      12       6       6
       6      11       2      12       6       6       6      11       2      12
       6       6       6      11       2      12       6       6       6      11
       2      12       6       6       6      11       2      12       6       6
       6      11       2      12       6       6       6      11       2      12
       6       6       6      11       2      12       6       6       6      11
       2      12       6       6       6      11       2      12       6       6
       6      11       2      12       6       6       6      11       2      12
       6       6       6      11       2      12       6       6       6      11
       2      12       6       6       6      11       2      12       6       6
       6      11       2      12       6       6       6      11       2      12
       6       6       6      11       2      12       6       6       6      11
       2      12       6       6       6      11       2      12       6       6
       6      11       2      12       6       6       6      11       2      12
       6       6       6      11       2      12       6       6       6      11
       2      12       6       6       6      11       2      12       6       6
       6      11       2      12       6       6       6      11       2      12
       6       6       6      11       2      12       6       6       6      11
       2      12       6       6       6      11       2      12       6       6
       6      11       2      12       6       6       6      11       2      12
       6       6       6      11       2      12       6       6       6      11
       2      12       6       6       6      11       2      12       6       6
       6      11       2      12       6       6       6      11       2      12
       6       6       6      11       2      12       6       6       6      11
       2      12       6       6       6      11       2      12       6       6
       6      11       2      12       6       6       6      11       2      12
       6       6       6      11       2      12       6       6       6      11
       2      12       6       6       6      11       2      12       6       6
       6      11       2      12       6       6       6      11       2      12
       6       6       6      11       2      12       6       6       6      11
       2      12       6       6       6      11       2      12       6       6
       6      11       2      12       6       6       6      11       2      12
       6       6       6      11       2      12       6       6       6      11
       2      12       6       6       6      11       2      12       6       6
       6      11       2      12       6       6       6      11       2      12
       6       6       6      11       2      12       6       6       6      11
       2      12       6       6       6      11       2      12       6       6
       6      11       2      12       6       6       6      11       2      12
       6       6       6      11       2      12       6       6       6      11
       2      12       6       6       6      11       2      12       6       6
       6      11       2      12       6       6       6      11       2      12
       6       6       6      11       2      12       6       6       6      11
       2      12       6       6       6      11       2      12       6       6
       6      11       2      12       6       6       6      11       2      12
       6       6       6      11       2      12       6       6       6      11
       2      12       6       6       6      11       2      12       6       6
       6      11       2      12       6       6       6      11       2      12
       6       6       6      11       2      12       6       6       6      11
       2      12       6       6       6      11       2      12       6       6
       6      11       2      12       6       6       6
%FLAG NUMBER_EXCLUDED_ATOMS                                                     
%FORMAT(10I8)                                                                   
      12      17      19      12       9       7      15      18      10       9
      10      13      13      13      12       8       8       9      10      20
      14      15      17      14       7       8       8       7       2       3
       7       1       3       7       2       3       2       1       1       4
       1       2       1       1       1       1       5       2       2       2
       1       1       1       1       3       2       1       1       1       3
       2       1       1       3       2       1       1       2       1       1
       3       2       1       1       2       1       1       5       4       3
       2       1       1       5       4       3       2       1       1       5
       4       3       2       1       1       5       4       3       2       1
       1       5       4       3       2       1       1       5       4       3
       2       1       1       5       4       3       2       1       1       5
       4       3       2       1       1       5       4       3       2       1
       1       5       4       3       2       1       1       5       4       3
       2       1       1       5       4       3       2       1       1       5
       4       3       2       1       1       5       4       3       2       1
       1       5       4       3       2       1       1       5       4       3
       2       1       1       5       4       3       2       1       1       5
       4       3       2       1       1       5       4       3       2       1
       1       5       4       3       2       1       1       5       4       3
       2       1       1       5       4       3       2       1       1       5
       4       3       2       1       1       5       4       3       2       1
       1       5       4       3       2       1       1       5       4       3
       2       1       1       5       4       3       2       1       1       5
       4       3       2       1       1       5       4       3       2       1
       1       5       4       3       2       1       1       5       4       3
       2       1       1       5       4       3       2       1       1       5
       4       3       2       1       1       5       4       3       2       1
       1       5       4       3       2       1       1       5       4       3
       2       1       1       5       4       3       2       1       1       5
       4       3       2       1       1       5       4       3       2       1
       1       5       4       3       2       1       1       5       4       3
       2       1       1       5       4       3       2       1       1       5
       4       3       2       1       1       5       4       3       2       1
       1       5       4       3       2       1       1       5       4       3
       2       1       1       5       4       3       2       1       1       5
       4       3       2       1       1       5       4       3       2       1
       1       5       4       3       2       1       1       5       4       3
       2       1       1       5       4       3       2       1       1       5
       4       3       2       1       1       5       4       3       2       1
       1       5       4       3       2       1       1       5       4       3
       2       1       1       5       4       3       2       1       1       5
       4       3       2       1       1       5       4       3       2       1
       1       5       4       3       2       1       1       5       4       3
       2       1       1       5       4       3       2       1       1       5
       4       3       2       1       1       5       4       3       2       1
       1       5       4       3       2       1       1       5       4       3
       2       1       1       5       4       3       2       1       1       5
       4       3       2       1       1       5       4       3       2       1
       1       5       4       3       2       1       1       5       4       3
       2       1       1       5       4       3       2       1       1       5
       4       3       2       1       1       5       4       3       2       1
       1       5       4       3       2       1       1       5       4       3
       2       1       1       5       4       3       2       1       1       5
       4       3       2       1       1       5       4       3       2       1
       1       5       4       3       2       1       1       5       4       3
       2       1       1       5       4       3       2       1       1       5
       4       3       2       1       1       5       4       3       2       1
       1       5       4       3       2       1       1       5       4       3
       2       1       1       5       4       3       2       1       1       5
       4       3       2       1       1       5       4       3       2       1
       1       5       4       3       2       1       1       5       4       3
       2       1       1       5       4       3       2       1       1       5
       4       3       2       1       1       5       4       3       2       1
       1       5       4       3       2       1       1       5       4       3
       2       1       1       5       4       3       2       1       1       5
       4       3       2       1       1       5       4       3       2       1
       1       5       4       3       2       1       1       5       4       3
       2       1       1       5       4       3       2       1       1       5
       4       3       2       1       1       5       4       3       2       1
       1       5       4       3       2       1       1       5       4       3
       2       1       1       5       4       3       2       1       1       5
       4       3       2       1       1       5       4       3       2       1
       1       5       4       3       2       1       1       5       4       3
       2       1       1       5       4       3       2       1       1       5
       4       3       2       1       1       5       4       3       2       1
       1       5       4       3       2       1       1       5       4       3
       2       1       1       5       4       3       2       1       1       5
       4       3       2       1       1       5       4       3       2       1
       1       5       4       3       2       1       1       5       4       3
       2       1       1       5       4       3       2       1       1       5
       4       3       2       1       1       5       4       3       2       1
       1       5       4       3       2       1       1       5       4       3
       2       1       1       5       4       3       2       1       1       5
       4       3       2       1       1       5       4       3       2       1
       1       5       4       3       2       1       1       5       4       3
       2       1       1       5       4       3       2       1       1       5
       4       3       2       1       1       5       4       3       2       1
       1       5       4       3       2       1       1       5       4       3
       2       1       1       5       4       3       2       1       1       5
       4       3       2       1       1       5       4       3       2       1
       1       5       4       3       2       1       1       5       4       3
       2       1       1       5       4       3       2       1       1       5
       4       3       2       1       1       5       4       3       2       1
       1       5       4       3       2       1       1       5       4       3
       2       1       1       5       4       3       2       1       1       5
       4       3       2       1       1       5       4       3       2       1
       1       5       4       3       2       1       1       5       4       3
       2       1       1       5       4       3       2       1       1       5
       4       3       2       1       1       5       4       3       2       1
       1       5       4       3       2       1       1       5       4       3
       2       1       1       5       4       3       2       1       1       5
       4       3       2       1       1       5       4       3       2       1
       1       5       4       3       2       1       1       5       4       3
       2       1       1       5       4       3       2       1       1       5
       4       3       2       1       1       5       4       3       2       1
       1       5       4       3       2       1       1       5       4       3
       2       1       1       5       4       3       2       1       1       5
       4       3       2       1       1       5       4       3       2       1
       1       5       4       3       2       1       1       5       4       3
       2       1       1       5       4       3       2       1       1       5
       4       3       2       1       1       5       4       3       2       1
       1       5       4       3       2       1       1       5       4       3
       2       1       1       5       4       3       2       1       1       5
       4       3       2       1       1       5       4       3       2       1
       1       5       4       3       2       1       1       5       4       3
       2       1       1       5       4       3       2       1       1       5
       4       3       2       1       1       5       4       3       2       1
       1       5       4       3       2       1       1       5       4       3
       2       1       1       5       4       3       2       1       1       5
       4       3       2       1       1       5       4       3       2       1
       1       5       4       3       2       1       1       5       4       3
       2       1       1       5       4       3       2       1       1       5
       4       3       2       1       1       5       4       3       2       1
       1       5       4       3       2       1       1       5       4       3
       2       1       1       5       4       3       2       1       1       5
       4       3       2       1       1       5       4       3       2       1
       1       5       4       3       2       1       1       5       4       3
       2       1       1       5       4       3       2       1       1       5
       4       3       2       1       1       5       4       3       2       1
       1       5       4       3       2       1       1       5       4       3
       2       1       1       5       4       3       2       1       1       5
       4       3       2       1       1       5       4       3       2       1
       1       5       4       3       2       1       1       5       4       3
       2       1       1       5       4       3       2       1       1       5
       4       3       2       1       1       5       4       3       2       1
       1       5       4       3       2       1       1       5       4       3
       2       1       1       5       4       3       2       1       1       5
       4       3       2       1       1       5       4       3       2       1
       1       5       4       3       2       1       1       5       4       3
       2       1       1       5       4       3       2       1       1       5
       4       3       2       1       1       5       4       3       2       1
       1       5       4       3       2       1       1       5       4       3
       2       1       1       5       4       3       2       1       1       5
       4       3       2       1       1       5       4       3       2       1
       1       5       4       3       2       1       1       5       4       3
       2       1       1       5       4       3       2       1       1       5
       4       3       2       1       1       5       4       3       2       1
       1       5       4       3       2       1       1       5       4       3
       2       1       1       5       4       3       2       1       1       5
       4       3       2       1       1       5       4       3       2       1
       1       5       4       3       2       1       1       5       4       3
       2       1       1       5       4       3       2       1       1       5
       4       3       2       1       1       5       4       3       2       1
       1       5       4       3       2       1       1       5       4       3
       2       1       1       5       4       3       2       1       1       5
       4       3       2       1       1       5       4       3       2       1
       1       5       4       3       2       1       1       5       4       3
       2       1       1       5       4       3       2       1       1       5
       4       3       2       1       1       5       4       3       2       1
       1       5       4       3       2       1       1       5       4       3
       2       1       1       5       4       3       2       1       1       5
       4       3       2       1       1       5       4       3       2       1
       1       5       4       3       2       1       1       5       4       3
       2       1       1       5       4       3       2       1       1       5
       4       3       2       1       1       5       4       3       2       1
       1       5       4       3       2       1       1       5       4       3
       2       1       1       5       4       3       2       1       1       5
       4       3       2       1       1       5       4       3       2       1
       1       5       4       3       2       1       1       5       4       3
       2       1       1       5       4       3       2       1       1       5
       4       3       2       1       1       5       4       3       2       1
       1       5       4       3       2       1       1       5       4       3
       2       1       1       5       4       3       2       1       1       5
       4       3       2       1       1       5       4       3       2       1
       1       5       4       3       2       1       1       5       4       3
       2       1       1       5       4       3       2       1       1       5
       4       3       2       1       1       5       4       3       2       1
       1       5       4       3       2       1       1       5       4       3
       2       1       1       5       4       3       2       1       1       5
       4       3       2       1       1       5       4       3       2       1
       1       5       4       3       2       1       1       5       4       3
       2       1       1       5       4       3       2       1       1       5
       4       3       2       1       1       5       4       3       2       1
       1       5       4       3       2       1       1       5       4       3
       2       1       1       5       4       3       2       1       1       5
       4       3       2       1       1       5       4       3       2       1
       1       5       4       3       2       1       1       5       4       3
       2       1       1       5       4       3       2       1       1       5
       4       3       2       1       1       5       4       3       2       1
       1       5       4       3       2       1       1       5       4       3
       2       1       1       5       4       3       2       1       1       5
       4       3       2       1       1       5       4       3       2       1
       1       5       4       3       2       1       1       5       4       3
       2       1       1       5       4       3       2       1       1       5
       4       3       2       1       1       5       4       3       2       1
       1       5       4       3       2       1       1       5       4       3
       2       1       1       5       4       3       2       1       1       5
       4       3       2       1       1       5       4       3       2       1
       1       5       4       3       2       1       1       5       4       3
       2       1       1       5       4       3       2       1       1       5
       4       3       2       1       1       5       4       3       2       1
       1       5       4       3       2       1       1       5       4       3
       2       1       1       5       4       3       2       1       1       5
       4       3       2       1       1       5       4       3       2       1
       1       5       4       3       2       1       1       5       4       3
       2       1       1       5       4       3       2       1       1       5
       4       3       2       1       1       5       4       3       2       1
       1       5       4       3       2       1       1       5       4       3
       2       1       1       5       4       3       2       1       1       5
       4       3       2       1       1       5       4       3       2       1
       1       5       4       3       2       1       1       5       4       3
       2       1       1       5       4       3       2       1       1       5
       4       3       2       1       1       5       4       3       2       1
       1       5       4       3       2       1       1       5       4       3
       2       1       1       5       4       3       2       1       1       5
       4       3       2       1       1       5       4       3       2       1
       1       5       4       3       2       1       1       5       4       3
       2       1       1       5       4       3       2       1       1       5
       4       3       2       1       1       5       4       3       2       1
       1       5       4       3       2       1       1       5       4       3
       2       1       1       5       4       3       2       1       1       5
       4       3       2       1       1       5       4       3       2       1
       1       5       4       3       2       1       1       5       4       3
       2       1       1       5       4       3       2       1       1       5
       4       3       2       1       1       5       4       3       2       1
       1       5       4       3       2       1       1       5       4       3
       2       1       1       5       4       3       2       1       1       5
       4       3       2       1       1       5       4       3       2       1
       1       5       4       3       2       1       1       5       4       3
       2       1       1       5       4       3       2       1       1       5
       4       3       2       1       1       5       4       3       2       1
       1       5       4       3       2       1       1       5       4       3
       2       1       1       5       4       3       2       1       1       5
       4       3       2       1       1       5       4       3       2       1
       1       5       4       3       2       1       1       5       4       3
       2       1       1       5       4       3       2       1       1       5
       4       3       2       1       1       5       4       3       2       1
       1       5       4       3       2       1       1       5       4       3
       2       1       1       5       4       3       2       1       1       5
       4       3       2       1       1       5       4       3       2       1
       1       5       4       3       2       1       1       5       4       3
       2       1       1       5       4       3       2       1       1       5
       4       3       2       1       1       5       4       3       2       1
       1       5       4       3       2       1       1       5       4       3
       2       1       1       5       4       3       2       1       1       5
       4       3       2       1       1       5       4       3       2       1
       1       5       4       3       2       1       1       5       4       3
       2       1       1       5       4       3       2       1       1       5
       4       3       2       1       1       5       4       3       2       1
       1       5       4       3       2       1       1       5       4       3
       2       1       1       5       4       3       2       1       1       5
       4       3       2       1       1       5       4       3       2       1
       1       5       4       3       2       1       1       5       4       3
       2       1       1       5       4       3       2       1       1       5
       4       3       2       1       1       5       4       3       2       1
       1       5       4       3       2       1       1       5       4       3
       2       1       1       5       4       3       2       1       1       5
       4       3       2       1       1       5       4       3       2       1
       1       5       4       3       2       1       1       5       4       3
       2       1       1       5       4       3       2       1       1       5
       4       3       2       1       1       5       4       3       2       1
       1       5       4       3       2       1       1       5       4       3
       2       1       1       5       4       3       2       1       1       5
       4       3       2       1       1       5       4       3       2       1
       1       5       4       3       2       1       1       5       4       3
       2       1       1       5       4       3       2       1       1       5
       4       3       2       1       1       5       4       3       2       1
       1       5       4       3       2       1       1       5       4       3
       2       1       1       5       4       3       2       1       1       5
       4       3       2       1       1       5       4       3       2       1
       1       5       4       3       2       1       1       5       4       3
       2       1       1       5       4       3       2       1       1       5
       4       3       2       1       1       5       4       3       2       1
       1       5       4       3       2       1       1       5       4       3
       2       1       1       5       4       3       2       1       1       5
       4       3       2       1       1       5       4       3       2       1
       1       5       4       3       2       1       1       5       4       3
       2       1       1       5       4       3       2       1       1       5
       4       3       2       1       1       5       4       3       2       1
       1       5       4       3       2       1       1       5       4       3
       2       1       1       5       4       3       2       1       1       5
       4       3       2       1       1       5       4       3       2       1
       1       5       4       3       2       1       1       5       4       3
       2       1       1       5       4       3       2       1       1       5
       4       3       2       1       1       5       4       3       2       1
       1       5       4       3       2       1       1       5       4       3
       2       1       1       5       4       3       2       1       1       5
       4       3       2       1       1       5       4       3       2       1
       1       5       4       3       2       1       1       5       4       3
       2       1       1       5       4       3       2       1       1       5
       4       3       2       1       1       5       4       3       2       1
       1       5       4       3       2       1       1       5       4       3
       2       1       1       5       4       3       2       1       1       5
       4       3       2       1       1       5       4       3       2       1
       1       5       4       3       2       1       1       5       4       3
       2       1       1       5       4       3       2       1       1       5
       4       3       2       1       1       5       4       3       2       1
       1       5       4       3       2       1       1       5       4       3
       2       1       1       5       4       3       2       1       1       5
       4       3       2       1       1       5       4       3       2       1
       1       5       4       3       2       1       1       5       4       3
       2       1       1       5       4       3       2       1       1       5
       4       3       2       1       1       5       4       3       2       1
       1       5       4       3       2       1       1       5       4       3
       2       1       1       5       4       3       2       1       1       5
       4       3       2       1       1       5       4       3       2       1
       1       5       4       3       2       1       1       5       4       3
       2       1       1       5       4       3       2       1       1       5
       4       3       2       1       1       5       4       3       2       1
       1       5       4       3       2       1       1       5       4       3
       2       1       1       5       4       3       2       1       1       5
       4       3       2       1       1       5       4       3       2       1
       1       5       4       3       2       1       1       5       4       3
       2       1       1       5       4       3       2       1       1       5
       4       3       2       1       1       5       4       3       2       1
       1       5       4       3       2       1       1       5       4       3
       2       1       1       5       4       3       2       1       1       5
       4       3       2       1       1       5       4       3       2       1
       1       5       4       3       2       1       1       5       4       3
       2       1       1       5       4       3       2       1       1       5
       4       3       2       1       1       5       4       3       2       1
       1       5       4       3       2       1       1       5       4       3
       2       1       1       5       4       3       2       1       1       5
       4       3       2       1       1       5       4       3       2       1
       1       5       4       3       2       1       1       5       4       3
       2       1       1       5       4       3       2       1       1       5
       4       3       2       1       1       5       4       3       2       1
       1       5       4       3       2       1       1       5       4       3
       2       1       1       5       4       3       2       1       1       5
       4       3       2       1       1       5       4       3       2       1
       1       5       4       3       2       1       1       5       4       3
       2       1       1       5       4       3       2       1       1       5
       4       3       2       1       1       5       4       3       2       1
       1       5       4       3       2       1       1       5       4       3
       2       1       1       5       4       3       2       1       1       5
       4       3       2       1       1       5       4       3       2       1
       1       5       4       3       2       1       1       5       4       3
       2       1       1       5       4       3       2       1       1       5
       4       3       2       1       1       5       4       3       2       1
       1       5       4       3       2       1       1       5       4       3
       2       1       1       5       4       3       2       1       1       5
       4       3       2       1       1       5       4       3       2       1
       1       5       4       3       2       1       1       5       4       3
       2       1       1       5       4       3       2       1       1       5
       4       3       2       1       1       5       4       3       2       1
       1       5       4       3       2       1       1       5       4       3
       2       1       1       5       4       3       2       1       1       5
       4       3       2       1       1       5       4       3       2       1
       1       5       4       3       2       1       1       5       4       3
       2       1       1       5       4       3       2       1       1       5
       4       3       2       1       1       5       4       3       2       1
       1       5       4       3       2       1       1       5       4       3
       2       1       1       5       4       3       2       1       1       5
       4       3       2       1       1       5       4       3       2       1
       1       5       4       3       2       1       1       5       4       3
       2       1       1       5       4       3       2       1       1       5
       4       3       2       1       1       5       4       3       2       1
       1       5       4       3       2       1       1       5       4       3
       2       1       1       5       4       3       2       1       1       5
       4       3       2       1       1       5       4       3       2       1
       1       5       4       3       2       1       1       5       4       3
       2       1       1       5       4       3       2       1       1       5
       4       3       2       1       1       5       4       3       2       1
       1       5       4       3       2       1       1       5       4       3
       2       1       1       5       4       3       2       1       1       5
       4       3       2       1       1       5       4       3       2       1
       1       5       4       3       2       1       1       5       4       3
       2       1       1       5       4       3       2       1       1       5
       4       3       2       1       1       5       4       3       2       1
       1       5       4       3       2       1       1       5       4       3
       2       1       1       5       4       3       2       1       1       5
       4       3       2       1       1       5       4       3       2       1
       1       5       4       3       2       1       1       5       4       3
       2       1       1       5       4       3       2       1       1       5
       4       3       2       1       1       5       4       3       2       1
       1       5       4       3       2       1       1       5       4       3
       2       1       1       5       4       3       2       1       1       5
       4       3       2       1       1       5       4       3       2       1
       1       5       4       3       2       1       1       5       4       3
       2       1       1       5       4       3       2       1       1       5
       4       3       2       1       1       5       4       3       2       1
       1       5       4       3       2       1       1       5       4       3
       2       1       1       5       4       3       2       1       1       5
       4       3       2       1       1       5       4       3       2       1
       1       5       4       3       2       1       1       5       4       3
       2       1       1       5       4       3       2       1       1       5
       4       3       2       1       1       5       4       3       2       1
       1       5       4       3       2       1       1       5       4       3
       2       1       1       5       4       3       2       1       1       5
       4       3       2       1       1       5       4       3       2       1
       1       5       4       3       2       1       1       5       4       3
       2       1       1       5       4       3       2       1       1       5
       4       3       2       1       1       5       4       3       2       1
       1       5       4       3       2       1       1       5       4       3
       2       1       1       5       4       3       2       1       1       5
       4       3       2       1       1       5       4       3       2       1
       1       5       4       3       2       1       1       5       4       3
       2       1       1       5       4       3       2       1       1       5
       4       3       2       1       1       5       4       3       2       1
       1       5       4       3       2       1       1       5       4       3
       2       1       1       5       4       3       2       1       1       5
       4       3       2       1       1       5       4       3       2       1
       1       5       4       3       2       1       1       5       4       3
       2       1       1       5       4       3       2       1       1       5
       4       3       2       1       1       5       4       3       2       1
       1       5       4       3       2       1       1       5       4       3
       2       1       1       5       4       3       2       1       1       5
       4       3       2       1       1       5       4       3       2       1
       1       5       4       3       2       1       1       5       4       3
       2       1       1       5       4       3       2       1       1       5
       4       3       2       1       1       5       4       3       2       1
       1       5       4       3       2       1       1       5       4       3
       2       1       1       5       4       3       2       1       1       5
       4       3       2       1       1       5       4       3       2       1
       1       5       4       3       2       1       1       5       4       3
       2       1       1       5       4       3       2       1       1       5
       4       3       2       1       1       5       4       3       2       1
       1       5       4       3       2       1       1       5       4       3
       2       1       1       5       4       3       2       1       1       5
       4       3       2       1       1       5       4       3       2       1
       1       5       4       3       2       1       1       5       4       3
       2       1       1       5       4       3       2       1       1       5
       4       3       2       1       1       5       4       3       2       1
       1       5       4       3       2       1       1       5       4       3
       2       1       1       5       4       3       2       1       1       5
       4       3       2       1       1       5       4       3       2       1
       1       5       4       3       2       1       1       5       4       3
       2       1       1       5       4       3       2       1       1       5
       4       3       2       1       1       5       4       3       2       1
       1       5       4       3       2       1       1       5       4       3
       2       1       1       5       4       3       2       1       1       5
       4       3       2       1       1       5       4       3       2       1
       1       5       4       3       2       1       1       5       4       3
       2       1       1       5       4       3       2       1       1       5
       4       3       2       1       1       5       4       3       2       1
       1       5       4       3       2       1       1       5       4       3
       2       1       1       5       4       3       2       1       1       5
       4       3       2       1       1       5       4       3       2       1
       1       5       4       3       2       1       1       5       4       3
       2       1       1       5       4       3       2       1       1       5
       4       3       2       1       1       5       4       3       2       1
       1       5       4       3       2       1       1       5       4       3
       2       1       1       5       4       3       2       1       1       5
       4       3       2       1       1       5       4       3       2       1
       1       5       4       3       2       1       1       5       4       3
       2       1       1       5       4       3       2       1       1       5
       4       3       2       1       1       5       4       3       2       1
       1       5       4       3       2       1       1       5       4       3
       2       1       1       5       4       3       2       1       1       5
       4       3       2       1       1       5       4       3       2       1
       1       5       4       3       2       1       1       5       4       3
       2       1       1       5       4       3       2       1       1       5
       4       3       2       1       1       5       4       3       2       1
       1       5       4       3       2       1       1       5       4       3
       2       1       1       5       4       3       2       1       1       5
       4       3       2       1       1       5       4       3       2       1
       1       5       4       3       2       1       1       5       4       3
       2       1       1       5       4       3       2       1       1       5
       4       3       2       1       1       5       4       3       2       1
       1       5       4       3       2       1       1       5       4       3
       2       1       1       5       4       3       2       1       1       5
       4       3       2       1       1       5       4       3       2       1
       1       5       4       3       2       1       1       5       4       3
       2       1       1       5       4       3       2       1       1       5
       4       3       2       1       1       5       4       3       2       1
       1       5       4       3       2       1       1       5       4       3
       2       1       1       5       4       3       2       1       1       5
       4       3       2       1       1       5       4       3       2       1
       1       5       4       3       2       1       1       5       4       3
       2       1       1       5       4       3       2       1       1       5
       4       3       2       1       1       5       4       3       2       1
       1       5       4       3       2       1       1       5       4       3
       2       1       1       5       4       3       2       1       1       5
       4       3       2       1       1       5       4       3       2       1
       1       5       4       3       2       1       1       5       4       3
       2       1       1       5       4       3       2       1       1       5
       4       3       2       1       1       5       4       3       2       1
       1       5       4       3       2       1       1       5       4       3
       2       1       1       5       4       3       2       1       1       5
       4       3       2       1       1       5       4       3       2       1
       1       5       4       3       2       1       1       5       4       3
       2       1       1       5       4       3       2       1       1       5
       4       3       2       1       1       5       4       3       2       1
       1       5       4       3       2       1       1       5       4       3
       2       1       1       5       4       3       2       1       1       5
       4       3       2       1       1       5       4       3       2       1
       1       5       4       3       2       1       1       5       4       3
       2       1       1       5       4       3       2       1       1       5
       4       3       2       1       1       5       4       3       2       1
       1       5       4       3       2       1       1       5       4       3
       2       1       1       5       4       3       2       1       1       5
       4       3       2       1       1       5       4       3       2       1
       1       5       4       3       2       1       1       5       4       3
       2       1       1       5       4       3       2       1       1       5
       4       3       2       1       1       5       4       3       2       1
       1       5       4       3       2       1       1       5       4       3
       2       1       1       5       4       3       2       1       1       5
       4       3       2       1       1       5       4       3       2       1
       1       5       4       3       2       1       1       5       4       3
       2       1       1       5       4       3       2       1       1       5
       4       3       2       1       1       5       4       3       2       1
       1       5       4       3       2       1       1       5       4       3
       2       1       1       5       4       3       2       1       1       5
       4       3       2       1       1       5       4       3       2       1
       1       5       4       3       2       1       1       5       4       3
       2       1       1       5       4       3       2       1       1       5
       4       3       2       1       1       5       4       3       2       1
       1       5       4       3       2       1       1       5       4       3
       2       1       1       5       4       3       2       1       1       5
       4       3       2       1       1       5       4       3       2       1
       1       5       4       3       2       1       1       5       4       3
       2       1       1       5       4       3       2       1       1       5
       4       3       2       1       1       5       4       3       2       1
       1       5       4       3       2       1       1       5       4       3
       2       1       1       5       4       3       2       1       1       5
       4       3       2       1       1       5       4       3       2       1
       1       5       4       3       2       1       1       5       4       3
       2       1       1       5       4       3       2       1       1       5
       4       3       2       1       1       5       4       3       2       1
       1       5       4       3       2       1       1       5       4       3
       2       1       1       5       4       3       2       1       1       5
       4       3       2       1       1       5       4       3       2       1
       1       5       4       3       2       1       1       5       4       3
       2       1       1       5       4       3       2       1       1       5
       4       3       2       1       1       5       4       3       2       1
       1       5       4       3       2       1       1       5       4       3
       2       1       1       5       4       3       2       1       1       5
       4       3       2       1       1       5       4       3       2       1
       1       5       4       3       2       1       1       5       4       3
       2       1       1       5       4       3       2       1       1       5
       4       3       2       1       1       5       4       3       2       1
       1       5       4       3       2       1       1       5       4       3
       2       1       1       5       4       3       2       1       1       5
       4       3       2       1       1       5       4       3       2       1
       1       5       4       3       2       1       1       5       4       3
       2       1       1       5       4       3       2       1       1       5
       4       3       2       1       1       5       4       3       2       1
       1       5       4       3       2       1       1       5       4       3
       2       1       1       5       4       3       2       1       1       5
       4       3       2       1       1       5       4       3       2       1
       1       5       4       3       2       1       1       5       4       3
       2       1       1       5       4       3       2       1       1       5
       4       3       2       1       1       5       4       3       2       1
       1       5       4       3       2       1       1       5       4       3
       2       1       1       5       4       3       2       1       1       5
       4       3       2       1       1       5       4       3       2       1
       1       5       4       3       2       1       1       5       4       3
       2       1       1       5       4       3       2       1       1       5
       4       3       2       1       1       5       4       3       2       1
       1       5       4       3       2       1       1       5       4       3
       2       1       1       5       4       3       2       1       1       5
       4       3       2       1       1       5       4       3       2       1
       1       5       4       3       2       1       1       5       4       3
       2       1       1       5       4       3       2       1       1       5
       4       3       2       1       1       5       4       3       2       1
       1       5       4       3       2       1       1       5       4       3
       2       1       1       5       4       3       2       1       1       5
       4       3       2       1       1       5       4       3       2       1
       1       5       4       3       2       1       1
%FLAG NONBONDED_PARM_INDEX                                                      
%FORMAT(10I8)                                                                   
       1       2       4       7      11      16      22      29      37      46
      56      67       2       3       5       8      12      17      23      30
      38      47      57      68       4       5       6       9      13      18
      24      31      39      48      58      69       7       8       9      10
      14      19      25      32      40      49      59      70      11      12
      13      14      15      20      26      33      41      50      60      71
      16      17      18      19      20      21      27      34      42      51
      61      72      22      23      24      25      26      27      28      35
      43      52      62      73      29      30      31      32      33      34
      35      36      44      53      63      74      37      38      39      40
      41      42      43      44      45      54      64      75      46      47
      48      49      50      51      52      53      54      55      65      76
      56      57      58      59      60      61      62      63      64      65
      66      77      67      68      69      70      71      72      73      74
      75      76      77      78
%FLAG RESIDUE_LABEL                                                             
%FORMAT(20a4)                                                                   
VG3 ACE ACE ACE ACE ACE ACE ACE ACE ACE ACE ACE ACE ACE ACE ACE ACE ACE ACE ACE 
ACE ACE ACE ACE ACE ACE ACE ACE ACE ACE ACE ACE ACE ACE ACE ACE ACE ACE ACE ACE 
ACE ACE ACE ACE ACE ACE ACE ACE ACE ACE ACE ACE ACE ACE ACE ACE ACE ACE ACE ACE 
ACE ACE ACE ACE ACE ACE ACE ACE ACE ACE ACE ACE ACE ACE ACE ACE ACE ACE ACE ACE 
ACE ACE ACE ACE ACE ACE ACE ACE ACE ACE ACE ACE ACE ACE ACE ACE ACE ACE ACE ACE 
ACE ACE ACE ACE ACE ACE ACE ACE ACE ACE ACE ACE ACE ACE ACE ACE ACE ACE ACE ACE 
ACE ACE ACE ACE ACE ACE ACE ACE ACE ACE ACE ACE ACE ACE ACE ACE ACE ACE ACE ACE 
ACE ACE ACE ACE ACE ACE ACE ACE ACE ACE ACE ACE ACE ACE ACE ACE ACE ACE ACE ACE 
ACE ACE ACE ACE ACE ACE ACE ACE ACE ACE ACE ACE ACE ACE ACE ACE ACE ACE ACE ACE 
ACE ACE ACE ACE ACE ACE ACE ACE ACE ACE ACE ACE ACE ACE ACE ACE ACE ACE ACE ACE 
ACE ACE ACE ACE ACE ACE ACE ACE ACE ACE ACE ACE ACE ACE ACE ACE ACE ACE ACE ACE 
ACE ACE ACE ACE ACE ACE ACE ACE ACE ACE ACE ACE ACE ACE ACE ACE ACE ACE ACE ACE 
ACE ACE ACE ACE ACE ACE ACE ACE ACE ACE ACE ACE ACE ACE ACE ACE ACE ACE ACE ACE 
ACE ACE ACE ACE ACE ACE ACE ACE ACE ACE ACE ACE ACE ACE ACE ACE ACE ACE ACE ACE 
ACE ACE ACE ACE ACE ACE ACE ACE ACE ACE ACE ACE ACE ACE ACE ACE ACE ACE ACE ACE 
ACE ACE ACE ACE ACE ACE ACE ACE ACE ACE ACE ACE ACE ACE ACE ACE ACE ACE ACE ACE 
ACE ACE ACE ACE ACE ACE ACE ACE ACE ACE ACE ACE ACE ACE ACE ACE ACE ACE ACE ACE 
ACE ACE ACE ACE ACE ACE ACE ACE ACE ACE ACE ACE ACE ACE ACE ACE ACE ACE ACE ACE 
ACE ACE ACE ACE ACE ACE ACE ACE ACE ACE ACE ACE ACE ACE ACE ACE ACE ACE ACE ACE 
ACE ACE ACE ACE ACE ACE ACE ACE ACE ACE ACE ACE ACE ACE ACE ACE ACE ACE ACE ACE 
ACE ACE ACE ACE ACE ACE ACE ACE ACE ACE ACE ACE ACE ACE ACE ACE ACE ACE ACE ACE 
ACE ACE ACE ACE ACE ACE ACE ACE ACE ACE ACE ACE ACE ACE ACE ACE ACE ACE ACE ACE 
ACE ACE ACE ACE ACE ACE ACE ACE ACE ACE ACE ACE ACE ACE ACE ACE ACE ACE ACE ACE 
ACE ACE ACE ACE ACE ACE ACE ACE ACE ACE ACE ACE ACE ACE ACE ACE ACE ACE ACE ACE 
ACE ACE ACE ACE ACE ACE ACE ACE ACE ACE ACE ACE ACE ACE ACE ACE ACE ACE ACE ACE 
ACE ACE ACE ACE ACE ACE ACE ACE ACE ACE ACE ACE ACE ACE ACE ACE ACE ACE ACE ACE 
ACE ACE ACE ACE ACE ACE ACE ACE ACE ACE ACE ACE ACE ACE ACE ACE ACE ACE ACE ACE 
ACE ACE ACE ACE ACE ACE ACE ACE ACE ACE ACE ACE ACE ACE ACE ACE ACE ACE ACE ACE 
ACE ACE ACE ACE ACE ACE ACE ACE ACE ACE ACE ACE ACE ACE ACE ACE ACE ACE ACE ACE 
ACE ACE ACE ACE ACE ACE ACE ACE ACE ACE ACE ACE ACE ACE ACE ACE ACE ACE ACE ACE 
ACE ACE ACE ACE ACE ACE ACE ACE ACE ACE ACE ACE ACE ACE ACE ACE ACE ACE ACE ACE 
ACE ACE ACE ACE ACE ACE ACE ACE ACE ACE ACE ACE ACE ACE ACE ACE ACE ACE ACE ACE 
ACE ACE ACE ACE ACE ACE ACE ACE ACE ACE ACE ACE ACE ACE ACE ACE ACE ACE ACE ACE 
ACE ACE ACE ACE ACE ACE ACE ACE ACE ACE ACE ACE ACE ACE ACE ACE ACE ACE ACE ACE 
ACE ACE ACE ACE ACE ACE ACE ACE ACE ACE ACE ACE ACE ACE ACE ACE ACE ACE ACE ACE 
ACE ACE ACE ACE ACE ACE ACE ACE ACE ACE ACE ACE ACE ACE ACE ACE ACE ACE ACE ACE 
ACE ACE ACE ACE ACE ACE ACE ACE ACE ACE ACE ACE ACE ACE ACE ACE ACE ACE ACE ACE 
ACE ACE ACE ACE ACE ACE ACE ACE ACE ACE ACE ACE ACE ACE ACE ACE ACE ACE ACE ACE 
ACE ACE ACE ACE ACE ACE ACE ACE ACE ACE ACE ACE ACE ACE ACE ACE ACE ACE ACE ACE 
ACE ACE ACE ACE ACE ACE ACE ACE ACE ACE ACE ACE ACE ACE ACE ACE ACE ACE ACE ACE 
ACE ACE ACE ACE ACE ACE ACE ACE ACE ACE ACE ACE ACE ACE ACE ACE ACE ACE ACE ACE 
ACE ACE ACE ACE ACE ACE ACE ACE ACE ACE ACE ACE ACE ACE ACE ACE ACE ACE ACE ACE 
ACE ACE ACE ACE ACE ACE ACE ACE ACE ACE ACE ACE ACE ACE ACE ACE ACE ACE ACE ACE 
ACE ACE ACE ACE ACE ACE ACE ACE ACE ACE ACE ACE ACE ACE ACE ACE ACE ACE ACE ACE 
ACE ACE ACE ACE ACE ACE ACE ACE ACE ACE ACE ACE ACE ACE ACE ACE ACE ACE ACE ACE 
ACE ACE ACE ACE ACE ACE ACE ACE ACE ACE ACE ACE ACE ACE ACE ACE ACE ACE ACE ACE 
ACE 
%FLAG RESIDUE_POINTER                                                           
%FORMAT(10I8)                                                                   
       1      78      84      90      96     102     108     114     120     126
     132     138     144     150     156     162     168     174     180     186
     192     198     204     210     216     222     228     234     240     246
     252     258     264     270     276     282     288     294     300     306
     312     318     324     330     336     342     348     354     360     366
     372     378     384     390     396     402     408     414     420     426
     432     438     444     450     456     462     468     474     480     486
     492     498     504     510     516     522     528     534     540     546
     552     558     564     570     576     582     588     594     600     606
     612     618     624     630     636     642     648     654     660     666
     672     678     684     690     696     702     708     714     720     726
     732     738     744     750     756     762     768     774     780     786
     792     798     804     810     816     822     828     834     840     846
     852     858     864     870     876     882     888     894     900     906
     912     918     924     930     936     942     948     954     960     966
     972     978     984     990     996    1002    1008    1014    1020    1026
    1032    1038    1044    1050    1056    1062    1068    1074    1080    1086
    1092    1098    1104    1110    1116    1122    1128    1134    1140    1146
    1152    1158    1164    1170    1176    1182    1188    1194    1200    1206
    1212    1218    1224    1230    1236    1242    1248    1254    1260    1266
    1272    1278    1284    1290    1296    1302    1308    1314    1320    1326
    1332    1338    1344    1350    1356    1362    1368    1374    1380    1386
    1392    1398    1404    1410    1416    1422    1428    1434    1440    1446
    1452    1458    1464    1470    1476    1482    1488    1494    1500    1506
    1512    1518    1524    1530    1536    1542    1548    1554    1560    1566
    1572    1578    1584    1590    1596    1602    1608    1614    1620    1626
    1632    1638    1644    1650    1656    1662    1668    1674    1680    1686
    1692    1698    1704    1710    1716    1722    1728    1734    1740    1746
    1752    1758    1764    1770    1776    1782    1788    1794    1800    1806
    1812    1818    1824    1830    1836    1842    1848    1854    1860    1866
    1872    1878    1884    1890    1896    1902    1908    1914    1920    1926
    1932    1938    1944    1950    1956    1962    1968    1974    1980    1986
    1992    1998    2004    2010    2016    2022    2028    2034    2040    2046
    2052    2058    2064    2070    2076    2082    2088    2094    2100    2106
    2112    2118    2124    2130    2136    2142    2148    2154    2160    2166
    2172    2178    2184    2190    2196    2202    2208    2214    2220    2226
    2232    2238    2244    2250    2256    2262    2268    2274    2280    2286
    2292    2298    2304    2310    2316    2322    2328    2334    2340    2346
    2352    2358    2364    2370    2376    2382    2388    2394    2400    2406
    2412    2418    2424    2430    2436    2442    2448    2454    2460    2466
    2472    2478    2484    2490    2496    2502    2508    2514    2520    2526
    2532    2538    2544    2550    2556    2562    2568    2574    2580    2586
    2592    2598    2604    2610    2616    2622    2628    2634    2640    2646
    2652    2658    2664    2670    2676    2682    2688    2694    2700    2706
    2712    2718    2724    2730    2736    2742    2748    2754    2760    2766
    2772    2778    2784    2790    2796    2802    2808    2814    2820    2826
    2832    2838    2844    2850    2856    2862    2868    2874    2880    2886
    2892    2898    2904    2910    2916    2922    2928    2934    2940    2946
    2952    2958    2964    2970    2976    2982    2988    2994    3000    3006
    3012    3018    3024    3030    3036    3042    3048    3054    3060    3066
    3072    3078    3084    3090    3096    3102    3108    3114    3120    3126
    3132    3138    3144    3150    3156    3162    3168    3174    3180    3186
    3192    3198    3204    3210    3216    3222    3228    3234    3240    3246
    3252    3258    3264    3270    3276    3282    3288    3294    3300    3306
    3312    3318    3324    3330    3336    3342    3348    3354    3360    3366
    3372    3378    3384    3390    3396    3402    3408    3414    3420    3426
    3432    3438    3444    3450    3456    3462    3468    3474    3480    3486
    3492    3498    3504    3510    3516    3522    3528    3534    3540    3546
    3552    3558    3564    3570    3576    3582    3588    3594    3600    3606
    3612    3618    3624    3630    3636    3642    3648    3654    3660    3666
    3672    3678    3684    3690    3696    3702    3708    3714    3720    3726
    3732    3738    3744    3750    3756    3762    3768    3774    3780    3786
    3792    3798    3804    3810    3816    3822    3828    3834    3840    3846
    3852    3858    3864    3870    3876    3882    3888    3894    3900    3906
    3912    3918    3924    3930    3936    3942    3948    3954    3960    3966
    3972    3978    3984    3990    3996    4002    4008    4014    4020    4026
    4032    4038    4044    4050    4056    4062    4068    4074    4080    4086
    4092    4098    4104    4110    4116    4122    4128    4134    4140    4146
    4152    4158    4164    4170    4176    4182    4188    4194    4200    4206
    4212    4218    4224    4230    4236    4242    4248    4254    4260    4266
    4272    4278    4284    4290    4296    4302    4308    4314    4320    4326
    4332    4338    4344    4350    4356    4362    4368    4374    4380    4386
    4392    4398    4404    4410    4416    4422    4428    4434    4440    4446
    4452    4458    4464    4470    4476    4482    4488    4494    4500    4506
    4512    4518    4524    4530    4536    4542    4548    4554    4560    4566
    4572    4578    4584    4590    4596    4602    4608    4614    4620    4626
    4632    4638    4644    4650    4656    4662    4668    4674    4680    4686
    4692    4698    4704    4710    4716    4722    4728    4734    4740    4746
    4752    4758    4764    4770    4776    4782    4788    4794    4800    4806
    4812    4818    4824    4830    4836    4842    4848    4854    4860    4866
    4872    4878    4884    4890    4896    4902    4908    4914    4920    4926
    4932    4938    4944    4950    4956    4962    4968    4974    4980    4986
    4992    4998    5004    5010    5016    5022    5028    5034    5040    5046
    5052    5058    5064    5070    5076    5082    5088    5094    5100    5106
    5112    5118    5124    5130    5136    5142    5148    5154    5160    5166
    5172    5178    5184    5190    5196    5202    5208    5214    5220    5226
    5232    5238    5244    5250    5256    5262    5268    5274    5280    5286
    5292    5298    5304    5310    5316    5322    5328    5334    5340    5346
    5352    5358    5364    5370    5376    5382    5388    5394    5400    5406
    5412    5418    5424    5430    5436    5442    5448    5454    5460    5466
    5472    5478    5484    5490    5496    5502    5508    5514    5520    5526
    5532    5538    5544    5550    5556    5562    5568    5574    5580    5586
    5592
%FLAG BOND_FORCE_CONSTANT                                                       
%FORMAT(5E16.8)                                                                 
  5.35510000E+02  3.45250000E+02  3.59270000E+02  5.90600000E+02  3.44220000E+02
  3.60690000E+02  3.54250000E+02  2.62840000E+02  2.27640000E+02  2.43600000E+02
  3.10840000E+02  2.56920000E+02  3.33920000E+02  2.43380000E+02  4.21360000E+02
  3.56820000E+02  2.97840000E+02  3.42750000E+02  2.26810000E+02  2.39140000E+02
  4.09280000E+02  2.88330000E+02  1.84960000E+02  2.35860000E+02  3.57590000E+02
  3.28870000E+02  2.41660000E+02  2.84580000E+02  7.51250000E+02
%FLAG BOND_EQUIL_VALUE                                                          
%FORMAT(5E16.8)                                                                 
  9.72500000E-01  1.09620000E+00  1.35560000E+00  1.21900000E+00  1.09690000E+00
  1.08600000E+00  1.39860000E+00  1.49070000E+00  1.53720000E+00  1.51510000E+00
  1.40300000E+00  1.46130000E+00  1.38170000E+00  1.51540000E+00  1.34770000E+00
  1.08850000E+00  1.45140000E+00  1.09790000E+00  1.53840000E+00  1.52110000E+00
  1.35610000E+00  1.46150000E+00  1.76330000E+00  1.52560000E+00  1.08800000E+00
  1.38620000E+00  1.51770000E+00  1.46560000E+00  1.16190000E+00
%FLAG ANGLE_FORCE_CONSTANT                                                      
%FORMAT(5E16.8)                                                                 
  1.02030000E+02  3.58000000E+01  3.56400000E+01  6.84600000E+01  3.59300000E+01
  6.04400000E+01  6.14400000E+01  4.49000000E+01  7.83700000E+01  7.79600000E+01
  6.36700000E+01  6.04700000E+01  4.30600000E+01  6.01100000E+01  7.69400000E+01
  6.83900000E+01  6.71800000E+01  4.79700000E+01  4.64000000E+01  7.89100000E+01
  7.68600000E+01  6.19300000E+01  6.01800000E+01  4.41100000E+01  6.74000000E+01
  6.11100000E+01  6.25700000E+01  4.32300000E+01  6.10900000E+01  6.01800000E+01
  6.38900000E+01  6.04900000E+01  4.36900000E+01  6.22000000E+01  4.63300000E+01
  6.09800000E+01  6.08300000E+01  6.19500000E+01  6.39100000E+01  6.05600000E+01
  4.36200000E+01  4.62800000E+01  6.05800000E+01  6.69400000E+01  6.00600000E+01
  7.68600000E+01  4.38700000E+01  6.52600000E+01  6.03900000E+01  6.02400000E+01
  7.80600000E+01  4.51300000E+01  5.74200000E+01
%FLAG ANGLE_EQUIL_VALUE                                                         
%FORMAT(5E16.8)                                                                 
  2.13087340E+00  1.88024401E+00  1.89455572E+00  1.85947458E+00  1.86087085E+00
  1.92474992E+00  2.10015559E+00  2.09230160E+00  1.98007689E+00  2.13977458E+00
  2.09474507E+00  2.12703367E+00  1.92911325E+00  1.97344463E+00  2.08619295E+00
  1.89158865E+00  2.11411823E+00  1.91427794E+00  2.07537190E+00  2.10137732E+00
  2.11900515E+00  1.88670173E+00  1.96838317E+00  2.03732371E+00  2.21115858E+00
  2.14117084E+00  2.15426082E+00  1.91026369E+00  2.12249581E+00  1.93836350E+00
  2.03941811E+00  1.93975976E+00  1.90904195E+00  2.16892159E+00  2.06158380E+00
  2.12267035E+00  2.01533255E+00  2.16857253E+00  2.10696238E+00  1.93016045E+00
  1.90485316E+00  2.06699432E+00  2.03819637E+00  2.05495154E+00  1.97396823E+00
  2.11307103E+00  2.03540385E+00  2.07956070E+00  2.05006462E+00  1.99089793E+00
  2.14047271E+00  1.91026369E+00  3.11820658E+00
%FLAG DIHEDRAL_FORCE_CONSTANT                                                   
%FORMAT(5E16.8)                                                                 
  1.90000000E+00  2.30000000E+00  3.62500000E+00  1.30000000E-01  6.65000000E+00
  1.20000000E-01  1.00000000E+00  2.40000000E-01  5.80000000E-01  7.53000000E-01
  2.49500000E+00  1.55555556E-01  1.88000000E+00  1.16000000E+00  3.32000000E-01
  0.00000000E+00  5.50000000E-01  4.00000000E-01  0.00000000E+00  6.75000000E-01
  2.60000000E-01  3.72000000E-01  1.57000000E-01  0.00000000E+00  1.19000000E+00
  1.09000000E+00  0.00000000E+00  1.05000000E+00  3.30000000E-01  1.92000000E+00
  1.05000000E+01  1.10000000E+00
%FLAG DIHEDRAL_PERIODICITY                                                      
%FORMAT(5E16.8)                                                                 
  1.00000000E+00  2.00000000E+00  2.00000000E+00  3.00000000E+00  2.00000000E+00
  3.00000000E+00  2.00000000E+00  2.00000000E+00  2.00000000E+00  2.00000000E+00
  2.00000000E+00  3.00000000E+00  1.00000000E+00  2.00000000E+00  2.00000000E+00
  2.00000000E+00  2.00000000E+00  3.00000000E+00  2.00000000E+00  2.00000000E+00
  3.00000000E+00  3.00000000E+00  3.00000000E+00  1.00000000E+00  2.00000000E+00
  3.00000000E+00  3.00000000E+00  2.00000000E+00  1.00000000E+00  1.00000000E+00
  2.00000000E+00  2.00000000E+00
%FLAG DIHEDRAL_PHASE                                                            
%FORMAT(5E16.8)                                                                 
  0.00000000E+00  3.14159400E+00  3.14159400E+00  0.00000000E+00  3.14159400E+00
  0.00000000E+00  3.14159400E+00  3.14159400E+00  3.14159400E+00  3.14159400E+00
  3.14159400E+00  0.00000000E+00  0.00000000E+00  3.14159400E+00  0.00000000E+00
  0.00000000E+00  3.14159400E+00  0.00000000E+00  3.14159400E+00  3.14159400E+00
  3.14159400E+00  0.00000000E+00  3.14159400E+00  3.14159400E+00  3.14159400E+00
  3.14159400E+00  0.00000000E+00  3.14159400E+00  3.14159400E+00  3.14159400E+00
  3.14159400E+00  3.14159400E+00
%FLAG SCEE_SCALE_FACTOR                                                         
%FORMAT(5E16.8)                                                                 
  1.20000000E+00  1.20000000E+00  1.20000000E+00  1.20000000E+00  1.20000000E+00
  1.20000000E+00  1.20000000E+00  1.20000000E+00  1.20000000E+00  1.20000000E+00
  1.20000000E+00  1.20000000E+00  1.20000000E+00  1.20000000E+00  1.20000000E+00
  1.20000000E+00  1.20000000E+00  1.20000000E+00  1.20000000E+00  1.20000000E+00
  1.20000000E+00  1.20000000E+00  1.20000000E+00  1.20000000E+00  1.20000000E+00
  1.20000000E+00  1.20000000E+00  1.20000000E+00  1.20000000E+00  1.20000000E+00
  0.00000000E+00  0.00000000E+00
%FLAG SCNB_SCALE_FACTOR                                                         
%FORMAT(5E16.8)                                                                 
  2.00000000E+00  2.00000000E+00  2.00000000E+00  2.00000000E+00  2.00000000E+00
  2.00000000E+00  2.00000000E+00  2.00000000E+00  2.00000000E+00  2.00000000E+00
  2.00000000E+00  2.00000000E+00  2.00000000E+00  2.00000000E+00  2.00000000E+00
  2.00000000E+00  2.00000000E+00  2.00000000E+00  2.00000000E+00  2.00000000E+00
  2.00000000E+00  2.00000000E+00  2.00000000E+00  2.00000000E+00  2.00000000E+00
  2.00000000E+00  2.00000000E+00  2.00000000E+00  2.00000000E+00  2.00000000E+00
  0.00000000E+00  0.00000000E+00
%FLAG SOLTY                                                                     
%FORMAT(5E16.8)                                                                 
  0.00000000E+00  0.00000000E+00  0.00000000E+00  0.00000000E+00  0.00000000E+00
  0.00000000E+00  0.00000000E+00  0.00000000E+00  0.00000000E+00  0.00000000E+00
  0.00000000E+00  0.00000000E+00  0.00000000E+00  0.00000000E+00  0.00000000E+00
  0.00000000E+00  0.00000000E+00  0.00000000E+00
%FLAG LENNARD_JONES_ACOEF                                                       
%FORMAT(5E16.8)                                                                 
  6.96551276E+05  8.43969952E+05  1.02073671E+06  8.17329084E+05  9.93125065E+05
  9.54790629E+05  7.52549148E+04  9.27554496E+04  8.59636060E+04  6.90855956E+03
  1.49062160E+06  1.80018612E+06  1.75809166E+06  1.66104821E+05  3.17107030E+06
  8.12662403E+04  1.00235148E+05  9.27277603E+04  7.41026906E+03  1.79601155E+05
  7.94617769E+03  5.63013422E+04  6.97998263E+04  6.37258620E+04  4.88692384E+03
  1.25585106E+05  5.22955465E+03  3.39005767E+03  5.92438683E+05  7.18991463E+05
  6.93394194E+05  6.30298721E+04  1.27155594E+06  6.80216136E+04  4.69084694E+04
  5.03152404E+05  5.17507491E+05  6.30925504E+05  6.01376873E+05  5.27277400E+04
  1.11993097E+06  5.68021765E+04  3.86646725E+04  4.37717034E+05  3.76435470E+05
  2.25372434E+02  3.03553352E+02  2.23617883E+02  8.53132435E+00  5.83653537E+02
  8.80612241E+00  4.36660257E+00  1.74176419E+02  1.15813907E+02  1.10360882E-05
  6.80770393E+05  8.25619280E+05  7.97644644E+05  7.29041169E+04  1.45931156E+06
  7.86991059E+04  5.43787653E+04  5.78531722E+05  5.04173226E+05  2.08508206E+02
  6.65027384E+05  1.18640578E+06  1.43239677E+06  1.39989391E+06  1.32549375E+05
  2.52263692E+06  1.43334551E+05  1.00303788E+05  1.01229921E+06  8.92208123E+05
  4.71994656E+02  1.16165080E+06  2.00671338E+06
%FLAG LENNARD_JONES_BCOEF                                                       
%FORMAT(5E16.8)                                                                 
  5.24668528E+02  5.90251928E+02  6.63431737E+02  6.90283231E+02  7.77671659E+02
  9.06156687E+02  1.09570372E+02  1.24325688E+02  1.42233990E+02  2.10929191E+01
  9.81118883E+02  1.10195051E+03  1.29413346E+03  2.08087638E+02  1.82923847E+03
  1.21392023E+02  1.37787728E+02  1.57492664E+02  2.32899892E+01  2.30684859E+02
  2.57122925E+01  1.01040256E+02  1.14981426E+02  1.30560951E+02  1.89134207E+01
  1.92900608E+02  2.08590256E+01  1.67944276E+01  4.76608379E+02  5.36620538E+02
  6.26253907E+02  9.87712192E+01  8.92559477E+02  1.09393126E+02  9.08431526E+01
  4.32634597E+02  4.98871431E+02  5.62969425E+02  6.53166727E+02  1.01173582E+02
  9.38113535E+02  1.11953944E+02  9.23664132E+01  4.51916854E+02  4.69350655E+02
  4.40751799E+00  5.22789272E+00  5.33233396E+00  5.44840215E-01  9.06673074E+00
  5.90150328E-01  4.15568027E-01  3.81654050E+00  3.48534600E+00  4.55498033E-04
  5.32561965E+02  5.99411656E+02  7.00156173E+02  1.10729433E+02  9.96720270E+02
  1.22653886E+02  1.01955600E+02  4.83576187E+02  5.05570298E+02  4.35277903E+00
  5.40444287E+02  7.71958727E+02  8.66911122E+02  1.01846332E+03  1.63939471E+02
  1.43891218E+03  1.81752124E+02  1.52041700E+02  7.02365877E+02  7.38469198E+02
  7.19086644E+00  7.84289859E+02  1.13185062E+03
%FLAG BONDS_INC_HYDROGEN                                                        
%FORMAT(10I8)                                                                   
     222     228       1     210     213       2     210     216       2     210
     219       2     201     207       1     189     192       2     189     195
       2     189     198       2      99     162       2      99     165       2
      99     168       2      96     180       5      96     183       5      96
     186       5      90     105       2      90     108       2      90     111
       2      87     123       5      87     126       5      87     129       5
      81     120       6      75      84       6      72     114       6      54
     132      16      51     135      16      48     141      18      48     150
      18      45     138      18      45     147      18      42     144      18
      42     153      18      30     156      16      27     159      25      15
     102       6       9     171       6       0     174       6     234     240
       2     234     243       2     234     246       2     252     258       2
     252     261       2     252     264       2     270     276       2     270
     279       2     270     282       2     288     294       2     288     297
       2     288     300       2     306     312       2     306     315       2
     306     318       2     324     330       2     324     333       2     324
     336       2     342     348       2     342     351       2     342     354
       2     360     366       2     360     369       2     360     372       2
     378     384       2     378     387       2     378     390       2     396
     402       2     396     405       2     396     408       2     414     420
       2     414     423       2     414     426       2     432     438       2
     432     441       2     432     444       2     450     456       2     450
     459       2     450     462       2     468     474       2     468     477
       2     468     480       2     486     492       2     486     495       2
     486     498       2     504     510       2     504     513       2     504
     516       2     522     528       2     522     531       2     522     534
       2     540     546       2     540     549       2     540     552       2
     558     564       2     558     567       2     558     570       2     576
     582       2     576     585       2     576     588       2     594     600
       2     594     603       2     594     606       2     612     618       2
     612     621       2     612     624       2     630     636       2     630
     639       2     630     642       2     648     654       2     648     657
       2     648     660       2     666     672       2     666     675       2
     666     678       2     684     690       2     684     693       2     684
     696       2     702     708       2     702     711       2     702     714
       2     720     726       2     720     729       2     720     732       2
     738     744       2     738     747       2     738     750       2     756
     762       2     756     765       2     756     768       2     774     780
       2     774     783       2     774     786       2     792     798       2
     792     801       2     792     804       2     810     816       2     810
     819       2     810     822       2     828     834       2     828     837
       2     828     840       2     846     852       2     846     855       2
     846     858       2     864     870       2     864     873       2     864
     876       2     882     888       2     882     891       2     882     894
       2     900     906       2     900     909       2     900     912       2
     918     924       2     918     927       2     918     930       2     936
     942       2     936     945       2     936     948       2     954     960
       2     954     963       2     954     966       2     972     978       2
     972     981       2     972     984       2     990     996       2     990
     999       2     990    1002       2    1008    1014       2    1008    1017
       2    1008    1020       2    1026    1032       2    1026    1035       2
    1026    1038       2    1044    1050       2    1044    1053       2    1044
    1056       2    1062    1068       2    1062    1071       2    1062    1074
       2    1080    1086       2    1080    1089       2    1080    1092       2
    1098    1104       2    1098    1107       2    1098    1110       2    1116
    1122       2    1116    1125       2    1116    1128       2    1134    1140
       2    1134    1143       2    1134    1146       2    1152    1158       2
    1152    1161       2    1152    1164       2    1170    1176       2    1170
    1179       2    1170    1182       2    1188    1194       2    1188    1197
       2    1188    1200       2    1206    1212       2    1206    1215       2
    1206    1218       2    1224    1230       2    1224    1233       2    1224
    1236       2    1242    1248       2    1242    1251       2    1242    1254
       2    1260    1266       2    1260    1269       2    1260    1272       2
    1278    1284       2    1278    1287       2    1278    1290       2    1296
    1302       2    1296    1305       2    1296    1308       2    1314    1320
       2    1314    1323       2    1314    1326       2    1332    1338       2
    1332    1341       2    1332    1344       2    1350    1356       2    1350
    1359       2    1350    1362       2    1368    1374       2    1368    1377
       2    1368    1380       2    1386    1392       2    1386    1395       2
    1386    1398       2    1404    1410       2    1404    1413       2    1404
    1416       2    1422    1428       2    1422    1431       2    1422    1434
       2    1440    1446       2    1440    1449       2    1440    1452       2
    1458    1464       2    1458    1467       2    1458    1470       2    1476
    1482       2    1476    1485       2    1476    1488       2    1494    1500
       2    1494    1503       2    1494    1506       2    1512    1518       2
    1512    1521       2    1512    1524       2    1530    1536       2    1530
    1539       2    1530    1542       2    1548    1554       2    1548    1557
       2    1548    1560       2    1566    1572       2    1566    1575       2
    1566    1578       2    1584    1590       2    1584    1593       2    1584
    1596       2    1602    1608       2    1602    1611       2    1602    1614
       2    1620    1626       2    1620    1629       2    1620    1632       2
    1638    1644       2    1638    1647       2    1638    1650       2    1656
    1662       2    1656    1665       2    1656    1668       2    1674    1680
       2    1674    1683       2    1674    1686       2    1692    1698       2
    1692    1701       2    1692    1704       2    1710    1716       2    1710
    1719       2    1710    1722       2    1728    1734       2    1728    1737
       2    1728    1740       2    1746    1752       2    1746    1755       2
    1746    1758       2    1764    1770       2    1764    1773       2    1764
    1776       2    1782    1788       2    1782    1791       2    1782    1794
       2    1800    1806       2    1800    1809       2    1800    1812       2
    1818    1824       2    1818    1827       2    1818    1830       2    1836
    1842       2    1836    1845       2    1836    1848       2    1854    1860
       2    1854    1863       2    1854    1866       2    1872    1878       2
    1872    1881       2    1872    1884       2    1890    1896       2    1890
    1899       2    1890    1902       2    1908    1914       2    1908    1917
       2    1908    1920       2    1926    1932       2    1926    1935       2
    1926    1938       2    1944    1950       2    1944    1953       2    1944
    1956       2    1962    1968       2    1962    1971       2    1962    1974
       2    1980    1986       2    1980    1989       2    1980    1992       2
    1998    2004       2    1998    2007       2    1998    2010       2    2016
    2022       2    2016    2025       2    2016    2028       2    2034    2040
       2    2034    2043       2    2034    2046       2    2052    2058       2
    2052    2061       2    2052    2064       2    2070    2076       2    2070
    2079       2    2070    2082       2    2088    2094       2    2088    2097
       2    2088    2100       2    2106    2112       2    2106    2115       2
    2106    2118       2    2124    2130       2    2124    2133       2    2124
    2136       2    2142    2148       2    2142    2151       2    2142    2154
       2    2160    2166       2    2160    2169       2    2160    2172       2
    2178    2184       2    2178    2187       2    2178    2190       2    2196
    2202       2    2196    2205       2    2196    2208       2    2214    2220
       2    2214    2223       2    2214    2226       2    2232    2238       2
    2232    2241       2    2232    2244       2    2250    2256       2    2250
    2259       2    2250    2262       2    2268    2274       2    2268    2277
       2    2268    2280       2    2286    2292       2    2286    2295       2
    2286    2298       2    2304    2310       2    2304    2313       2    2304
    2316       2    2322    2328       2    2322    2331       2    2322    2334
       2    2340    2346       2    2340    2349       2    2340    2352       2
    2358    2364       2    2358    2367       2    2358    2370       2    2376
    2382       2    2376    2385       2    2376    2388       2    2394    2400
       2    2394    2403       2    2394    2406       2    2412    2418       2
    2412    2421       2    2412    2424       2    2430    2436       2    2430
    2439       2    2430    2442       2    2448    2454       2    2448    2457
       2    2448    2460       2    2466    2472       2    2466    2475       2
    2466    2478       2    2484    2490       2    2484    2493       2    2484
    2496       2    2502    2508       2    2502    2511       2    2502    2514
       2    2520    2526       2    2520    2529       2    2520    2532       2
    2538    2544       2    2538    2547       2    2538    2550       2    2556
    2562       2    2556    2565       2    2556    2568       2    2574    2580
       2    2574    2583       2    2574    2586       2    2592    2598       2
    2592    2601       2    2592    2604       2    2610    2616       2    2610
    2619       2    2610    2622       2    2628    2634       2    2628    2637
       2    2628    2640       2    2646    2652       2    2646    2655       2
    2646    2658       2    2664    2670       2    2664    2673       2    2664
    2676       2    2682    2688       2    2682    2691       2    2682    2694
       2    2700    2706       2    2700    2709       2    2700    2712       2
    2718    2724       2    2718    2727       2    2718    2730       2    2736
    2742       2    2736    2745       2    2736    2748       2    2754    2760
       2    2754    2763       2    2754    2766       2    2772    2778       2
    2772    2781       2    2772    2784       2    2790    2796       2    2790
    2799       2    2790    2802       2    2808    2814       2    2808    2817
       2    2808    2820       2    2826    2832       2    2826    2835       2
    2826    2838       2    2844    2850       2    2844    2853       2    2844
    2856       2    2862    2868       2    2862    2871       2    2862    2874
       2    2880    2886       2    2880    2889       2    2880    2892       2
    2898    2904       2    2898    2907       2    2898    2910       2    2916
    2922       2    2916    2925       2    2916    2928       2    2934    2940
       2    2934    2943       2    2934    2946       2    2952    2958       2
    2952    2961       2    2952    2964       2    2970    2976       2    2970
    2979       2    2970    2982       2    2988    2994       2    2988    2997
       2    2988    3000       2    3006    3012       2    3006    3015       2
    3006    3018       2    3024    3030       2    3024    3033       2    3024
    3036       2    3042    3048       2    3042    3051       2    3042    3054
       2    3060    3066       2    3060    3069       2    3060    3072       2
    3078    3084       2    3078    3087       2    3078    3090       2    3096
    3102       2    3096    3105       2    3096    3108       2    3114    3120
       2    3114    3123       2    3114    3126       2    3132    3138       2
    3132    3141       2    3132    3144       2    3150    3156       2    3150
    3159       2    3150    3162       2    3168    3174       2    3168    3177
       2    3168    3180       2    3186    3192       2    3186    3195       2
    3186    3198       2    3204    3210       2    3204    3213       2    3204
    3216       2    3222    3228       2    3222    3231       2    3222    3234
       2    3240    3246       2    3240    3249       2    3240    3252       2
    3258    3264       2    3258    3267       2    3258    3270       2    3276
    3282       2    3276    3285       2    3276    3288       2    3294    3300
       2    3294    3303       2    3294    3306       2    3312    3318       2
    3312    3321       2    3312    3324       2    3330    3336       2    3330
    3339       2    3330    3342       2    3348    3354       2    3348    3357
       2    3348    3360       2    3366    3372       2    3366    3375       2
    3366    3378       2    3384    3390       2    3384    3393       2    3384
    3396       2    3402    3408       2    3402    3411       2    3402    3414
       2    3420    3426       2    3420    3429       2    3420    3432       2
    3438    3444       2    3438    3447       2    3438    3450       2    3456
    3462       2    3456    3465       2    3456    3468       2    3474    3480
       2    3474    3483       2    3474    3486       2    3492    3498       2
    3492    3501       2    3492    3504       2    3510    3516       2    3510
    3519       2    3510    3522       2    3528    3534       2    3528    3537
       2    3528    3540       2    3546    3552       2    3546    3555       2
    3546    3558       2    3564    3570       2    3564    3573       2    3564
    3576       2    3582    3588       2    3582    3591       2    3582    3594
       2    3600    3606       2    3600    3609       2    3600    3612       2
    3618    3624       2    3618    3627       2    3618    3630       2    3636
    3642       2    3636    3645       2    3636    3648       2    3654    3660
       2    3654    3663       2    3654    3666       2    3672    3678       2
    3672    3681       2    3672    3684       2    3690    3696       2    3690
    3699       2    3690    3702       2    3708    3714       2    3708    3717
       2    3708    3720       2    3726    3732       2    3726    3735       2
    3726    3738       2    3744    3750       2    3744    3753       2    3744
    3756       2    3762    3768       2    3762    3771       2    3762    3774
       2    3780    3786       2    3780    3789       2    3780    3792       2
    3798    3804       2    3798    3807       2    3798    3810       2    3816
    3822       2    3816    3825       2    3816    3828       2    3834    3840
       2    3834    3843       2    3834    3846       2    3852    3858       2
    3852    3861       2    3852    3864       2    3870    3876       2    3870
    3879       2    3870    3882       2    3888    3894       2    3888    3897
       2    3888    3900       2    3906    3912       2    3906    3915       2
    3906    3918       2    3924    3930       2    3924    3933       2    3924
    3936       2    3942    3948       2    3942    3951       2    3942    3954
       2    3960    3966       2    3960    3969       2    3960    3972       2
    3978    3984       2    3978    3987       2    3978    3990       2    3996
    4002       2    3996    4005       2    3996    4008       2    4014    4020
       2    4014    4023       2    4014    4026       2    4032    4038       2
    4032    4041       2    4032    4044       2    4050    4056       2    4050
    4059       2    4050    4062       2    4068    4074       2    4068    4077
       2    4068    4080       2    4086    4092       2    4086    4095       2
    4086    4098       2    4104    4110       2    4104    4113       2    4104
    4116       2    4122    4128       2    4122    4131       2    4122    4134
       2    4140    4146       2    4140    4149       2    4140    4152       2
    4158    4164       2    4158    4167       2    4158    4170       2    4176
    4182       2    4176    4185       2    4176    4188       2    4194    4200
       2    4194    4203       2    4194    4206       2    4212    4218       2
    4212    4221       2    4212    4224       2    4230    4236       2    4230
    4239       2    4230    4242       2    4248    4254       2    4248    4257
       2    4248    4260       2    4266    4272       2    4266    4275       2
    4266    4278       2    4284    4290       2    4284    4293       2    4284
    4296       2    4302    4308       2    4302    4311       2    4302    4314
       2    4320    4326       2    4320    4329       2    4320    4332       2
    4338    4344       2    4338    4347       2    4338    4350       2    4356
    4362       2    4356    4365       2    4356    4368       2    4374    4380
       2    4374    4383       2    4374    4386       2    4392    4398       2
    4392    4401       2    4392    4404       2    4410    4416       2    4410
    4419       2    4410    4422       2    4428    4434       2    4428    4437
       2    4428    4440       2    4446    4452       2    4446    4455       2
    4446    4458       2    4464    4470       2    4464    4473       2    4464
    4476       2    4482    4488       2    4482    4491       2    4482    4494
       2    4500    4506       2    4500    4509       2    4500    4512       2
    4518    4524       2    4518    4527       2    4518    4530       2    4536
    4542       2    4536    4545       2    4536    4548       2    4554    4560
       2    4554    4563       2    4554    4566       2    4572    4578       2
    4572    4581       2    4572    4584       2    4590    4596       2    4590
    4599       2    4590    4602       2    4608    4614       2    4608    4617
       2    4608    4620       2    4626    4632       2    4626    4635       2
    4626    4638       2    4644    4650       2    4644    4653       2    4644
    4656       2    4662    4668       2    4662    4671       2    4662    4674
       2    4680    4686       2    4680    4689       2    4680    4692       2
    4698    4704       2    4698    4707       2    4698    4710       2    4716
    4722       2    4716    4725       2    4716    4728       2    4734    4740
       2    4734    4743       2    4734    4746       2    4752    4758       2
    4752    4761       2    4752    4764       2    4770    4776       2    4770
    4779       2    4770    4782       2    4788    4794       2    4788    4797
       2    4788    4800       2    4806    4812       2    4806    4815       2
    4806    4818       2    4824    4830       2    4824    4833       2    4824
    4836       2    4842    4848       2    4842    4851       2    4842    4854
       2    4860    4866       2    4860    4869       2    4860    4872       2
    4878    4884       2    4878    4887       2    4878    4890       2    4896
    4902       2    4896    4905       2    4896    4908       2    4914    4920
       2    4914    4923       2    4914    4926       2    4932    4938       2
    4932    4941       2    4932    4944       2    4950    4956       2    4950
    4959       2    4950    4962       2    4968    4974       2    4968    4977
       2    4968    4980       2    4986    4992       2    4986    4995       2
    4986    4998       2    5004    5010       2    5004    5013       2    5004
    5016       2    5022    5028       2    5022    5031       2    5022    5034
       2    5040    5046       2    5040    5049       2    5040    5052       2
    5058    5064       2    5058    5067       2    5058    5070       2    5076
    5082       2    5076    5085       2    5076    5088       2    5094    5100
       2    5094    5103       2    5094    5106       2    5112    5118       2
    5112    5121       2    5112    5124       2    5130    5136       2    5130
    5139       2    5130    5142       2    5148    5154       2    5148    5157
       2    5148    5160       2    5166    5172       2    5166    5175       2
    5166    5178       2    5184    5190       2    5184    5193       2    5184
    5196       2    5202    5208       2    5202    5211       2    5202    5214
       2    5220    5226       2    5220    5229       2    5220    5232       2
    5238    5244       2    5238    5247       2    5238    5250       2    5256
    5262       2    5256    5265       2    5256    5268       2    5274    5280
       2    5274    5283       2    5274    5286       2    5292    5298       2
    5292    5301       2    5292    5304       2    5310    5316       2    5310
    5319       2    5310    5322       2    5328    5334       2    5328    5337
       2    5328    5340       2    5346    5352       2    5346    5355       2
    5346    5358       2    5364    5370       2    5364    5373       2    5364
    5376       2    5382    5388       2    5382    5391       2    5382    5394
       2    5400    5406       2    5400    5409       2    5400    5412       2
    5418    5424       2    5418    5427       2    5418    5430       2    5436
    5442       2    5436    5445       2    5436    5448       2    5454    5460
       2    5454    5463       2    5454    5466       2    5472    5478       2
    5472    5481       2    5472    5484       2    5490    5496       2    5490
    5499       2    5490    5502       2    5508    5514       2    5508    5517
       2    5508    5520       2    5526    5532       2    5526    5535       2
    5526    5538       2    5544    5550       2    5544    5553       2    5544
    5556       2    5562    5568       2    5562    5571       2    5562    5574
       2    5580    5586       2    5580    5589       2    5580    5592       2
    5598    5604       2    5598    5607       2    5598    5610       2    5616
    5622       2    5616    5625       2    5616    5628       2    5634    5640
       2    5634    5643       2    5634    5646       2    5652    5658       2
    5652    5661       2    5652    5664       2    5670    5676       2    5670
    5679       2    5670    5682       2    5688    5694       2    5688    5697
       2    5688    5700       2    5706    5712       2    5706    5715       2
    5706    5718       2    5724    5730       2    5724    5733       2    5724
    5736       2    5742    5748       2    5742    5751       2    5742    5754
       2    5760    5766       2    5760    5769       2    5760    5772       2
    5778    5784       2    5778    5787       2    5778    5790       2    5796
    5802       2    5796    5805       2    5796    5808       2    5814    5820
       2    5814    5823       2    5814    5826       2    5832    5838       2
    5832    5841       2    5832    5844       2    5850    5856       2    5850
    5859       2    5850    5862       2    5868    5874       2    5868    5877
       2    5868    5880       2    5886    5892       2    5886    5895       2
    5886    5898       2    5904    5910       2    5904    5913       2    5904
    5916       2    5922    5928       2    5922    5931       2    5922    5934
       2    5940    5946       2    5940    5949       2    5940    5952       2
    5958    5964       2    5958    5967       2    5958    5970       2    5976
    5982       2    5976    5985       2    5976    5988       2    5994    6000
       2    5994    6003       2    5994    6006       2    6012    6018       2
    6012    6021       2    6012    6024       2    6030    6036       2    6030
    6039       2    6030    6042       2    6048    6054       2    6048    6057
       2    6048    6060       2    6066    6072       2    6066    6075       2
    6066    6078       2    6084    6090       2    6084    6093       2    6084
    6096       2    6102    6108       2    6102    6111       2    6102    6114
       2    6120    6126       2    6120    6129       2    6120    6132       2
    6138    6144       2    6138    6147       2    6138    6150       2    6156
    6162       2    6156    6165       2    6156    6168       2    6174    6180
       2    6174    6183       2    6174    6186       2    6192    6198       2
    6192    6201       2    6192    6204       2    6210    6216       2    6210
    6219       2    6210    6222       2    6228    6234       2    6228    6237
       2    6228    6240       2    6246    6252       2    6246    6255       2
    6246    6258       2    6264    6270       2    6264    6273       2    6264
    6276       2    6282    6288       2    6282    6291       2    6282    6294
       2    6300    6306       2    6300    6309       2    6300    6312       2
    6318    6324       2    6318    6327       2    6318    6330       2    6336
    6342       2    6336    6345       2    6336    6348       2    6354    6360
       2    6354    6363       2    6354    6366       2    6372    6378       2
    6372    6381       2    6372    6384       2    6390    6396       2    6390
    6399       2    6390    6402       2    6408    6414       2    6408    6417
       2    6408    6420       2    6426    6432       2    6426    6435       2
    6426    6438       2    6444    6450       2    6444    6453       2    6444
    6456       2    6462    6468       2    6462    6471       2    6462    6474
       2    6480    6486       2    6480    6489       2    6480    6492       2
    6498    6504       2    6498    6507       2    6498    6510       2    6516
    6522       2    6516    6525       2    6516    6528       2    6534    6540
       2    6534    6543       2    6534    6546       2    6552    6558       2
    6552    6561       2    6552    6564       2    6570    6576       2    6570
    6579       2    6570    6582       2    6588    6594       2    6588    6597
       2    6588    6600       2    6606    6612       2    6606    6615       2
    6606    6618       2    6624    6630       2    6624    6633       2    6624
    6636       2    6642    6648       2    6642    6651       2    6642    6654
       2    6660    6666       2    6660    6669       2    6660    6672       2
    6678    6684       2    6678    6687       2    6678    6690       2    6696
    6702       2    6696    6705       2    6696    6708       2    6714    6720
       2    6714    6723       2    6714    6726       2    6732    6738       2
    6732    6741       2    6732    6744       2    6750    6756       2    6750
    6759       2    6750    6762       2    6768    6774       2    6768    6777
       2    6768    6780       2    6786    6792       2    6786    6795       2
    6786    6798       2    6804    6810       2    6804    6813       2    6804
    6816       2    6822    6828       2    6822    6831       2    6822    6834
       2    6840    6846       2    6840    6849       2    6840    6852       2
    6858    6864       2    6858    6867       2    6858    6870       2    6876
    6882       2    6876    6885       2    6876    6888       2    6894    6900
       2    6894    6903       2    6894    6906       2    6912    6918       2
    6912    6921       2    6912    6924       2    6930    6936       2    6930
    6939       2    6930    6942       2    6948    6954       2    6948    6957
       2    6948    6960       2    6966    6972       2    6966    6975       2
    6966    6978       2    6984    6990       2    6984    6993       2    6984
    6996       2    7002    7008       2    7002    7011       2    7002    7014
       2    7020    7026       2    7020    7029       2    7020    7032       2
    7038    7044       2    7038    7047       2    7038    7050       2    7056
    7062       2    7056    7065       2    7056    7068       2    7074    7080
       2    7074    7083       2    7074    7086       2    7092    7098       2
    7092    7101       2    7092    7104       2    7110    7116       2    7110
    7119       2    7110    7122       2    7128    7134       2    7128    7137
       2    7128    7140       2    7146    7152       2    7146    7155       2
    7146    7158       2    7164    7170       2    7164    7173       2    7164
    7176       2    7182    7188       2    7182    7191       2    7182    7194
       2    7200    7206       2    7200    7209       2    7200    7212       2
    7218    7224       2    7218    7227       2    7218    7230       2    7236
    7242       2    7236    7245       2    7236    7248       2    7254    7260
       2    7254    7263       2    7254    7266       2    7272    7278       2
    7272    7281       2    7272    7284       2    7290    7296       2    7290
    7299       2    7290    7302       2    7308    7314       2    7308    7317
       2    7308    7320       2    7326    7332       2    7326    7335       2
    7326    7338       2    7344    7350       2    7344    7353       2    7344
    7356       2    7362    7368       2    7362    7371       2    7362    7374
       2    7380    7386       2    7380    7389       2    7380    7392       2
    7398    7404       2    7398    7407       2    7398    7410       2    7416
    7422       2    7416    7425       2    7416    7428       2    7434    7440
       2    7434    7443       2    7434    7446       2    7452    7458       2
    7452    7461       2    7452    7464       2    7470    7476       2    7470
    7479       2    7470    7482       2    7488    7494       2    7488    7497
       2    7488    7500       2    7506    7512       2    7506    7515       2
    7506    7518       2    7524    7530       2    7524    7533       2    7524
    7536       2    7542    7548       2    7542    7551       2    7542    7554
       2    7560    7566       2    7560    7569       2    7560    7572       2
    7578    7584       2    7578    7587       2    7578    7590       2    7596
    7602       2    7596    7605       2    7596    7608       2    7614    7620
       2    7614    7623       2    7614    7626       2    7632    7638       2
    7632    7641       2    7632    7644       2    7650    7656       2    7650
    7659       2    7650    7662       2    7668    7674       2    7668    7677
       2    7668    7680       2    7686    7692       2    7686    7695       2
    7686    7698       2    7704    7710       2    7704    7713       2    7704
    7716       2    7722    7728       2    7722    7731       2    7722    7734
       2    7740    7746       2    7740    7749       2    7740    7752       2
    7758    7764       2    7758    7767       2    7758    7770       2    7776
    7782       2    7776    7785       2    7776    7788       2    7794    7800
       2    7794    7803       2    7794    7806       2    7812    7818       2
    7812    7821       2    7812    7824       2    7830    7836       2    7830
    7839       2    7830    7842       2    7848    7854       2    7848    7857
       2    7848    7860       2    7866    7872       2    7866    7875       2
    7866    7878       2    7884    7890       2    7884    7893       2    7884
    7896       2    7902    7908       2    7902    7911       2    7902    7914
       2    7920    7926       2    7920    7929       2    7920    7932       2
    7938    7944       2    7938    7947       2    7938    7950       2    7956
    7962       2    7956    7965       2    7956    7968       2    7974    7980
       2    7974    7983       2    7974    7986       2    7992    7998       2
    7992    8001       2    7992    8004       2    8010    8016       2    8010
    8019       2    8010    8022       2    8028    8034       2    8028    8037
       2    8028    8040       2    8046    8052       2    8046    8055       2
    8046    8058       2    8064    8070       2    8064    8073       2    8064
    8076       2    8082    8088       2    8082    8091       2    8082    8094
       2    8100    8106       2    8100    8109       2    8100    8112       2
    8118    8124       2    8118    8127       2    8118    8130       2    8136
    8142       2    8136    8145       2    8136    8148       2    8154    8160
       2    8154    8163       2    8154    8166       2    8172    8178       2
    8172    8181       2    8172    8184       2    8190    8196       2    8190
    8199       2    8190    8202       2    8208    8214       2    8208    8217
       2    8208    8220       2    8226    8232       2    8226    8235       2
    8226    8238       2    8244    8250       2    8244    8253       2    8244
    8256       2    8262    8268       2    8262    8271       2    8262    8274
       2    8280    8286       2    8280    8289       2    8280    8292       2
    8298    8304       2    8298    8307       2    8298    8310       2    8316
    8322       2    8316    8325       2    8316    8328       2    8334    8340
       2    8334    8343       2    8334    8346       2    8352    8358       2
    8352    8361       2    8352    8364       2    8370    8376       2    8370
    8379       2    8370    8382       2    8388    8394       2    8388    8397
       2    8388    8400       2    8406    8412       2    8406    8415       2
    8406    8418       2    8424    8430       2    8424    8433       2    8424
    8436       2    8442    8448       2    8442    8451       2    8442    8454
       2    8460    8466       2    8460    8469       2    8460    8472       2
    8478    8484       2    8478    8487       2    8478    8490       2    8496
    8502       2    8496    8505       2    8496    8508       2    8514    8520
       2    8514    8523       2    8514    8526       2    8532    8538       2
    8532    8541       2    8532    8544       2    8550    8556       2    8550
    8559       2    8550    8562       2    8568    8574       2    8568    8577
       2    8568    8580       2    8586    8592       2    8586    8595       2
    8586    8598       2    8604    8610       2    8604    8613       2    8604
    8616       2    8622    8628       2    8622    8631       2    8622    8634
       2    8640    8646       2    8640    8649       2    8640    8652       2
    8658    8664       2    8658    8667       2    8658    8670       2    8676
    8682       2    8676    8685       2    8676    8688       2    8694    8700
       2    8694    8703       2    8694    8706       2    8712    8718       2
    8712    8721       2    8712    8724       2    8730    8736       2    8730
    8739       2    8730    8742       2    8748    8754       2    8748    8757
       2    8748    8760       2    8766    8772       2    8766    8775       2
    8766    8778       2    8784    8790       2    8784    8793       2    8784
    8796       2    8802    8808       2    8802    8811       2    8802    8814
       2    8820    8826       2    8820    8829       2    8820    8832       2
    8838    8844       2    8838    8847       2    8838    8850       2    8856
    8862       2    8856    8865       2    8856    8868       2    8874    8880
       2    8874    8883       2    8874    8886       2    8892    8898       2
    8892    8901       2    8892    8904       2    8910    8916       2    8910
    8919       2    8910    8922       2    8928    8934       2    8928    8937
       2    8928    8940       2    8946    8952       2    8946    8955       2
    8946    8958       2    8964    8970       2    8964    8973       2    8964
    8976       2    8982    8988       2    8982    8991       2    8982    8994
       2    9000    9006       2    9000    9009       2    9000    9012       2
    9018    9024       2    9018    9027       2    9018    9030       2    9036
    9042       2    9036    9045       2    9036    9048       2    9054    9060
       2    9054    9063       2    9054    9066       2    9072    9078       2
    9072    9081       2    9072    9084       2    9090    9096       2    9090
    9099       2    9090    9102       2    9108    9114       2    9108    9117
       2    9108    9120       2    9126    9132       2    9126    9135       2
    9126    9138       2    9144    9150       2    9144    9153       2    9144
    9156       2    9162    9168       2    9162    9171       2    9162    9174
       2    9180    9186       2    9180    9189       2    9180    9192       2
    9198    9204       2    9198    9207       2    9198    9210       2    9216
    9222       2    9216    9225       2    9216    9228       2    9234    9240
       2    9234    9243       2    9234    9246       2    9252    9258       2
    9252    9261       2    9252    9264       2    9270    9276       2    9270
    9279       2    9270    9282       2    9288    9294       2    9288    9297
       2    9288    9300       2    9306    9312       2    9306    9315       2
    9306    9318       2    9324    9330       2    9324    9333       2    9324
    9336       2    9342    9348       2    9342    9351       2    9342    9354
       2    9360    9366       2    9360    9369       2    9360    9372       2
    9378    9384       2    9378    9387       2    9378    9390       2    9396
    9402       2    9396    9405       2    9396    9408       2    9414    9420
       2    9414    9423       2    9414    9426       2    9432    9438       2
    9432    9441       2    9432    9444       2    9450    9456       2    9450
    9459       2    9450    9462       2    9468    9474       2    9468    9477
       2    9468    9480       2    9486    9492       2    9486    9495       2
    9486    9498       2    9504    9510       2    9504    9513       2    9504
    9516       2    9522    9528       2    9522    9531       2    9522    9534
       2    9540    9546       2    9540    9549       2    9540    9552       2
    9558    9564       2    9558    9567       2    9558    9570       2    9576
    9582       2    9576    9585       2    9576    9588       2    9594    9600
       2    9594    9603       2    9594    9606       2    9612    9618       2
    9612    9621       2    9612    9624       2    9630    9636       2    9630
    9639       2    9630    9642       2    9648    9654       2    9648    9657
       2    9648    9660       2    9666    9672       2    9666    9675       2
    9666    9678       2    9684    9690       2    9684    9693       2    9684
    9696       2    9702    9708       2    9702    9711       2    9702    9714
       2    9720    9726       2    9720    9729       2    9720    9732       2
    9738    9744       2    9738    9747       2    9738    9750       2    9756
    9762       2    9756    9765       2    9756    9768       2    9774    9780
       2    9774    9783       2    9774    9786       2    9792    9798       2
    9792    9801       2    9792    9804       2    9810    9816       2    9810
    9819       2    9810    9822       2    9828    9834       2    9828    9837
       2    9828    9840       2    9846    9852       2    9846    9855       2
    9846    9858       2    9864    9870       2    9864    9873       2    9864
    9876       2    9882    9888       2    9882    9891       2    9882    9894
       2    9900    9906       2    9900    9909       2    9900    9912       2
    9918    9924       2    9918    9927       2    9918    9930       2    9936
    9942       2    9936    9945       2    9936    9948       2    9954    9960
       2    9954    9963       2    9954    9966       2    9972    9978       2
    9972    9981       2    9972    9984       2    9990    9996       2    9990
    9999       2    9990   10002       2   10008   10014       2   10008   10017
       2   10008   10020       2   10026   10032       2   10026   10035       2
   10026   10038       2   10044   10050       2   10044   10053       2   10044
   10056       2   10062   10068       2   10062   10071       2   10062   10074
       2   10080   10086       2   10080   10089       2   10080   10092       2
   10098   10104       2   10098   10107       2   10098   10110       2   10116
   10122       2   10116   10125       2   10116   10128       2   10134   10140
       2   10134   10143       2   10134   10146       2   10152   10158       2
   10152   10161       2   10152   10164       2   10170   10176       2   10170
   10179       2   10170   10182       2   10188   10194       2   10188   10197
       2   10188   10200       2   10206   10212       2   10206   10215       2
   10206   10218       2   10224   10230       2   10224   10233       2   10224
   10236       2   10242   10248       2   10242   10251       2   10242   10254
       2   10260   10266       2   10260   10269       2   10260   10272       2
   10278   10284       2   10278   10287       2   10278   10290       2   10296
   10302       2   10296   10305       2   10296   10308       2   10314   10320
       2   10314   10323       2   10314   10326       2   10332   10338       2
   10332   10341       2   10332   10344       2   10350   10356       2   10350
   10359       2   10350   10362       2   10368   10374       2   10368   10377
       2   10368   10380       2   10386   10392       2   10386   10395       2
   10386   10398       2   10404   10410       2   10404   10413       2   10404
   10416       2   10422   10428       2   10422   10431       2   10422   10434
       2   10440   10446       2   10440   10449       2   10440   10452       2
   10458   10464       2   10458   10467       2   10458   10470       2   10476
   10482       2   10476   10485       2   10476   10488       2   10494   10500
       2   10494   10503       2   10494   10506       2   10512   10518       2
   10512   10521       2   10512   10524       2   10530   10536       2   10530
   10539       2   10530   10542       2   10548   10554       2   10548   10557
       2   10548   10560       2   10566   10572       2   10566   10575       2
   10566   10578       2   10584   10590       2   10584   10593       2   10584
   10596       2   10602   10608       2   10602   10611       2   10602   10614
       2   10620   10626       2   10620   10629       2   10620   10632       2
   10638   10644       2   10638   10647       2   10638   10650       2   10656
   10662       2   10656   10665       2   10656   10668       2   10674   10680
       2   10674   10683       2   10674   10686       2   10692   10698       2
   10692   10701       2   10692   10704       2   10710   10716       2   10710
   10719       2   10710   10722       2   10728   10734       2   10728   10737
       2   10728   10740       2   10746   10752       2   10746   10755       2
   10746   10758       2   10764   10770       2   10764   10773       2   10764
   10776       2   10782   10788       2   10782   10791       2   10782   10794
       2   10800   10806       2   10800   10809       2   10800   10812       2
   10818   10824       2   10818   10827       2   10818   10830       2   10836
   10842       2   10836   10845       2   10836   10848       2   10854   10860
       2   10854   10863       2   10854   10866       2   10872   10878       2
   10872   10881       2   10872   10884       2   10890   10896       2   10890
   10899       2   10890   10902       2   10908   10914       2   10908   10917
       2   10908   10920       2   10926   10932       2   10926   10935       2
   10926   10938       2   10944   10950       2   10944   10953       2   10944
   10956       2   10962   10968       2   10962   10971       2   10962   10974
       2   10980   10986       2   10980   10989       2   10980   10992       2
   10998   11004       2   10998   11007       2   10998   11010       2   11016
   11022       2   11016   11025       2   11016   11028       2   11034   11040
       2   11034   11043       2   11034   11046       2   11052   11058       2
   11052   11061       2   11052   11064       2   11070   11076       2   11070
   11079       2   11070   11082       2   11088   11094       2   11088   11097
       2   11088   11100       2   11106   11112       2   11106   11115       2
   11106   11118       2   11124   11130       2   11124   11133       2   11124
   11136       2   11142   11148       2   11142   11151       2   11142   11154
       2   11160   11166       2   11160   11169       2   11160   11172       2
   11178   11184       2   11178   11187       2   11178   11190       2   11196
   11202       2   11196   11205       2   11196   11208       2   11214   11220
       2   11214   11223       2   11214   11226       2   11232   11238       2
   11232   11241       2   11232   11244       2   11250   11256       2   11250
   11259       2   11250   11262       2   11268   11274       2   11268   11277
       2   11268   11280       2   11286   11292       2   11286   11295       2
   11286   11298       2   11304   11310       2   11304   11313       2   11304
   11316       2   11322   11328       2   11322   11331       2   11322   11334
       2   11340   11346       2   11340   11349       2   11340   11352       2
   11358   11364       2   11358   11367       2   11358   11370       2   11376
   11382       2   11376   11385       2   11376   11388       2   11394   11400
       2   11394   11403       2   11394   11406       2   11412   11418       2
   11412   11421       2   11412   11424       2   11430   11436       2   11430
   11439       2   11430   11442       2   11448   11454       2   11448   11457
       2   11448   11460       2   11466   11472       2   11466   11475       2
   11466   11478       2   11484   11490       2   11484   11493       2   11484
   11496       2   11502   11508       2   11502   11511       2   11502   11514
       2   11520   11526       2   11520   11529       2   11520   11532       2
   11538   11544       2   11538   11547       2   11538   11550       2   11556
   11562       2   11556   11565       2   11556   11568       2   11574   11580
       2   11574   11583       2   11574   11586       2   11592   11598       2
   11592   11601       2   11592   11604       2   11610   11616       2   11610
   11619       2   11610   11622       2   11628   11634       2   11628   11637
       2   11628   11640       2   11646   11652       2   11646   11655       2
   11646   11658       2   11664   11670       2   11664   11673       2   11664
   11676       2   11682   11688       2   11682   11691       2   11682   11694
       2   11700   11706       2   11700   11709       2   11700   11712       2
   11718   11724       2   11718   11727       2   11718   11730       2   11736
   11742       2   11736   11745       2   11736   11748       2   11754   11760
       2   11754   11763       2   11754   11766       2   11772   11778       2
   11772   11781       2   11772   11784       2   11790   11796       2   11790
   11799       2   11790   11802       2   11808   11814       2   11808   11817
       2   11808   11820       2   11826   11832       2   11826   11835       2
   11826   11838       2   11844   11850       2   11844   11853       2   11844
   11856       2   11862   11868       2   11862   11871       2   11862   11874
       2   11880   11886       2   11880   11889       2   11880   11892       2
   11898   11904       2   11898   11907       2   11898   11910       2   11916
   11922       2   11916   11925       2   11916   11928       2   11934   11940
       2   11934   11943       2   11934   11946       2   11952   11958       2
   11952   11961       2   11952   11964       2   11970   11976       2   11970
   11979       2   11970   11982       2   11988   11994       2   11988   11997
       2   11988   12000       2   12006   12012       2   12006   12015       2
   12006   12018       2   12024   12030       2   12024   12033       2   12024
   12036       2   12042   12048       2   12042   12051       2   12042   12054
       2   12060   12066       2   12060   12069       2   12060   12072       2
   12078   12084       2   12078   12087       2   12078   12090       2   12096
   12102       2   12096   12105       2   12096   12108       2   12114   12120
       2   12114   12123       2   12114   12126       2   12132   12138       2
   12132   12141       2   12132   12144       2   12150   12156       2   12150
   12159       2   12150   12162       2   12168   12174       2   12168   12177
       2   12168   12180       2   12186   12192       2   12186   12195       2
   12186   12198       2   12204   12210       2   12204   12213       2   12204
   12216       2   12222   12228       2   12222   12231       2   12222   12234
       2   12240   12246       2   12240   12249       2   12240   12252       2
   12258   12264       2   12258   12267       2   12258   12270       2   12276
   12282       2   12276   12285       2   12276   12288       2   12294   12300
       2   12294   12303       2   12294   12306       2   12312   12318       2
   12312   12321       2   12312   12324       2   12330   12336       2   12330
   12339       2   12330   12342       2   12348   12354       2   12348   12357
       2   12348   12360       2   12366   12372       2   12366   12375       2
   12366   12378       2   12384   12390       2   12384   12393       2   12384
   12396       2   12402   12408       2   12402   12411       2   12402   12414
       2   12420   12426       2   12420   12429       2   12420   12432       2
   12438   12444       2   12438   12447       2   12438   12450       2   12456
   12462       2   12456   12465       2   12456   12468       2   12474   12480
       2   12474   12483       2   12474   12486       2   12492   12498       2
   12492   12501       2   12492   12504       2   12510   12516       2   12510
   12519       2   12510   12522       2   12528   12534       2   12528   12537
       2   12528   12540       2   12546   12552       2   12546   12555       2
   12546   12558       2   12564   12570       2   12564   12573       2   12564
   12576       2   12582   12588       2   12582   12591       2   12582   12594
       2   12600   12606       2   12600   12609       2   12600   12612       2
   12618   12624       2   12618   12627       2   12618   12630       2   12636
   12642       2   12636   12645       2   12636   12648       2   12654   12660
       2   12654   12663       2   12654   12666       2   12672   12678       2
   12672   12681       2   12672   12684       2   12690   12696       2   12690
   12699       2   12690   12702       2   12708   12714       2   12708   12717
       2   12708   12720       2   12726   12732       2   12726   12735       2
   12726   12738       2   12744   12750       2   12744   12753       2   12744
   12756       2   12762   12768       2   12762   12771       2   12762   12774
       2   12780   12786       2   12780   12789       2   12780   12792       2
   12798   12804       2   12798   12807       2   12798   12810       2   12816
   12822       2   12816   12825       2   12816   12828       2   12834   12840
       2   12834   12843       2   12834   12846       2   12852   12858       2
   12852   12861       2   12852   12864       2   12870   12876       2   12870
   12879       2   12870   12882       2   12888   12894       2   12888   12897
       2   12888   12900       2   12906   12912       2   12906   12915       2
   12906   12918       2   12924   12930       2   12924   12933       2   12924
   12936       2   12942   12948       2   12942   12951       2   12942   12954
       2   12960   12966       2   12960   12969       2   12960   12972       2
   12978   12984       2   12978   12987       2   12978   12990       2   12996
   13002       2   12996   13005       2   12996   13008       2   13014   13020
       2   13014   13023       2   13014   13026       2   13032   13038       2
   13032   13041       2   13032   13044       2   13050   13056       2   13050
   13059       2   13050   13062       2   13068   13074       2   13068   13077
       2   13068   13080       2   13086   13092       2   13086   13095       2
   13086   13098       2   13104   13110       2   13104   13113       2   13104
   13116       2   13122   13128       2   13122   13131       2   13122   13134
       2   13140   13146       2   13140   13149       2   13140   13152       2
   13158   13164       2   13158   13167       2   13158   13170       2   13176
   13182       2   13176   13185       2   13176   13188       2   13194   13200
       2   13194   13203       2   13194   13206       2   13212   13218       2
   13212   13221       2   13212   13224       2   13230   13236       2   13230
   13239       2   13230   13242       2   13248   13254       2   13248   13257
       2   13248   13260       2   13266   13272       2   13266   13275       2
   13266   13278       2   13284   13290       2   13284   13293       2   13284
   13296       2   13302   13308       2   13302   13311       2   13302   13314
       2   13320   13326       2   13320   13329       2   13320   13332       2
   13338   13344       2   13338   13347       2   13338   13350       2   13356
   13362       2   13356   13365       2   13356   13368       2   13374   13380
       2   13374   13383       2   13374   13386       2   13392   13398       2
   13392   13401       2   13392   13404       2   13410   13416       2   13410
   13419       2   13410   13422       2   13428   13434       2   13428   13437
       2   13428   13440       2   13446   13452       2   13446   13455       2
   13446   13458       2   13464   13470       2   13464   13473       2   13464
   13476       2   13482   13488       2   13482   13491       2   13482   13494
       2   13500   13506       2   13500   13509       2   13500   13512       2
   13518   13524       2   13518   13527       2   13518   13530       2   13536
   13542       2   13536   13545       2   13536   13548       2   13554   13560
       2   13554   13563       2   13554   13566       2   13572   13578       2
   13572   13581       2   13572   13584       2   13590   13596       2   13590
   13599       2   13590   13602       2   13608   13614       2   13608   13617
       2   13608   13620       2   13626   13632       2   13626   13635       2
   13626   13638       2   13644   13650       2   13644   13653       2   13644
   13656       2   13662   13668       2   13662   13671       2   13662   13674
       2   13680   13686       2   13680   13689       2   13680   13692       2
   13698   13704       2   13698   13707       2   13698   13710       2   13716
   13722       2   13716   13725       2   13716   13728       2   13734   13740
       2   13734   13743       2   13734   13746       2   13752   13758       2
   13752   13761       2   13752   13764       2   13770   13776       2   13770
   13779       2   13770   13782       2   13788   13794       2   13788   13797
       2   13788   13800       2   13806   13812       2   13806   13815       2
   13806   13818       2   13824   13830       2   13824   13833       2   13824
   13836       2   13842   13848       2   13842   13851       2   13842   13854
       2   13860   13866       2   13860   13869       2   13860   13872       2
   13878   13884       2   13878   13887       2   13878   13890       2   13896
   13902       2   13896   13905       2   13896   13908       2   13914   13920
       2   13914   13923       2   13914   13926       2   13932   13938       2
   13932   13941       2   13932   13944       2   13950   13956       2   13950
   13959       2   13950   13962       2   13968   13974       2   13968   13977
       2   13968   13980       2   13986   13992       2   13986   13995       2
   13986   13998       2   14004   14010       2   14004   14013       2   14004
   14016       2   14022   14028       2   14022   14031       2   14022   14034
       2   14040   14046       2   14040   14049       2   14040   14052       2
   14058   14064       2   14058   14067       2   14058   14070       2   14076
   14082       2   14076   14085       2   14076   14088       2   14094   14100
       2   14094   14103       2   14094   14106       2   14112   14118       2
   14112   14121       2   14112   14124       2   14130   14136       2   14130
   14139       2   14130   14142       2   14148   14154       2   14148   14157
       2   14148   14160       2   14166   14172       2   14166   14175       2
   14166   14178       2   14184   14190       2   14184   14193       2   14184
   14196       2   14202   14208       2   14202   14211       2   14202   14214
       2   14220   14226       2   14220   14229       2   14220   14232       2
   14238   14244       2   14238   14247       2   14238   14250       2   14256
   14262       2   14256   14265       2   14256   14268       2   14274   14280
       2   14274   14283       2   14274   14286       2   14292   14298       2
   14292   14301       2   14292   14304       2   14310   14316       2   14310
   14319       2   14310   14322       2   14328   14334       2   14328   14337
       2   14328   14340       2   14346   14352       2   14346   14355       2
   14346   14358       2   14364   14370       2   14364   14373       2   14364
   14376       2   14382   14388       2   14382   14391       2   14382   14394
       2   14400   14406       2   14400   14409       2   14400   14412       2
   14418   14424       2   14418   14427       2   14418   14430       2   14436
   14442       2   14436   14445       2   14436   14448       2   14454   14460
       2   14454   14463       2   14454   14466       2   14472   14478       2
   14472   14481       2   14472   14484       2   14490   14496       2   14490
   14499       2   14490   14502       2   14508   14514       2   14508   14517
       2   14508   14520       2   14526   14532       2   14526   14535       2
   14526   14538       2   14544   14550       2   14544   14553       2   14544
   14556       2   14562   14568       2   14562   14571       2   14562   14574
       2   14580   14586       2   14580   14589       2   14580   14592       2
   14598   14604       2   14598   14607       2   14598   14610       2   14616
   14622       2   14616   14625       2   14616   14628       2   14634   14640
       2   14634   14643       2   14634   14646       2   14652   14658       2
   14652   14661       2   14652   14664       2   14670   14676       2   14670
   14679       2   14670   14682       2   14688   14694       2   14688   14697
       2   14688   14700       2   14706   14712       2   14706   14715       2
   14706   14718       2   14724   14730       2   14724   14733       2   14724
   14736       2   14742   14748       2   14742   14751       2   14742   14754
       2   14760   14766       2   14760   14769       2   14760   14772       2
   14778   14784       2   14778   14787       2   14778   14790       2   14796
   14802       2   14796   14805       2   14796   14808       2   14814   14820
       2   14814   14823       2   14814   14826       2   14832   14838       2
   14832   14841       2   14832   14844       2   14850   14856       2   14850
   14859       2   14850   14862       2   14868   14874       2   14868   14877
       2   14868   14880       2   14886   14892       2   14886   14895       2
   14886   14898       2   14904   14910       2   14904   14913       2   14904
   14916       2   14922   14928       2   14922   14931       2   14922   14934
       2   14940   14946       2   14940   14949       2   14940   14952       2
   14958   14964       2   14958   14967       2   14958   14970       2   14976
   14982       2   14976   14985       2   14976   14988       2   14994   15000
       2   14994   15003       2   14994   15006       2   15012   15018       2
   15012   15021       2   15012   15024       2   15030   15036       2   15030
   15039       2   15030   15042       2   15048   15054       2   15048   15057
       2   15048   15060       2   15066   15072       2   15066   15075       2
   15066   15078       2   15084   15090       2   15084   15093       2   15084
   15096       2   15102   15108       2   15102   15111       2   15102   15114
       2   15120   15126       2   15120   15129       2   15120   15132       2
   15138   15144       2   15138   15147       2   15138   15150       2   15156
   15162       2   15156   15165       2   15156   15168       2   15174   15180
       2   15174   15183       2   15174   15186       2   15192   15198       2
   15192   15201       2   15192   15204       2   15210   15216       2   15210
   15219       2   15210   15222       2   15228   15234       2   15228   15237
       2   15228   15240       2   15246   15252       2   15246   15255       2
   15246   15258       2   15264   15270       2   15264   15273       2   15264
   15276       2   15282   15288       2   15282   15291       2   15282   15294
       2   15300   15306       2   15300   15309       2   15300   15312       2
   15318   15324       2   15318   15327       2   15318   15330       2   15336
   15342       2   15336   15345       2   15336   15348       2   15354   15360
       2   15354   15363       2   15354   15366       2   15372   15378       2
   15372   15381       2   15372   15384       2   15390   15396       2   15390
   15399       2   15390   15402       2   15408   15414       2   15408   15417
       2   15408   15420       2   15426   15432       2   15426   15435       2
   15426   15438       2   15444   15450       2   15444   15453       2   15444
   15456       2   15462   15468       2   15462   15471       2   15462   15474
       2   15480   15486       2   15480   15489       2   15480   15492       2
   15498   15504       2   15498   15507       2   15498   15510       2   15516
   15522       2   15516   15525       2   15516   15528       2   15534   15540
       2   15534   15543       2   15534   15546       2   15552   15558       2
   15552   15561       2   15552   15564       2   15570   15576       2   15570
   15579       2   15570   15582       2   15588   15594       2   15588   15597
       2   15588   15600       2   15606   15612       2   15606   15615       2
   15606   15618       2   15624   15630       2   15624   15633       2   15624
   15636       2   15642   15648       2   15642   15651       2   15642   15654
       2   15660   15666       2   15660   15669       2   15660   15672       2
   15678   15684       2   15678   15687       2   15678   15690       2   15696
   15702       2   15696   15705       2   15696   15708       2   15714   15720
       2   15714   15723       2   15714   15726       2   15732   15738       2
   15732   15741       2   15732   15744       2   15750   15756       2   15750
   15759       2   15750   15762       2   15768   15774       2   15768   15777
       2   15768   15780       2   15786   15792       2   15786   15795       2
   15786   15798       2   15804   15810       2   15804   15813       2   15804
   15816       2   15822   15828       2   15822   15831       2   15822   15834
       2   15840   15846       2   15840   15849       2   15840   15852       2
   15858   15864       2   15858   15867       2   15858   15870       2   15876
   15882       2   15876   15885       2   15876   15888       2   15894   15900
       2   15894   15903       2   15894   15906       2   15912   15918       2
   15912   15921       2   15912   15924       2   15930   15936       2   15930
   15939       2   15930   15942       2   15948   15954       2   15948   15957
       2   15948   15960       2   15966   15972       2   15966   15975       2
   15966   15978       2   15984   15990       2   15984   15993       2   15984
   15996       2   16002   16008       2   16002   16011       2   16002   16014
       2   16020   16026       2   16020   16029       2   16020   16032       2
   16038   16044       2   16038   16047       2   16038   16050       2   16056
   16062       2   16056   16065       2   16056   16068       2   16074   16080
       2   16074   16083       2   16074   16086       2   16092   16098       2
   16092   16101       2   16092   16104       2   16110   16116       2   16110
   16119       2   16110   16122       2   16128   16134       2   16128   16137
       2   16128   16140       2   16146   16152       2   16146   16155       2
   16146   16158       2   16164   16170       2   16164   16173       2   16164
   16176       2   16182   16188       2   16182   16191       2   16182   16194
       2   16200   16206       2   16200   16209       2   16200   16212       2
   16218   16224       2   16218   16227       2   16218   16230       2   16236
   16242       2   16236   16245       2   16236   16248       2   16254   16260
       2   16254   16263       2   16254   16266       2   16272   16278       2
   16272   16281       2   16272   16284       2   16290   16296       2   16290
   16299       2   16290   16302       2   16308   16314       2   16308   16317
       2   16308   16320       2   16326   16332       2   16326   16335       2
   16326   16338       2   16344   16350       2   16344   16353       2   16344
   16356       2   16362   16368       2   16362   16371       2   16362   16374
       2   16380   16386       2   16380   16389       2   16380   16392       2
   16398   16404       2   16398   16407       2   16398   16410       2   16416
   16422       2   16416   16425       2   16416   16428       2   16434   16440
       2   16434   16443       2   16434   16446       2   16452   16458       2
   16452   16461       2   16452   16464       2   16470   16476       2   16470
   16479       2   16470   16482       2   16488   16494       2   16488   16497
       2   16488   16500       2   16506   16512       2   16506   16515       2
   16506   16518       2   16524   16530       2   16524   16533       2   16524
   16536       2   16542   16548       2   16542   16551       2   16542   16554
       2   16560   16566       2   16560   16569       2   16560   16572       2
   16578   16584       2   16578   16587       2   16578   16590       2   16596
   16602       2   16596   16605       2   16596   16608       2   16614   16620
       2   16614   16623       2   16614   16626       2   16632   16638       2
   16632   16641       2   16632   16644       2   16650   16656       2   16650
   16659       2   16650   16662       2   16668   16674       2   16668   16677
       2   16668   16680       2   16686   16692       2   16686   16695       2
   16686   16698       2   16704   16710       2   16704   16713       2   16704
   16716       2   16722   16728       2   16722   16731       2   16722   16734
       2   16740   16746       2   16740   16749       2   16740   16752       2
   16758   16764       2   16758   16767       2   16758   16770       2   16776
   16782       2   16776   16785       2   16776   16788       2
%FLAG BONDS_WITHOUT_HYDROGEN                                                    
%FORMAT(10I8)                                                                   
     177     222       3     177     225       4     117     201       3     117
     204       4      78      81       7      78     117       8      75      78
       7      72      75       7      69      90       9      69     189       9
      66      69      10      66      81       7      63      66       7      63
      72       7      60      63      11      60      87      12      57      60
      13      57      69      14      54      57      15      51      54      17
      45      48      19      42      45      19      39      42      20      39
      51      21      36      39      22      36      93      23      33      36
      21      33      48      24      30      33      17      27      30      21
      24      96      12      21      24      26      21      27      22      18
      21      27      18      99       9      18     210       9      12      15
       7      12     177       8       9      12       7       6       9       7
       6      18      10       3       6       7       3      24      11       0
       3       7       0      15       7     234     237      28     231     237
      29     252     255      28     249     255      29     270     273      28
     267     273      29     288     291      28     285     291      29     306
     309      28     303     309      29     324     327      28     321     327
      29     342     345      28     339     345      29     360     363      28
     357     363      29     378     381      28     375     381      29     396
     399      28     393     399      29     414     417      28     411     417
      29     432     435      28     429     435      29     450     453      28
     447     453      29     468     471      28     465     471      29     486
     489      28     483     489      29     504     507      28     501     507
      29     522     525      28     519     525      29     540     543      28
     537     543      29     558     561      28     555     561      29     576
     579      28     573     579      29     594     597      28     591     597
      29     612     615      28     609     615      29     630     633      28
     627     633      29     648     651      28     645     651      29     666
     669      28     663     669      29     684     687      28     681     687
      29     702     705      28     699     705      29     720     723      28
     717     723      29     738     741      28     735     741      29     756
     759      28     753     759      29     774     777      28     771     777
      29     792     795      28     789     795      29     810     813      28
     807     813      29     828     831      28     825     831      29     846
     849      28     843     849      29     864     867      28     861     867
      29     882     885      28     879     885      29     900     903      28
     897     903      29     918     921      28     915     921      29     936
     939      28     933     939      29     954     957      28     951     957
      29     972     975      28     969     975      29     990     993      28
     987     993      29    1008    1011      28    1005    1011      29    1026
    1029      28    1023    1029      29    1044    1047      28    1041    1047
      29    1062    1065      28    1059    1065      29    1080    1083      28
    1077    1083      29    1098    1101      28    1095    1101      29    1116
    1119      28    1113    1119      29    1134    1137      28    1131    1137
      29    1152    1155      28    1149    1155      29    1170    1173      28
    1167    1173      29    1188    1191      28    1185    1191      29    1206
    1209      28    1203    1209      29    1224    1227      28    1221    1227
      29    1242    1245      28    1239    1245      29    1260    1263      28
    1257    1263      29    1278    1281      28    1275    1281      29    1296
    1299      28    1293    1299      29    1314    1317      28    1311    1317
      29    1332    1335      28    1329    1335      29    1350    1353      28
    1347    1353      29    1368    1371      28    1365    1371      29    1386
    1389      28    1383    1389      29    1404    1407      28    1401    1407
      29    1422    1425      28    1419    1425      29    1440    1443      28
    1437    1443      29    1458    1461      28    1455    1461      29    1476
    1479      28    1473    1479      29    1494    1497      28    1491    1497
      29    1512    1515      28    1509    1515      29    1530    1533      28
    1527    1533      29    1548    1551      28    1545    1551      29    1566
    1569      28    1563    1569      29    1584    1587      28    1581    1587
      29    1602    1605      28    1599    1605      29    1620    1623      28
    1617    1623      29    1638    1641      28    1635    1641      29    1656
    1659      28    1653    1659      29    1674    1677      28    1671    1677
      29    1692    1695      28    1689    1695      29    1710    1713      28
    1707    1713      29    1728    1731      28    1725    1731      29    1746
    1749      28    1743    1749      29    1764    1767      28    1761    1767
      29    1782    1785      28    1779    1785      29    1800    1803      28
    1797    1803      29    1818    1821      28    1815    1821      29    1836
    1839      28    1833    1839      29    1854    1857      28    1851    1857
      29    1872    1875      28    1869    1875      29    1890    1893      28
    1887    1893      29    1908    1911      28    1905    1911      29    1926
    1929      28    1923    1929      29    1944    1947      28    1941    1947
      29    1962    1965      28    1959    1965      29    1980    1983      28
    1977    1983      29    1998    2001      28    1995    2001      29    2016
    2019      28    2013    2019      29    2034    2037      28    2031    2037
      29    2052    2055      28    2049    2055      29    2070    2073      28
    2067    2073      29    2088    2091      28    2085    2091      29    2106
    2109      28    2103    2109      29    2124    2127      28    2121    2127
      29    2142    2145      28    2139    2145      29    2160    2163      28
    2157    2163      29    2178    2181      28    2175    2181      29    2196
    2199      28    2193    2199      29    2214    2217      28    2211    2217
      29    2232    2235      28    2229    2235      29    2250    2253      28
    2247    2253      29    2268    2271      28    2265    2271      29    2286
    2289      28    2283    2289      29    2304    2307      28    2301    2307
      29    2322    2325      28    2319    2325      29    2340    2343      28
    2337    2343      29    2358    2361      28    2355    2361      29    2376
    2379      28    2373    2379      29    2394    2397      28    2391    2397
      29    2412    2415      28    2409    2415      29    2430    2433      28
    2427    2433      29    2448    2451      28    2445    2451      29    2466
    2469      28    2463    2469      29    2484    2487      28    2481    2487
      29    2502    2505      28    2499    2505      29    2520    2523      28
    2517    2523      29    2538    2541      28    2535    2541      29    2556
    2559      28    2553    2559      29    2574    2577      28    2571    2577
      29    2592    2595      28    2589    2595      29    2610    2613      28
    2607    2613      29    2628    2631      28    2625    2631      29    2646
    2649      28    2643    2649      29    2664    2667      28    2661    2667
      29    2682    2685      28    2679    2685      29    2700    2703      28
    2697    2703      29    2718    2721      28    2715    2721      29    2736
    2739      28    2733    2739      29    2754    2757      28    2751    2757
      29    2772    2775      28    2769    2775      29    2790    2793      28
    2787    2793      29    2808    2811      28    2805    2811      29    2826
    2829      28    2823    2829      29    2844    2847      28    2841    2847
      29    2862    2865      28    2859    2865      29    2880    2883      28
    2877    2883      29    2898    2901      28    2895    2901      29    2916
    2919      28    2913    2919      29    2934    2937      28    2931    2937
      29    2952    2955      28    2949    2955      29    2970    2973      28
    2967    2973      29    2988    2991      28    2985    2991      29    3006
    3009      28    3003    3009      29    3024    3027      28    3021    3027
      29    3042    3045      28    3039    3045      29    3060    3063      28
    3057    3063      29    3078    3081      28    3075    3081      29    3096
    3099      28    3093    3099      29    3114    3117      28    3111    3117
      29    3132    3135      28    3129    3135      29    3150    3153      28
    3147    3153      29    3168    3171      28    3165    3171      29    3186
    3189      28    3183    3189      29    3204    3207      28    3201    3207
      29    3222    3225      28    3219    3225      29    3240    3243      28
    3237    3243      29    3258    3261      28    3255    3261      29    3276
    3279      28    3273    3279      29    3294    3297      28    3291    3297
      29    3312    3315      28    3309    3315      29    3330    3333      28
    3327    3333      29    3348    3351      28    3345    3351      29    3366
    3369      28    3363    3369      29    3384    3387      28    3381    3387
      29    3402    3405      28    3399    3405      29    3420    3423      28
    3417    3423      29    3438    3441      28    3435    3441      29    3456
    3459      28    3453    3459      29    3474    3477      28    3471    3477
      29    3492    3495      28    3489    3495      29    3510    3513      28
    3507    3513      29    3528    3531      28    3525    3531      29    3546
    3549      28    3543    3549      29    3564    3567      28    3561    3567
      29    3582    3585      28    3579    3585      29    3600    3603      28
    3597    3603      29    3618    3621      28    3615    3621      29    3636
    3639      28    3633    3639      29    3654    3657      28    3651    3657
      29    3672    3675      28    3669    3675      29    3690    3693      28
    3687    3693      29    3708    3711      28    3705    3711      29    3726
    3729      28    3723    3729      29    3744    3747      28    3741    3747
      29    3762    3765      28    3759    3765      29    3780    3783      28
    3777    3783      29    3798    3801      28    3795    3801      29    3816
    3819      28    3813    3819      29    3834    3837      28    3831    3837
      29    3852    3855      28    3849    3855      29    3870    3873      28
    3867    3873      29    3888    3891      28    3885    3891      29    3906
    3909      28    3903    3909      29    3924    3927      28    3921    3927
      29    3942    3945      28    3939    3945      29    3960    3963      28
    3957    3963      29    3978    3981      28    3975    3981      29    3996
    3999      28    3993    3999      29    4014    4017      28    4011    4017
      29    4032    4035      28    4029    4035      29    4050    4053      28
    4047    4053      29    4068    4071      28    4065    4071      29    4086
    4089      28    4083    4089      29    4104    4107      28    4101    4107
      29    4122    4125      28    4119    4125      29    4140    4143      28
    4137    4143      29    4158    4161      28    4155    4161      29    4176
    4179      28    4173    4179      29    4194    4197      28    4191    4197
      29    4212    4215      28    4209    4215      29    4230    4233      28
    4227    4233      29    4248    4251      28    4245    4251      29    4266
    4269      28    4263    4269      29    4284    4287      28    4281    4287
      29    4302    4305      28    4299    4305      29    4320    4323      28
    4317    4323      29    4338    4341      28    4335    4341      29    4356
    4359      28    4353    4359      29    4374    4377      28    4371    4377
      29    4392    4395      28    4389    4395      29    4410    4413      28
    4407    4413      29    4428    4431      28    4425    4431      29    4446
    4449      28    4443    4449      29    4464    4467      28    4461    4467
      29    4482    4485      28    4479    4485      29    4500    4503      28
    4497    4503      29    4518    4521      28    4515    4521      29    4536
    4539      28    4533    4539      29    4554    4557      28    4551    4557
      29    4572    4575      28    4569    4575      29    4590    4593      28
    4587    4593      29    4608    4611      28    4605    4611      29    4626
    4629      28    4623    4629      29    4644    4647      28    4641    4647
      29    4662    4665      28    4659    4665      29    4680    4683      28
    4677    4683      29    4698    4701      28    4695    4701      29    4716
    4719      28    4713    4719      29    4734    4737      28    4731    4737
      29    4752    4755      28    4749    4755      29    4770    4773      28
    4767    4773      29    4788    4791      28    4785    4791      29    4806
    4809      28    4803    4809      29    4824    4827      28    4821    4827
      29    4842    4845      28    4839    4845      29    4860    4863      28
    4857    4863      29    4878    4881      28    4875    4881      29    4896
    4899      28    4893    4899      29    4914    4917      28    4911    4917
      29    4932    4935      28    4929    4935      29    4950    4953      28
    4947    4953      29    4968    4971      28    4965    4971      29    4986
    4989      28    4983    4989      29    5004    5007      28    5001    5007
      29    5022    5025      28    5019    5025      29    5040    5043      28
    5037    5043      29    5058    5061      28    5055    5061      29    5076
    5079      28    5073    5079      29    5094    5097      28    5091    5097
      29    5112    5115      28    5109    5115      29    5130    5133      28
    5127    5133      29    5148    5151      28    5145    5151      29    5166
    5169      28    5163    5169      29    5184    5187      28    5181    5187
      29    5202    5205      28    5199    5205      29    5220    5223      28
    5217    5223      29    5238    5241      28    5235    5241      29    5256
    5259      28    5253    5259      29    5274    5277      28    5271    5277
      29    5292    5295      28    5289    5295      29    5310    5313      28
    5307    5313      29    5328    5331      28    5325    5331      29    5346
    5349      28    5343    5349      29    5364    5367      28    5361    5367
      29    5382    5385      28    5379    5385      29    5400    5403      28
    5397    5403      29    5418    5421      28    5415    5421      29    5436
    5439      28    5433    5439      29    5454    5457      28    5451    5457
      29    5472    5475      28    5469    5475      29    5490    5493      28
    5487    5493      29    5508    5511      28    5505    5511      29    5526
    5529      28    5523    5529      29    5544    5547      28    5541    5547
      29    5562    5565      28    5559    5565      29    5580    5583      28
    5577    5583      29    5598    5601      28    5595    5601      29    5616
    5619      28    5613    5619      29    5634    5637      28    5631    5637
      29    5652    5655      28    5649    5655      29    5670    5673      28
    5667    5673      29    5688    5691      28    5685    5691      29    5706
    5709      28    5703    5709      29    5724    5727      28    5721    5727
      29    5742    5745      28    5739    5745      29    5760    5763      28
    5757    5763      29    5778    5781      28    5775    5781      29    5796
    5799      28    5793    5799      29    5814    5817      28    5811    5817
      29    5832    5835      28    5829    5835      29    5850    5853      28
    5847    5853      29    5868    5871      28    5865    5871      29    5886
    5889      28    5883    5889      29    5904    5907      28    5901    5907
      29    5922    5925      28    5919    5925      29    5940    5943      28
    5937    5943      29    5958    5961      28    5955    5961      29    5976
    5979      28    5973    5979      29    5994    5997      28    5991    5997
      29    6012    6015      28    6009    6015      29    6030    6033      28
    6027    6033      29    6048    6051      28    6045    6051      29    6066
    6069      28    6063    6069      29    6084    6087      28    6081    6087
      29    6102    6105      28    6099    6105      29    6120    6123      28
    6117    6123      29    6138    6141      28    6135    6141      29    6156
    6159      28    6153    6159      29    6174    6177      28    6171    6177
      29    6192    6195      28    6189    6195      29    6210    6213      28
    6207    6213      29    6228    6231      28    6225    6231      29    6246
    6249      28    6243    6249      29    6264    6267      28    6261    6267
      29    6282    6285      28    6279    6285      29    6300    6303      28
    6297    6303      29    6318    6321      28    6315    6321      29    6336
    6339      28    6333    6339      29    6354    6357      28    6351    6357
      29    6372    6375      28    6369    6375      29    6390    6393      28
    6387    6393      29    6408    6411      28    6405    6411      29    6426
    6429      28    6423    6429      29    6444    6447      28    6441    6447
      29    6462    6465      28    6459    6465      29    6480    6483      28
    6477    6483      29    6498    6501      28    6495    6501      29    6516
    6519      28    6513    6519      29    6534    6537      28    6531    6537
      29    6552    6555      28    6549    6555      29    6570    6573      28
    6567    6573      29    6588    6591      28    6585    6591      29    6606
    6609      28    6603    6609      29    6624    6627      28    6621    6627
      29    6642    6645      28    6639    6645      29    6660    6663      28
    6657    6663      29    6678    6681      28    6675    6681      29    6696
    6699      28    6693    6699      29    6714    6717      28    6711    6717
      29    6732    6735      28    6729    6735      29    6750    6753      28
    6747    6753      29    6768    6771      28    6765    6771      29    6786
    6789      28    6783    6789      29    6804    6807      28    6801    6807
      29    6822    6825      28    6819    6825      29    6840    6843      28
    6837    6843      29    6858    6861      28    6855    6861      29    6876
    6879      28    6873    6879      29    6894    6897      28    6891    6897
      29    6912    6915      28    6909    6915      29    6930    6933      28
    6927    6933      29    6948    6951      28    6945    6951      29    6966
    6969      28    6963    6969      29    6984    6987      28    6981    6987
      29    7002    7005      28    6999    7005      29    7020    7023      28
    7017    7023      29    7038    7041      28    7035    7041      29    7056
    7059      28    7053    7059      29    7074    7077      28    7071    7077
      29    7092    7095      28    7089    7095      29    7110    7113      28
    7107    7113      29    7128    7131      28    7125    7131      29    7146
    7149      28    7143    7149      29    7164    7167      28    7161    7167
      29    7182    7185      28    7179    7185      29    7200    7203      28
    7197    7203      29    7218    7221      28    7215    7221      29    7236
    7239      28    7233    7239      29    7254    7257      28    7251    7257
      29    7272    7275      28    7269    7275      29    7290    7293      28
    7287    7293      29    7308    7311      28    7305    7311      29    7326
    7329      28    7323    7329      29    7344    7347      28    7341    7347
      29    7362    7365      28    7359    7365      29    7380    7383      28
    7377    7383      29    7398    7401      28    7395    7401      29    7416
    7419      28    7413    7419      29    7434    7437      28    7431    7437
      29    7452    7455      28    7449    7455      29    7470    7473      28
    7467    7473      29    7488    7491      28    7485    7491      29    7506
    7509      28    7503    7509      29    7524    7527      28    7521    7527
      29    7542    7545      28    7539    7545      29    7560    7563      28
    7557    7563      29    7578    7581      28    7575    7581      29    7596
    7599      28    7593    7599      29    7614    7617      28    7611    7617
      29    7632    7635      28    7629    7635      29    7650    7653      28
    7647    7653      29    7668    7671      28    7665    7671      29    7686
    7689      28    7683    7689      29    7704    7707      28    7701    7707
      29    7722    7725      28    7719    7725      29    7740    7743      28
    7737    7743      29    7758    7761      28    7755    7761      29    7776
    7779      28    7773    7779      29    7794    7797      28    7791    7797
      29    7812    7815      28    7809    7815      29    7830    7833      28
    7827    7833      29    7848    7851      28    7845    7851      29    7866
    7869      28    7863    7869      29    7884    7887      28    7881    7887
      29    7902    7905      28    7899    7905      29    7920    7923      28
    7917    7923      29    7938    7941      28    7935    7941      29    7956
    7959      28    7953    7959      29    7974    7977      28    7971    7977
      29    7992    7995      28    7989    7995      29    8010    8013      28
    8007    8013      29    8028    8031      28    8025    8031      29    8046
    8049      28    8043    8049      29    8064    8067      28    8061    8067
      29    8082    8085      28    8079    8085      29    8100    8103      28
    8097    8103      29    8118    8121      28    8115    8121      29    8136
    8139      28    8133    8139      29    8154    8157      28    8151    8157
      29    8172    8175      28    8169    8175      29    8190    8193      28
    8187    8193      29    8208    8211      28    8205    8211      29    8226
    8229      28    8223    8229      29    8244    8247      28    8241    8247
      29    8262    8265      28    8259    8265      29    8280    8283      28
    8277    8283      29    8298    8301      28    8295    8301      29    8316
    8319      28    8313    8319      29    8334    8337      28    8331    8337
      29    8352    8355      28    8349    8355      29    8370    8373      28
    8367    8373      29    8388    8391      28    8385    8391      29    8406
    8409      28    8403    8409      29    8424    8427      28    8421    8427
      29    8442    8445      28    8439    8445      29    8460    8463      28
    8457    8463      29    8478    8481      28    8475    8481      29    8496
    8499      28    8493    8499      29    8514    8517      28    8511    8517
      29    8532    8535      28    8529    8535      29    8550    8553      28
    8547    8553      29    8568    8571      28    8565    8571      29    8586
    8589      28    8583    8589      29    8604    8607      28    8601    8607
      29    8622    8625      28    8619    8625      29    8640    8643      28
    8637    8643      29    8658    8661      28    8655    8661      29    8676
    8679      28    8673    8679      29    8694    8697      28    8691    8697
      29    8712    8715      28    8709    8715      29    8730    8733      28
    8727    8733      29    8748    8751      28    8745    8751      29    8766
    8769      28    8763    8769      29    8784    8787      28    8781    8787
      29    8802    8805      28    8799    8805      29    8820    8823      28
    8817    8823      29    8838    8841      28    8835    8841      29    8856
    8859      28    8853    8859      29    8874    8877      28    8871    8877
      29    8892    8895      28    8889    8895      29    8910    8913      28
    8907    8913      29    8928    8931      28    8925    8931      29    8946
    8949      28    8943    8949      29    8964    8967      28    8961    8967
      29    8982    8985      28    8979    8985      29    9000    9003      28
    8997    9003      29    9018    9021      28    9015    9021      29    9036
    9039      28    9033    9039      29    9054    9057      28    9051    9057
      29    9072    9075      28    9069    9075      29    9090    9093      28
    9087    9093      29    9108    9111      28    9105    9111      29    9126
    9129      28    9123    9129      29    9144    9147      28    9141    9147
      29    9162    9165      28    9159    9165      29    9180    9183      28
    9177    9183      29    9198    9201      28    9195    9201      29    9216
    9219      28    9213    9219      29    9234    9237      28    9231    9237
      29    9252    9255      28    9249    9255      29    9270    9273      28
    9267    9273      29    9288    9291      28    9285    9291      29    9306
    9309      28    9303    9309      29    9324    9327      28    9321    9327
      29    9342    9345      28    9339    9345      29    9360    9363      28
    9357    9363      29    9378    9381      28    9375    9381      29    9396
    9399      28    9393    9399      29    9414    9417      28    9411    9417
      29    9432    9435      28    9429    9435      29    9450    9453      28
    9447    9453      29    9468    9471      28    9465    9471      29    9486
    9489      28    9483    9489      29    9504    9507      28    9501    9507
      29    9522    9525      28    9519    9525      29    9540    9543      28
    9537    9543      29    9558    9561      28    9555    9561      29    9576
    9579      28    9573    9579      29    9594    9597      28    9591    9597
      29    9612    9615      28    9609    9615      29    9630    9633      28
    9627    9633      29    9648    9651      28    9645    9651      29    9666
    9669      28    9663    9669      29    9684    9687      28    9681    9687
      29    9702    9705      28    9699    9705      29    9720    9723      28
    9717    9723      29    9738    9741      28    9735    9741      29    9756
    9759      28    9753    9759      29    9774    9777      28    9771    9777
      29    9792    9795      28    9789    9795      29    9810    9813      28
    9807    9813      29    9828    9831      28    9825    9831      29    9846
    9849      28    9843    9849      29    9864    9867      28    9861    9867
      29    9882    9885      28    9879    9885      29    9900    9903      28
    9897    9903      29    9918    9921      28    9915    9921      29    9936
    9939      28    9933    9939      29    9954    9957      28    9951    9957
      29    9972    9975      28    9969    9975      29    9990    9993      28
    9987    9993      29   10008   10011      28   10005   10011      29   10026
   10029      28   10023   10029      29   10044   10047      28   10041   10047
      29   10062   10065      28   10059   10065      29   10080   10083      28
   10077   10083      29   10098   10101      28   10095   10101      29   10116
   10119      28   10113   10119      29   10134   10137      28   10131   10137
      29   10152   10155      28   10149   10155      29   10170   10173      28
   10167   10173      29   10188   10191      28   10185   10191      29   10206
   10209      28   10203   10209      29   10224   10227      28   10221   10227
      29   10242   10245      28   10239   10245      29   10260   10263      28
   10257   10263      29   10278   10281      28   10275   10281      29   10296
   10299      28   10293   10299      29   10314   10317      28   10311   10317
      29   10332   10335      28   10329   10335      29   10350   10353      28
   10347   10353      29   10368   10371      28   10365   10371      29   10386
   10389      28   10383   10389      29   10404   10407      28   10401   10407
      29   10422   10425      28   10419   10425      29   10440   10443      28
   10437   10443      29   10458   10461      28   10455   10461      29   10476
   10479      28   10473   10479      29   10494   10497      28   10491   10497
      29   10512   10515      28   10509   10515      29   10530   10533      28
   10527   10533      29   10548   10551      28   10545   10551      29   10566
   10569      28   10563   10569      29   10584   10587      28   10581   10587
      29   10602   10605      28   10599   10605      29   10620   10623      28
   10617   10623      29   10638   10641      28   10635   10641      29   10656
   10659      28   10653   10659      29   10674   10677      28   10671   10677
      29   10692   10695      28   10689   10695      29   10710   10713      28
   10707   10713      29   10728   10731      28   10725   10731      29   10746
   10749      28   10743   10749      29   10764   10767      28   10761   10767
      29   10782   10785      28   10779   10785      29   10800   10803      28
   10797   10803      29   10818   10821      28   10815   10821      29   10836
   10839      28   10833   10839      29   10854   10857      28   10851   10857
      29   10872   10875      28   10869   10875      29   10890   10893      28
   10887   10893      29   10908   10911      28   10905   10911      29   10926
   10929      28   10923   10929      29   10944   10947      28   10941   10947
      29   10962   10965      28   10959   10965      29   10980   10983      28
   10977   10983      29   10998   11001      28   10995   11001      29   11016
   11019      28   11013   11019      29   11034   11037      28   11031   11037
      29   11052   11055      28   11049   11055      29   11070   11073      28
   11067   11073      29   11088   11091      28   11085   11091      29   11106
   11109      28   11103   11109      29   11124   11127      28   11121   11127
      29   11142   11145      28   11139   11145      29   11160   11163      28
   11157   11163      29   11178   11181      28   11175   11181      29   11196
   11199      28   11193   11199      29   11214   11217      28   11211   11217
      29   11232   11235      28   11229   11235      29   11250   11253      28
   11247   11253      29   11268   11271      28   11265   11271      29   11286
   11289      28   11283   11289      29   11304   11307      28   11301   11307
      29   11322   11325      28   11319   11325      29   11340   11343      28
   11337   11343      29   11358   11361      28   11355   11361      29   11376
   11379      28   11373   11379      29   11394   11397      28   11391   11397
      29   11412   11415      28   11409   11415      29   11430   11433      28
   11427   11433      29   11448   11451      28   11445   11451      29   11466
   11469      28   11463   11469      29   11484   11487      28   11481   11487
      29   11502   11505      28   11499   11505      29   11520   11523      28
   11517   11523      29   11538   11541      28   11535   11541      29   11556
   11559      28   11553   11559      29   11574   11577      28   11571   11577
      29   11592   11595      28   11589   11595      29   11610   11613      28
   11607   11613      29   11628   11631      28   11625   11631      29   11646
   11649      28   11643   11649      29   11664   11667      28   11661   11667
      29   11682   11685      28   11679   11685      29   11700   11703      28
   11697   11703      29   11718   11721      28   11715   11721      29   11736
   11739      28   11733   11739      29   11754   11757      28   11751   11757
      29   11772   11775      28   11769   11775      29   11790   11793      28
   11787   11793      29   11808   11811      28   11805   11811      29   11826
   11829      28   11823   11829      29   11844   11847      28   11841   11847
      29   11862   11865      28   11859   11865      29   11880   11883      28
   11877   11883      29   11898   11901      28   11895   11901      29   11916
   11919      28   11913   11919      29   11934   11937      28   11931   11937
      29   11952   11955      28   11949   11955      29   11970   11973      28
   11967   11973      29   11988   11991      28   11985   11991      29   12006
   12009      28   12003   12009      29   12024   12027      28   12021   12027
      29   12042   12045      28   12039   12045      29   12060   12063      28
   12057   12063      29   12078   12081      28   12075   12081      29   12096
   12099      28   12093   12099      29   12114   12117      28   12111   12117
      29   12132   12135      28   12129   12135      29   12150   12153      28
   12147   12153      29   12168   12171      28   12165   12171      29   12186
   12189      28   12183   12189      29   12204   12207      28   12201   12207
      29   12222   12225      28   12219   12225      29   12240   12243      28
   12237   12243      29   12258   12261      28   12255   12261      29   12276
   12279      28   12273   12279      29   12294   12297      28   12291   12297
      29   12312   12315      28   12309   12315      29   12330   12333      28
   12327   12333      29   12348   12351      28   12345   12351      29   12366
   12369      28   12363   12369      29   12384   12387      28   12381   12387
      29   12402   12405      28   12399   12405      29   12420   12423      28
   12417   12423      29   12438   12441      28   12435   12441      29   12456
   12459      28   12453   12459      29   12474   12477      28   12471   12477
      29   12492   12495      28   12489   12495      29   12510   12513      28
   12507   12513      29   12528   12531      28   12525   12531      29   12546
   12549      28   12543   12549      29   12564   12567      28   12561   12567
      29   12582   12585      28   12579   12585      29   12600   12603      28
   12597   12603      29   12618   12621      28   12615   12621      29   12636
   12639      28   12633   12639      29   12654   12657      28   12651   12657
      29   12672   12675      28   12669   12675      29   12690   12693      28
   12687   12693      29   12708   12711      28   12705   12711      29   12726
   12729      28   12723   12729      29   12744   12747      28   12741   12747
      29   12762   12765      28   12759   12765      29   12780   12783      28
   12777   12783      29   12798   12801      28   12795   12801      29   12816
   12819      28   12813   12819      29   12834   12837      28   12831   12837
      29   12852   12855      28   12849   12855      29   12870   12873      28
   12867   12873      29   12888   12891      28   12885   12891      29   12906
   12909      28   12903   12909      29   12924   12927      28   12921   12927
      29   12942   12945      28   12939   12945      29   12960   12963      28
   12957   12963      29   12978   12981      28   12975   12981      29   12996
   12999      28   12993   12999      29   13014   13017      28   13011   13017
      29   13032   13035      28   13029   13035      29   13050   13053      28
   13047   13053      29   13068   13071      28   13065   13071      29   13086
   13089      28   13083   13089      29   13104   13107      28   13101   13107
      29   13122   13125      28   13119   13125      29   13140   13143      28
   13137   13143      29   13158   13161      28   13155   13161      29   13176
   13179      28   13173   13179      29   13194   13197      28   13191   13197
      29   13212   13215      28   13209   13215      29   13230   13233      28
   13227   13233      29   13248   13251      28   13245   13251      29   13266
   13269      28   13263   13269      29   13284   13287      28   13281   13287
      29   13302   13305      28   13299   13305      29   13320   13323      28
   13317   13323      29   13338   13341      28   13335   13341      29   13356
   13359      28   13353   13359      29   13374   13377      28   13371   13377
      29   13392   13395      28   13389   13395      29   13410   13413      28
   13407   13413      29   13428   13431      28   13425   13431      29   13446
   13449      28   13443   13449      29   13464   13467      28   13461   13467
      29   13482   13485      28   13479   13485      29   13500   13503      28
   13497   13503      29   13518   13521      28   13515   13521      29   13536
   13539      28   13533   13539      29   13554   13557      28   13551   13557
      29   13572   13575      28   13569   13575      29   13590   13593      28
   13587   13593      29   13608   13611      28   13605   13611      29   13626
   13629      28   13623   13629      29   13644   13647      28   13641   13647
      29   13662   13665      28   13659   13665      29   13680   13683      28
   13677   13683      29   13698   13701      28   13695   13701      29   13716
   13719      28   13713   13719      29   13734   13737      28   13731   13737
      29   13752   13755      28   13749   13755      29   13770   13773      28
   13767   13773      29   13788   13791      28   13785   13791      29   13806
   13809      28   13803   13809      29   13824   13827      28   13821   13827
      29   13842   13845      28   13839   13845      29   13860   13863      28
   13857   13863      29   13878   13881      28   13875   13881      29   13896
   13899      28   13893   13899      29   13914   13917      28   13911   13917
      29   13932   13935      28   13929   13935      29   13950   13953      28
   13947   13953      29   13968   13971      28   13965   13971      29   13986
   13989      28   13983   13989      29   14004   14007      28   14001   14007
      29   14022   14025      28   14019   14025      29   14040   14043      28
   14037   14043      29   14058   14061      28   14055   14061      29   14076
   14079      28   14073   14079      29   14094   14097      28   14091   14097
      29   14112   14115      28   14109   14115      29   14130   14133      28
   14127   14133      29   14148   14151      28   14145   14151      29   14166
   14169      28   14163   14169      29   14184   14187      28   14181   14187
      29   14202   14205      28   14199   14205      29   14220   14223      28
   14217   14223      29   14238   14241      28   14235   14241      29   14256
   14259      28   14253   14259      29   14274   14277      28   14271   14277
      29   14292   14295      28   14289   14295      29   14310   14313      28
   14307   14313      29   14328   14331      28   14325   14331      29   14346
   14349      28   14343   14349      29   14364   14367      28   14361   14367
      29   14382   14385      28   14379   14385      29   14400   14403      28
   14397   14403      29   14418   14421      28   14415   14421      29   14436
   14439      28   14433   14439      29   14454   14457      28   14451   14457
      29   14472   14475      28   14469   14475      29   14490   14493      28
   14487   14493      29   14508   14511      28   14505   14511      29   14526
   14529      28   14523   14529      29   14544   14547      28   14541   14547
      29   14562   14565      28   14559   14565      29   14580   14583      28
   14577   14583      29   14598   14601      28   14595   14601      29   14616
   14619      28   14613   14619      29   14634   14637      28   14631   14637
      29   14652   14655      28   14649   14655      29   14670   14673      28
   14667   14673      29   14688   14691      28   14685   14691      29   14706
   14709      28   14703   14709      29   14724   14727      28   14721   14727
      29   14742   14745      28   14739   14745      29   14760   14763      28
   14757   14763      29   14778   14781      28   14775   14781      29   14796
   14799      28   14793   14799      29   14814   14817      28   14811   14817
      29   14832   14835      28   14829   14835      29   14850   14853      28
   14847   14853      29   14868   14871      28   14865   14871      29   14886
   14889      28   14883   14889      29   14904   14907      28   14901   14907
      29   14922   14925      28   14919   14925      29   14940   14943      28
   14937   14943      29   14958   14961      28   14955   14961      29   14976
   14979      28   14973   14979      29   14994   14997      28   14991   14997
      29   15012   15015      28   15009   15015      29   15030   15033      28
   15027   15033      29   15048   15051      28   15045   15051      29   15066
   15069      28   15063   15069      29   15084   15087      28   15081   15087
      29   15102   15105      28   15099   15105      29   15120   15123      28
   15117   15123      29   15138   15141      28   15135   15141      29   15156
   15159      28   15153   15159      29   15174   15177      28   15171   15177
      29   15192   15195      28   15189   15195      29   15210   15213      28
   15207   15213      29   15228   15231      28   15225   15231      29   15246
   15249      28   15243   15249      29   15264   15267      28   15261   15267
      29   15282   15285      28   15279   15285      29   15300   15303      28
   15297   15303      29   15318   15321      28   15315   15321      29   15336
   15339      28   15333   15339      29   15354   15357      28   15351   15357
      29   15372   15375      28   15369   15375      29   15390   15393      28
   15387   15393      29   15408   15411      28   15405   15411      29   15426
   15429      28   15423   15429      29   15444   15447      28   15441   15447
      29   15462   15465      28   15459   15465      29   15480   15483      28
   15477   15483      29   15498   15501      28   15495   15501      29   15516
   15519      28   15513   15519      29   15534   15537      28   15531   15537
      29   15552   15555      28   15549   15555      29   15570   15573      28
   15567   15573      29   15588   15591      28   15585   15591      29   15606
   15609      28   15603   15609      29   15624   15627      28   15621   15627
      29   15642   15645      28   15639   15645      29   15660   15663      28
   15657   15663      29   15678   15681      28   15675   15681      29   15696
   15699      28   15693   15699      29   15714   15717      28   15711   15717
      29   15732   15735      28   15729   15735      29   15750   15753      28
   15747   15753      29   15768   15771      28   15765   15771      29   15786
   15789      28   15783   15789      29   15804   15807      28   15801   15807
      29   15822   15825      28   15819   15825      29   15840   15843      28
   15837   15843      29   15858   15861      28   15855   15861      29   15876
   15879      28   15873   15879      29   15894   15897      28   15891   15897
      29   15912   15915      28   15909   15915      29   15930   15933      28
   15927   15933      29   15948   15951      28   15945   15951      29   15966
   15969      28   15963   15969      29   15984   15987      28   15981   15987
      29   16002   16005      28   15999   16005      29   16020   16023      28
   16017   16023      29   16038   16041      28   16035   16041      29   16056
   16059      28   16053   16059      29   16074   16077      28   16071   16077
      29   16092   16095      28   16089   16095      29   16110   16113      28
   16107   16113      29   16128   16131      28   16125   16131      29   16146
   16149      28   16143   16149      29   16164   16167      28   16161   16167
      29   16182   16185      28   16179   16185      29   16200   16203      28
   16197   16203      29   16218   16221      28   16215   16221      29   16236
   16239      28   16233   16239      29   16254   16257      28   16251   16257
      29   16272   16275      28   16269   16275      29   16290   16293      28
   16287   16293      29   16308   16311      28   16305   16311      29   16326
   16329      28   16323   16329      29   16344   16347      28   16341   16347
      29   16362   16365      28   16359   16365      29   16380   16383      28
   16377   16383      29   16398   16401      28   16395   16401      29   16416
   16419      28   16413   16419      29   16434   16437      28   16431   16437
      29   16452   16455      28   16449   16455      29   16470   16473      28
   16467   16473      29   16488   16491      28   16485   16491      29   16506
   16509      28   16503   16509      29   16524   16527      28   16521   16527
      29   16542   16545      28   16539   16545      29   16560   16563      28
   16557   16563      29   16578   16581      28   16575   16581      29   16596
   16599      28   16593   16599      29   16614   16617      28   16611   16617
      29   16632   16635      28   16629   16635      29   16650   16653      28
   16647   16653      29   16668   16671      28   16665   16671      29   16686
   16689      28   16683   16689      29   16704   16707      28   16701   16707
      29   16722   16725      28   16719   16725      29   16740   16743      28
   16737   16743      29   16758   16761      28   16755   16761      29   16776
   16779      28   16773   16779      29
%FLAG ANGLES_INC_HYDROGEN                                                       
%FORMAT(10I8)                                                                   
     216     210     219       2     213     210     216       2     213     210
     219       2     195     189     198       2     192     189     195       2
     192     189     198       2     183      96     186       3     180      96
     183       3     180      96     186       3     177     222     228       4
     165      99     168       2     162      99     165       2     162      99
     168       2     144      42     153       5     141      48     150       5
     138      45     147       5     126      87     129       3     123      87
     126       3     123      87     129       3     117     201     207       4
     108      90     111       2     105      90     108       2     105      90
     111       2      78      75      84       8      78      81     120       8
      75      72     114       8      72      75      84       8      69      90
     105      13      69      90     108      13      69      90     111      13
      69     189     192      13      69     189     195      13      69     189
     198      13      66      81     120       8      63      72     114       8
      60      87     123      18      60      87     126      18      60      87
     129      18      57      54     132      19      54      51     135      24
      51      54     132      24      48      45     138      28      48      45
     147      28      45      42     144      28      45      42     153      28
      45      48     141      28      45      48     150      28      42      45
     138      28      42      45     147      28      39      42     144      33
      39      42     153      33      39      51     135      35      33      30
     156      24      33      48     141      41      33      48     150      41
      30      27     159      42      27      30     156      35      24      96
     180      18      24      96     183      18      24      96     186      18
      21      27     159      47      18      99     162      13      18      99
     165      13      18      99     168      13      18     210     213      13
      18     210     216      13      18     210     219      13      15       0
     174       8      12       9     171       8      12      15     102       8
       6       9     171       8       3       0     174       8       0      15
     102       8     243     234     246       2     240     234     243       2
     240     234     246       2     237     234     240      52     237     234
     243      52     237     234     246      52     261     252     264       2
     258     252     261       2     258     252     264       2     255     252
     258      52     255     252     261      52     255     252     264      52
     279     270     282       2     276     270     279       2     276     270
     282       2     273     270     276      52     273     270     279      52
     273     270     282      52     297     288     300       2     294     288
     297       2     294     288     300       2     291     288     294      52
     291     288     297      52     291     288     300      52     315     306
     318       2     312     306     315       2     312     306     318       2
     309     306     312      52     309     306     315      52     309     306
     318      52     333     324     336       2     330     324     333       2
     330     324     336       2     327     324     330      52     327     324
     333      52     327     324     336      52     351     342     354       2
     348     342     351       2     348     342     354       2     345     342
     348      52     345     342     351      52     345     342     354      52
     369     360     372       2     366     360     369       2     366     360
     372       2     363     360     366      52     363     360     369      52
     363     360     372      52     387     378     390       2     384     378
     387       2     384     378     390       2     381     378     384      52
     381     378     387      52     381     378     390      52     405     396
     408       2     402     396     405       2     402     396     408       2
     399     396     402      52     399     396     405      52     399     396
     408      52     423     414     426       2     420     414     423       2
     420     414     426       2     417     414     420      52     417     414
     423      52     417     414     426      52     441     432     444       2
     438     432     441       2     438     432     444       2     435     432
     438      52     435     432     441      52     435     432     444      52
     459     450     462       2     456     450     459       2     456     450
     462       2     453     450     456      52     453     450     459      52
     453     450     462      52     477     468     480       2     474     468
     477       2     474     468     480       2     471     468     474      52
     471     468     477      52     471     468     480      52     495     486
     498       2     492     486     495       2     492     486     498       2
     489     486     492      52     489     486     495      52     489     486
     498      52     513     504     516       2     510     504     513       2
     510     504     516       2     507     504     510      52     507     504
     513      52     507     504     516      52     531     522     534       2
     528     522     531       2     528     522     534       2     525     522
     528      52     525     522     531      52     525     522     534      52
     549     540     552       2     546     540     549       2     546     540
     552       2     543     540     546      52     543     540     549      52
     543     540     552      52     567     558     570       2     564     558
     567       2     564     558     570       2     561     558     564      52
     561     558     567      52     561     558     570      52     585     576
     588       2     582     576     585       2     582     576     588       2
     579     576     582      52     579     576     585      52     579     576
     588      52     603     594     606       2     600     594     603       2
     600     594     606       2     597     594     600      52     597     594
     603      52     597     594     606      52     621     612     624       2
     618     612     621       2     618     612     624       2     615     612
     618      52     615     612     621      52     615     612     624      52
     639     630     642       2     636     630     639       2     636     630
     642       2     633     630     636      52     633     630     639      52
     633     630     642      52     657     648     660       2     654     648
     657       2     654     648     660       2     651     648     654      52
     651     648     657      52     651     648     660      52     675     666
     678       2     672     666     675       2     672     666     678       2
     669     666     672      52     669     666     675      52     669     666
     678      52     693     684     696       2     690     684     693       2
     690     684     696       2     687     684     690      52     687     684
     693      52     687     684     696      52     711     702     714       2
     708     702     711       2     708     702     714       2     705     702
     708      52     705     702     711      52     705     702     714      52
     729     720     732       2     726     720     729       2     726     720
     732       2     723     720     726      52     723     720     729      52
     723     720     732      52     747     738     750       2     744     738
     747       2     744     738     750       2     741     738     744      52
     741     738     747      52     741     738     750      52     765     756
     768       2     762     756     765       2     762     756     768       2
     759     756     762      52     759     756     765      52     759     756
     768      52     783     774     786       2     780     774     783       2
     780     774     786       2     777     774     780      52     777     774
     783      52     777     774     786      52     801     792     804       2
     798     792     801       2     798     792     804       2     795     792
     798      52     795     792     801      52     795     792     804      52
     819     810     822       2     816     810     819       2     816     810
     822       2     813     810     816      52     813     810     819      52
     813     810     822      52     837     828     840       2     834     828
     837       2     834     828     840       2     831     828     834      52
     831     828     837      52     831     828     840      52     855     846
     858       2     852     846     855       2     852     846     858       2
     849     846     852      52     849     846     855      52     849     846
     858      52     873     864     876       2     870     864     873       2
     870     864     876       2     867     864     870      52     867     864
     873      52     867     864     876      52     891     882     894       2
     888     882     891       2     888     882     894       2     885     882
     888      52     885     882     891      52     885     882     894      52
     909     900     912       2     906     900     909       2     906     900
     912       2     903     900     906      52     903     900     909      52
     903     900     912      52     927     918     930       2     924     918
     927       2     924     918     930       2     921     918     924      52
     921     918     927      52     921     918     930      52     945     936
     948       2     942     936     945       2     942     936     948       2
     939     936     942      52     939     936     945      52     939     936
     948      52     963     954     966       2     960     954     963       2
     960     954     966       2     957     954     960      52     957     954
     963      52     957     954     966      52     981     972     984       2
     978     972     981       2     978     972     984       2     975     972
     978      52     975     972     981      52     975     972     984      52
     999     990    1002       2     996     990     999       2     996     990
    1002       2     993     990     996      52     993     990     999      52
     993     990    1002      52    1017    1008    1020       2    1014    1008
    1017       2    1014    1008    1020       2    1011    1008    1014      52
    1011    1008    1017      52    1011    1008    1020      52    1035    1026
    1038       2    1032    1026    1035       2    1032    1026    1038       2
    1029    1026    1032      52    1029    1026    1035      52    1029    1026
    1038      52    1053    1044    1056       2    1050    1044    1053       2
    1050    1044    1056       2    1047    1044    1050      52    1047    1044
    1053      52    1047    1044    1056      52    1071    1062    1074       2
    1068    1062    1071       2    1068    1062    1074       2    1065    1062
    1068      52    1065    1062    1071      52    1065    1062    1074      52
    1089    1080    1092       2    1086    1080    1089       2    1086    1080
    1092       2    1083    1080    1086      52    1083    1080    1089      52
    1083    1080    1092      52    1107    1098    1110       2    1104    1098
    1107       2    1104    1098    1110       2    1101    1098    1104      52
    1101    1098    1107      52    1101    1098    1110      52    1125    1116
    1128       2    1122    1116    1125       2    1122    1116    1128       2
    1119    1116    1122      52    1119    1116    1125      52    1119    1116
    1128      52    1143    1134    1146       2    1140    1134    1143       2
    1140    1134    1146       2    1137    1134    1140      52    1137    1134
    1143      52    1137    1134    1146      52    1161    1152    1164       2
    1158    1152    1161       2    1158    1152    1164       2    1155    1152
    1158      52    1155    1152    1161      52    1155    1152    1164      52
    1179    1170    1182       2    1176    1170    1179       2    1176    1170
    1182       2    1173    1170    1176      52    1173    1170    1179      52
    1173    1170    1182      52    1197    1188    1200       2    1194    1188
    1197       2    1194    1188    1200       2    1191    1188    1194      52
    1191    1188    1197      52    1191    1188    1200      52    1215    1206
    1218       2    1212    1206    1215       2    1212    1206    1218       2
    1209    1206    1212      52    1209    1206    1215      52    1209    1206
    1218      52    1233    1224    1236       2    1230    1224    1233       2
    1230    1224    1236       2    1227    1224    1230      52    1227    1224
    1233      52    1227    1224    1236      52    1251    1242    1254       2
    1248    1242    1251       2    1248    1242    1254       2    1245    1242
    1248      52    1245    1242    1251      52    1245    1242    1254      52
    1269    1260    1272       2    1266    1260    1269       2    1266    1260
    1272       2    1263    1260    1266      52    1263    1260    1269      52
    1263    1260    1272      52    1287    1278    1290       2    1284    1278
    1287       2    1284    1278    1290       2    1281    1278    1284      52
    1281    1278    1287      52    1281    1278    1290      52    1305    1296
    1308       2    1302    1296    1305       2    1302    1296    1308       2
    1299    1296    1302      52    1299    1296    1305      52    1299    1296
    1308      52    1323    1314    1326       2    1320    1314    1323       2
    1320    1314    1326       2    1317    1314    1320      52    1317    1314
    1323      52    1317    1314    1326      52    1341    1332    1344       2
    1338    1332    1341       2    1338    1332    1344       2    1335    1332
    1338      52    1335    1332    1341      52    1335    1332    1344      52
    1359    1350    1362       2    1356    1350    1359       2    1356    1350
    1362       2    1353    1350    1356      52    1353    1350    1359      52
    1353    1350    1362      52    1377    1368    1380       2    1374    1368
    1377       2    1374    1368    1380       2    1371    1368    1374      52
    1371    1368    1377      52    1371    1368    1380      52    1395    1386
    1398       2    1392    1386    1395       2    1392    1386    1398       2
    1389    1386    1392      52    1389    1386    1395      52    1389    1386
    1398      52    1413    1404    1416       2    1410    1404    1413       2
    1410    1404    1416       2    1407    1404    1410      52    1407    1404
    1413      52    1407    1404    1416      52    1431    1422    1434       2
    1428    1422    1431       2    1428    1422    1434       2    1425    1422
    1428      52    1425    1422    1431      52    1425    1422    1434      52
    1449    1440    1452       2    1446    1440    1449       2    1446    1440
    1452       2    1443    1440    1446      52    1443    1440    1449      52
    1443    1440    1452      52    1467    1458    1470       2    1464    1458
    1467       2    1464    1458    1470       2    1461    1458    1464      52
    1461    1458    1467      52    1461    1458    1470      52    1485    1476
    1488       2    1482    1476    1485       2    1482    1476    1488       2
    1479    1476    1482      52    1479    1476    1485      52    1479    1476
    1488      52    1503    1494    1506       2    1500    1494    1503       2
    1500    1494    1506       2    1497    1494    1500      52    1497    1494
    1503      52    1497    1494    1506      52    1521    1512    1524       2
    1518    1512    1521       2    1518    1512    1524       2    1515    1512
    1518      52    1515    1512    1521      52    1515    1512    1524      52
    1539    1530    1542       2    1536    1530    1539       2    1536    1530
    1542       2    1533    1530    1536      52    1533    1530    1539      52
    1533    1530    1542      52    1557    1548    1560       2    1554    1548
    1557       2    1554    1548    1560       2    1551    1548    1554      52
    1551    1548    1557      52    1551    1548    1560      52    1575    1566
    1578       2    1572    1566    1575       2    1572    1566    1578       2
    1569    1566    1572      52    1569    1566    1575      52    1569    1566
    1578      52    1593    1584    1596       2    1590    1584    1593       2
    1590    1584    1596       2    1587    1584    1590      52    1587    1584
    1593      52    1587    1584    1596      52    1611    1602    1614       2
    1608    1602    1611       2    1608    1602    1614       2    1605    1602
    1608      52    1605    1602    1611      52    1605    1602    1614      52
    1629    1620    1632       2    1626    1620    1629       2    1626    1620
    1632       2    1623    1620    1626      52    1623    1620    1629      52
    1623    1620    1632      52    1647    1638    1650       2    1644    1638
    1647       2    1644    1638    1650       2    1641    1638    1644      52
    1641    1638    1647      52    1641    1638    1650      52    1665    1656
    1668       2    1662    1656    1665       2    1662    1656    1668       2
    1659    1656    1662      52    1659    1656    1665      52    1659    1656
    1668      52    1683    1674    1686       2    1680    1674    1683       2
    1680    1674    1686       2    1677    1674    1680      52    1677    1674
    1683      52    1677    1674    1686      52    1701    1692    1704       2
    1698    1692    1701       2    1698    1692    1704       2    1695    1692
    1698      52    1695    1692    1701      52    1695    1692    1704      52
    1719    1710    1722       2    1716    1710    1719       2    1716    1710
    1722       2    1713    1710    1716      52    1713    1710    1719      52
    1713    1710    1722      52    1737    1728    1740       2    1734    1728
    1737       2    1734    1728    1740       2    1731    1728    1734      52
    1731    1728    1737      52    1731    1728    1740      52    1755    1746
    1758       2    1752    1746    1755       2    1752    1746    1758       2
    1749    1746    1752      52    1749    1746    1755      52    1749    1746
    1758      52    1773    1764    1776       2    1770    1764    1773       2
    1770    1764    1776       2    1767    1764    1770      52    1767    1764
    1773      52    1767    1764    1776      52    1791    1782    1794       2
    1788    1782    1791       2    1788    1782    1794       2    1785    1782
    1788      52    1785    1782    1791      52    1785    1782    1794      52
    1809    1800    1812       2    1806    1800    1809       2    1806    1800
    1812       2    1803    1800    1806      52    1803    1800    1809      52
    1803    1800    1812      52    1827    1818    1830       2    1824    1818
    1827       2    1824    1818    1830       2    1821    1818    1824      52
    1821    1818    1827      52    1821    1818    1830      52    1845    1836
    1848       2    1842    1836    1845       2    1842    1836    1848       2
    1839    1836    1842      52    1839    1836    1845      52    1839    1836
    1848      52    1863    1854    1866       2    1860    1854    1863       2
    1860    1854    1866       2    1857    1854    1860      52    1857    1854
    1863      52    1857    1854    1866      52    1881    1872    1884       2
    1878    1872    1881       2    1878    1872    1884       2    1875    1872
    1878      52    1875    1872    1881      52    1875    1872    1884      52
    1899    1890    1902       2    1896    1890    1899       2    1896    1890
    1902       2    1893    1890    1896      52    1893    1890    1899      52
    1893    1890    1902      52    1917    1908    1920       2    1914    1908
    1917       2    1914    1908    1920       2    1911    1908    1914      52
    1911    1908    1917      52    1911    1908    1920      52    1935    1926
    1938       2    1932    1926    1935       2    1932    1926    1938       2
    1929    1926    1932      52    1929    1926    1935      52    1929    1926
    1938      52    1953    1944    1956       2    1950    1944    1953       2
    1950    1944    1956       2    1947    1944    1950      52    1947    1944
    1953      52    1947    1944    1956      52    1971    1962    1974       2
    1968    1962    1971       2    1968    1962    1974       2    1965    1962
    1968      52    1965    1962    1971      52    1965    1962    1974      52
    1989    1980    1992       2    1986    1980    1989       2    1986    1980
    1992       2    1983    1980    1986      52    1983    1980    1989      52
    1983    1980    1992      52    2007    1998    2010       2    2004    1998
    2007       2    2004    1998    2010       2    2001    1998    2004      52
    2001    1998    2007      52    2001    1998    2010      52    2025    2016
    2028       2    2022    2016    2025       2    2022    2016    2028       2
    2019    2016    2022      52    2019    2016    2025      52    2019    2016
    2028      52    2043    2034    2046       2    2040    2034    2043       2
    2040    2034    2046       2    2037    2034    2040      52    2037    2034
    2043      52    2037    2034    2046      52    2061    2052    2064       2
    2058    2052    2061       2    2058    2052    2064       2    2055    2052
    2058      52    2055    2052    2061      52    2055    2052    2064      52
    2079    2070    2082       2    2076    2070    2079       2    2076    2070
    2082       2    2073    2070    2076      52    2073    2070    2079      52
    2073    2070    2082      52    2097    2088    2100       2    2094    2088
    2097       2    2094    2088    2100       2    2091    2088    2094      52
    2091    2088    2097      52    2091    2088    2100      52    2115    2106
    2118       2    2112    2106    2115       2    2112    2106    2118       2
    2109    2106    2112      52    2109    2106    2115      52    2109    2106
    2118      52    2133    2124    2136       2    2130    2124    2133       2
    2130    2124    2136       2    2127    2124    2130      52    2127    2124
    2133      52    2127    2124    2136      52    2151    2142    2154       2
    2148    2142    2151       2    2148    2142    2154       2    2145    2142
    2148      52    2145    2142    2151      52    2145    2142    2154      52
    2169    2160    2172       2    2166    2160    2169       2    2166    2160
    2172       2    2163    2160    2166      52    2163    2160    2169      52
    2163    2160    2172      52    2187    2178    2190       2    2184    2178
    2187       2    2184    2178    2190       2    2181    2178    2184      52
    2181    2178    2187      52    2181    2178    2190      52    2205    2196
    2208       2    2202    2196    2205       2    2202    2196    2208       2
    2199    2196    2202      52    2199    2196    2205      52    2199    2196
    2208      52    2223    2214    2226       2    2220    2214    2223       2
    2220    2214    2226       2    2217    2214    2220      52    2217    2214
    2223      52    2217    2214    2226      52    2241    2232    2244       2
    2238    2232    2241       2    2238    2232    2244       2    2235    2232
    2238      52    2235    2232    2241      52    2235    2232    2244      52
    2259    2250    2262       2    2256    2250    2259       2    2256    2250
    2262       2    2253    2250    2256      52    2253    2250    2259      52
    2253    2250    2262      52    2277    2268    2280       2    2274    2268
    2277       2    2274    2268    2280       2    2271    2268    2274      52
    2271    2268    2277      52    2271    2268    2280      52    2295    2286
    2298       2    2292    2286    2295       2    2292    2286    2298       2
    2289    2286    2292      52    2289    2286    2295      52    2289    2286
    2298      52    2313    2304    2316       2    2310    2304    2313       2
    2310    2304    2316       2    2307    2304    2310      52    2307    2304
    2313      52    2307    2304    2316      52    2331    2322    2334       2
    2328    2322    2331       2    2328    2322    2334       2    2325    2322
    2328      52    2325    2322    2331      52    2325    2322    2334      52
    2349    2340    2352       2    2346    2340    2349       2    2346    2340
    2352       2    2343    2340    2346      52    2343    2340    2349      52
    2343    2340    2352      52    2367    2358    2370       2    2364    2358
    2367       2    2364    2358    2370       2    2361    2358    2364      52
    2361    2358    2367      52    2361    2358    2370      52    2385    2376
    2388       2    2382    2376    2385       2    2382    2376    2388       2
    2379    2376    2382      52    2379    2376    2385      52    2379    2376
    2388      52    2403    2394    2406       2    2400    2394    2403       2
    2400    2394    2406       2    2397    2394    2400      52    2397    2394
    2403      52    2397    2394    2406      52    2421    2412    2424       2
    2418    2412    2421       2    2418    2412    2424       2    2415    2412
    2418      52    2415    2412    2421      52    2415    2412    2424      52
    2439    2430    2442       2    2436    2430    2439       2    2436    2430
    2442       2    2433    2430    2436      52    2433    2430    2439      52
    2433    2430    2442      52    2457    2448    2460       2    2454    2448
    2457       2    2454    2448    2460       2    2451    2448    2454      52
    2451    2448    2457      52    2451    2448    2460      52    2475    2466
    2478       2    2472    2466    2475       2    2472    2466    2478       2
    2469    2466    2472      52    2469    2466    2475      52    2469    2466
    2478      52    2493    2484    2496       2    2490    2484    2493       2
    2490    2484    2496       2    2487    2484    2490      52    2487    2484
    2493      52    2487    2484    2496      52    2511    2502    2514       2
    2508    2502    2511       2    2508    2502    2514       2    2505    2502
    2508      52    2505    2502    2511      52    2505    2502    2514      52
    2529    2520    2532       2    2526    2520    2529       2    2526    2520
    2532       2    2523    2520    2526      52    2523    2520    2529      52
    2523    2520    2532      52    2547    2538    2550       2    2544    2538
    2547       2    2544    2538    2550       2    2541    2538    2544      52
    2541    2538    2547      52    2541    2538    2550      52    2565    2556
    2568       2    2562    2556    2565       2    2562    2556    2568       2
    2559    2556    2562      52    2559    2556    2565      52    2559    2556
    2568      52    2583    2574    2586       2    2580    2574    2583       2
    2580    2574    2586       2    2577    2574    2580      52    2577    2574
    2583      52    2577    2574    2586      52    2601    2592    2604       2
    2598    2592    2601       2    2598    2592    2604       2    2595    2592
    2598      52    2595    2592    2601      52    2595    2592    2604      52
    2619    2610    2622       2    2616    2610    2619       2    2616    2610
    2622       2    2613    2610    2616      52    2613    2610    2619      52
    2613    2610    2622      52    2637    2628    2640       2    2634    2628
    2637       2    2634    2628    2640       2    2631    2628    2634      52
    2631    2628    2637      52    2631    2628    2640      52    2655    2646
    2658       2    2652    2646    2655       2    2652    2646    2658       2
    2649    2646    2652      52    2649    2646    2655      52    2649    2646
    2658      52    2673    2664    2676       2    2670    2664    2673       2
    2670    2664    2676       2    2667    2664    2670      52    2667    2664
    2673      52    2667    2664    2676      52    2691    2682    2694       2
    2688    2682    2691       2    2688    2682    2694       2    2685    2682
    2688      52    2685    2682    2691      52    2685    2682    2694      52
    2709    2700    2712       2    2706    2700    2709       2    2706    2700
    2712       2    2703    2700    2706      52    2703    2700    2709      52
    2703    2700    2712      52    2727    2718    2730       2    2724    2718
    2727       2    2724    2718    2730       2    2721    2718    2724      52
    2721    2718    2727      52    2721    2718    2730      52    2745    2736
    2748       2    2742    2736    2745       2    2742    2736    2748       2
    2739    2736    2742      52    2739    2736    2745      52    2739    2736
    2748      52    2763    2754    2766       2    2760    2754    2763       2
    2760    2754    2766       2    2757    2754    2760      52    2757    2754
    2763      52    2757    2754    2766      52    2781    2772    2784       2
    2778    2772    2781       2    2778    2772    2784       2    2775    2772
    2778      52    2775    2772    2781      52    2775    2772    2784      52
    2799    2790    2802       2    2796    2790    2799       2    2796    2790
    2802       2    2793    2790    2796      52    2793    2790    2799      52
    2793    2790    2802      52    2817    2808    2820       2    2814    2808
    2817       2    2814    2808    2820       2    2811    2808    2814      52
    2811    2808    2817      52    2811    2808    2820      52    2835    2826
    2838       2    2832    2826    2835       2    2832    2826    2838       2
    2829    2826    2832      52    2829    2826    2835      52    2829    2826
    2838      52    2853    2844    2856       2    2850    2844    2853       2
    2850    2844    2856       2    2847    2844    2850      52    2847    2844
    2853      52    2847    2844    2856      52    2871    2862    2874       2
    2868    2862    2871       2    2868    2862    2874       2    2865    2862
    2868      52    2865    2862    2871      52    2865    2862    2874      52
    2889    2880    2892       2    2886    2880    2889       2    2886    2880
    2892       2    2883    2880    2886      52    2883    2880    2889      52
    2883    2880    2892      52    2907    2898    2910       2    2904    2898
    2907       2    2904    2898    2910       2    2901    2898    2904      52
    2901    2898    2907      52    2901    2898    2910      52    2925    2916
    2928       2    2922    2916    2925       2    2922    2916    2928       2
    2919    2916    2922      52    2919    2916    2925      52    2919    2916
    2928      52    2943    2934    2946       2    2940    2934    2943       2
    2940    2934    2946       2    2937    2934    2940      52    2937    2934
    2943      52    2937    2934    2946      52    2961    2952    2964       2
    2958    2952    2961       2    2958    2952    2964       2    2955    2952
    2958      52    2955    2952    2961      52    2955    2952    2964      52
    2979    2970    2982       2    2976    2970    2979       2    2976    2970
    2982       2    2973    2970    2976      52    2973    2970    2979      52
    2973    2970    2982      52    2997    2988    3000       2    2994    2988
    2997       2    2994    2988    3000       2    2991    2988    2994      52
    2991    2988    2997      52    2991    2988    3000      52    3015    3006
    3018       2    3012    3006    3015       2    3012    3006    3018       2
    3009    3006    3012      52    3009    3006    3015      52    3009    3006
    3018      52    3033    3024    3036       2    3030    3024    3033       2
    3030    3024    3036       2    3027    3024    3030      52    3027    3024
    3033      52    3027    3024    3036      52    3051    3042    3054       2
    3048    3042    3051       2    3048    3042    3054       2    3045    3042
    3048      52    3045    3042    3051      52    3045    3042    3054      52
    3069    3060    3072       2    3066    3060    3069       2    3066    3060
    3072       2    3063    3060    3066      52    3063    3060    3069      52
    3063    3060    3072      52    3087    3078    3090       2    3084    3078
    3087       2    3084    3078    3090       2    3081    3078    3084      52
    3081    3078    3087      52    3081    3078    3090      52    3105    3096
    3108       2    3102    3096    3105       2    3102    3096    3108       2
    3099    3096    3102      52    3099    3096    3105      52    3099    3096
    3108      52    3123    3114    3126       2    3120    3114    3123       2
    3120    3114    3126       2    3117    3114    3120      52    3117    3114
    3123      52    3117    3114    3126      52    3141    3132    3144       2
    3138    3132    3141       2    3138    3132    3144       2    3135    3132
    3138      52    3135    3132    3141      52    3135    3132    3144      52
    3159    3150    3162       2    3156    3150    3159       2    3156    3150
    3162       2    3153    3150    3156      52    3153    3150    3159      52
    3153    3150    3162      52    3177    3168    3180       2    3174    3168
    3177       2    3174    3168    3180       2    3171    3168    3174      52
    3171    3168    3177      52    3171    3168    3180      52    3195    3186
    3198       2    3192    3186    3195       2    3192    3186    3198       2
    3189    3186    3192      52    3189    3186    3195      52    3189    3186
    3198      52    3213    3204    3216       2    3210    3204    3213       2
    3210    3204    3216       2    3207    3204    3210      52    3207    3204
    3213      52    3207    3204    3216      52    3231    3222    3234       2
    3228    3222    3231       2    3228    3222    3234       2    3225    3222
    3228      52    3225    3222    3231      52    3225    3222    3234      52
    3249    3240    3252       2    3246    3240    3249       2    3246    3240
    3252       2    3243    3240    3246      52    3243    3240    3249      52
    3243    3240    3252      52    3267    3258    3270       2    3264    3258
    3267       2    3264    3258    3270       2    3261    3258    3264      52
    3261    3258    3267      52    3261    3258    3270      52    3285    3276
    3288       2    3282    3276    3285       2    3282    3276    3288       2
    3279    3276    3282      52    3279    3276    3285      52    3279    3276
    3288      52    3303    3294    3306       2    3300    3294    3303       2
    3300    3294    3306       2    3297    3294    3300      52    3297    3294
    3303      52    3297    3294    3306      52    3321    3312    3324       2
    3318    3312    3321       2    3318    3312    3324       2    3315    3312
    3318      52    3315    3312    3321      52    3315    3312    3324      52
    3339    3330    3342       2    3336    3330    3339       2    3336    3330
    3342       2    3333    3330    3336      52    3333    3330    3339      52
    3333    3330    3342      52    3357    3348    3360       2    3354    3348
    3357       2    3354    3348    3360       2    3351    3348    3354      52
    3351    3348    3357      52    3351    3348    3360      52    3375    3366
    3378       2    3372    3366    3375       2    3372    3366    3378       2
    3369    3366    3372      52    3369    3366    3375      52    3369    3366
    3378      52    3393    3384    3396       2    3390    3384    3393       2
    3390    3384    3396       2    3387    3384    3390      52    3387    3384
    3393      52    3387    3384    3396      52    3411    3402    3414       2
    3408    3402    3411       2    3408    3402    3414       2    3405    3402
    3408      52    3405    3402    3411      52    3405    3402    3414      52
    3429    3420    3432       2    3426    3420    3429       2    3426    3420
    3432       2    3423    3420    3426      52    3423    3420    3429      52
    3423    3420    3432      52    3447    3438    3450       2    3444    3438
    3447       2    3444    3438    3450       2    3441    3438    3444      52
    3441    3438    3447      52    3441    3438    3450      52    3465    3456
    3468       2    3462    3456    3465       2    3462    3456    3468       2
    3459    3456    3462      52    3459    3456    3465      52    3459    3456
    3468      52    3483    3474    3486       2    3480    3474    3483       2
    3480    3474    3486       2    3477    3474    3480      52    3477    3474
    3483      52    3477    3474    3486      52    3501    3492    3504       2
    3498    3492    3501       2    3498    3492    3504       2    3495    3492
    3498      52    3495    3492    3501      52    3495    3492    3504      52
    3519    3510    3522       2    3516    3510    3519       2    3516    3510
    3522       2    3513    3510    3516      52    3513    3510    3519      52
    3513    3510    3522      52    3537    3528    3540       2    3534    3528
    3537       2    3534    3528    3540       2    3531    3528    3534      52
    3531    3528    3537      52    3531    3528    3540      52    3555    3546
    3558       2    3552    3546    3555       2    3552    3546    3558       2
    3549    3546    3552      52    3549    3546    3555      52    3549    3546
    3558      52    3573    3564    3576       2    3570    3564    3573       2
    3570    3564    3576       2    3567    3564    3570      52    3567    3564
    3573      52    3567    3564    3576      52    3591    3582    3594       2
    3588    3582    3591       2    3588    3582    3594       2    3585    3582
    3588      52    3585    3582    3591      52    3585    3582    3594      52
    3609    3600    3612       2    3606    3600    3609       2    3606    3600
    3612       2    3603    3600    3606      52    3603    3600    3609      52
    3603    3600    3612      52    3627    3618    3630       2    3624    3618
    3627       2    3624    3618    3630       2    3621    3618    3624      52
    3621    3618    3627      52    3621    3618    3630      52    3645    3636
    3648       2    3642    3636    3645       2    3642    3636    3648       2
    3639    3636    3642      52    3639    3636    3645      52    3639    3636
    3648      52    3663    3654    3666       2    3660    3654    3663       2
    3660    3654    3666       2    3657    3654    3660      52    3657    3654
    3663      52    3657    3654    3666      52    3681    3672    3684       2
    3678    3672    3681       2    3678    3672    3684       2    3675    3672
    3678      52    3675    3672    3681      52    3675    3672    3684      52
    3699    3690    3702       2    3696    3690    3699       2    3696    3690
    3702       2    3693    3690    3696      52    3693    3690    3699      52
    3693    3690    3702      52    3717    3708    3720       2    3714    3708
    3717       2    3714    3708    3720       2    3711    3708    3714      52
    3711    3708    3717      52    3711    3708    3720      52    3735    3726
    3738       2    3732    3726    3735       2    3732    3726    3738       2
    3729    3726    3732      52    3729    3726    3735      52    3729    3726
    3738      52    3753    3744    3756       2    3750    3744    3753       2
    3750    3744    3756       2    3747    3744    3750      52    3747    3744
    3753      52    3747    3744    3756      52    3771    3762    3774       2
    3768    3762    3771       2    3768    3762    3774       2    3765    3762
    3768      52    3765    3762    3771      52    3765    3762    3774      52
    3789    3780    3792       2    3786    3780    3789       2    3786    3780
    3792       2    3783    3780    3786      52    3783    3780    3789      52
    3783    3780    3792      52    3807    3798    3810       2    3804    3798
    3807       2    3804    3798    3810       2    3801    3798    3804      52
    3801    3798    3807      52    3801    3798    3810      52    3825    3816
    3828       2    3822    3816    3825       2    3822    3816    3828       2
    3819    3816    3822      52    3819    3816    3825      52    3819    3816
    3828      52    3843    3834    3846       2    3840    3834    3843       2
    3840    3834    3846       2    3837    3834    3840      52    3837    3834
    3843      52    3837    3834    3846      52    3861    3852    3864       2
    3858    3852    3861       2    3858    3852    3864       2    3855    3852
    3858      52    3855    3852    3861      52    3855    3852    3864      52
    3879    3870    3882       2    3876    3870    3879       2    3876    3870
    3882       2    3873    3870    3876      52    3873    3870    3879      52
    3873    3870    3882      52    3897    3888    3900       2    3894    3888
    3897       2    3894    3888    3900       2    3891    3888    3894      52
    3891    3888    3897      52    3891    3888    3900      52    3915    3906
    3918       2    3912    3906    3915       2    3912    3906    3918       2
    3909    3906    3912      52    3909    3906    3915      52    3909    3906
    3918      52    3933    3924    3936       2    3930    3924    3933       2
    3930    3924    3936       2    3927    3924    3930      52    3927    3924
    3933      52    3927    3924    3936      52    3951    3942    3954       2
    3948    3942    3951       2    3948    3942    3954       2    3945    3942
    3948      52    3945    3942    3951      52    3945    3942    3954      52
    3969    3960    3972       2    3966    3960    3969       2    3966    3960
    3972       2    3963    3960    3966      52    3963    3960    3969      52
    3963    3960    3972      52    3987    3978    3990       2    3984    3978
    3987       2    3984    3978    3990       2    3981    3978    3984      52
    3981    3978    3987      52    3981    3978    3990      52    4005    3996
    4008       2    4002    3996    4005       2    4002    3996    4008       2
    3999    3996    4002      52    3999    3996    4005      52    3999    3996
    4008      52    4023    4014    4026       2    4020    4014    4023       2
    4020    4014    4026       2    4017    4014    4020      52    4017    4014
    4023      52    4017    4014    4026      52    4041    4032    4044       2
    4038    4032    4041       2    4038    4032    4044       2    4035    4032
    4038      52    4035    4032    4041      52    4035    4032    4044      52
    4059    4050    4062       2    4056    4050    4059       2    4056    4050
    4062       2    4053    4050    4056      52    4053    4050    4059      52
    4053    4050    4062      52    4077    4068    4080       2    4074    4068
    4077       2    4074    4068    4080       2    4071    4068    4074      52
    4071    4068    4077      52    4071    4068    4080      52    4095    4086
    4098       2    4092    4086    4095       2    4092    4086    4098       2
    4089    4086    4092      52    4089    4086    4095      52    4089    4086
    4098      52    4113    4104    4116       2    4110    4104    4113       2
    4110    4104    4116       2    4107    4104    4110      52    4107    4104
    4113      52    4107    4104    4116      52    4131    4122    4134       2
    4128    4122    4131       2    4128    4122    4134       2    4125    4122
    4128      52    4125    4122    4131      52    4125    4122    4134      52
    4149    4140    4152       2    4146    4140    4149       2    4146    4140
    4152       2    4143    4140    4146      52    4143    4140    4149      52
    4143    4140    4152      52    4167    4158    4170       2    4164    4158
    4167       2    4164    4158    4170       2    4161    4158    4164      52
    4161    4158    4167      52    4161    4158    4170      52    4185    4176
    4188       2    4182    4176    4185       2    4182    4176    4188       2
    4179    4176    4182      52    4179    4176    4185      52    4179    4176
    4188      52    4203    4194    4206       2    4200    4194    4203       2
    4200    4194    4206       2    4197    4194    4200      52    4197    4194
    4203      52    4197    4194    4206      52    4221    4212    4224       2
    4218    4212    4221       2    4218    4212    4224       2    4215    4212
    4218      52    4215    4212    4221      52    4215    4212    4224      52
    4239    4230    4242       2    4236    4230    4239       2    4236    4230
    4242       2    4233    4230    4236      52    4233    4230    4239      52
    4233    4230    4242      52    4257    4248    4260       2    4254    4248
    4257       2    4254    4248    4260       2    4251    4248    4254      52
    4251    4248    4257      52    4251    4248    4260      52    4275    4266
    4278       2    4272    4266    4275       2    4272    4266    4278       2
    4269    4266    4272      52    4269    4266    4275      52    4269    4266
    4278      52    4293    4284    4296       2    4290    4284    4293       2
    4290    4284    4296       2    4287    4284    4290      52    4287    4284
    4293      52    4287    4284    4296      52    4311    4302    4314       2
    4308    4302    4311       2    4308    4302    4314       2    4305    4302
    4308      52    4305    4302    4311      52    4305    4302    4314      52
    4329    4320    4332       2    4326    4320    4329       2    4326    4320
    4332       2    4323    4320    4326      52    4323    4320    4329      52
    4323    4320    4332      52    4347    4338    4350       2    4344    4338
    4347       2    4344    4338    4350       2    4341    4338    4344      52
    4341    4338    4347      52    4341    4338    4350      52    4365    4356
    4368       2    4362    4356    4365       2    4362    4356    4368       2
    4359    4356    4362      52    4359    4356    4365      52    4359    4356
    4368      52    4383    4374    4386       2    4380    4374    4383       2
    4380    4374    4386       2    4377    4374    4380      52    4377    4374
    4383      52    4377    4374    4386      52    4401    4392    4404       2
    4398    4392    4401       2    4398    4392    4404       2    4395    4392
    4398      52    4395    4392    4401      52    4395    4392    4404      52
    4419    4410    4422       2    4416    4410    4419       2    4416    4410
    4422       2    4413    4410    4416      52    4413    4410    4419      52
    4413    4410    4422      52    4437    4428    4440       2    4434    4428
    4437       2    4434    4428    4440       2    4431    4428    4434      52
    4431    4428    4437      52    4431    4428    4440      52    4455    4446
    4458       2    4452    4446    4455       2    4452    4446    4458       2
    4449    4446    4452      52    4449    4446    4455      52    4449    4446
    4458      52    4473    4464    4476       2    4470    4464    4473       2
    4470    4464    4476       2    4467    4464    4470      52    4467    4464
    4473      52    4467    4464    4476      52    4491    4482    4494       2
    4488    4482    4491       2    4488    4482    4494       2    4485    4482
    4488      52    4485    4482    4491      52    4485    4482    4494      52
    4509    4500    4512       2    4506    4500    4509       2    4506    4500
    4512       2    4503    4500    4506      52    4503    4500    4509      52
    4503    4500    4512      52    4527    4518    4530       2    4524    4518
    4527       2    4524    4518    4530       2    4521    4518    4524      52
    4521    4518    4527      52    4521    4518    4530      52    4545    4536
    4548       2    4542    4536    4545       2    4542    4536    4548       2
    4539    4536    4542      52    4539    4536    4545      52    4539    4536
    4548      52    4563    4554    4566       2    4560    4554    4563       2
    4560    4554    4566       2    4557    4554    4560      52    4557    4554
    4563      52    4557    4554    4566      52    4581    4572    4584       2
    4578    4572    4581       2    4578    4572    4584       2    4575    4572
    4578      52    4575    4572    4581      52    4575    4572    4584      52
    4599    4590    4602       2    4596    4590    4599       2    4596    4590
    4602       2    4593    4590    4596      52    4593    4590    4599      52
    4593    4590    4602      52    4617    4608    4620       2    4614    4608
    4617       2    4614    4608    4620       2    4611    4608    4614      52
    4611    4608    4617      52    4611    4608    4620      52    4635    4626
    4638       2    4632    4626    4635       2    4632    4626    4638       2
    4629    4626    4632      52    4629    4626    4635      52    4629    4626
    4638      52    4653    4644    4656       2    4650    4644    4653       2
    4650    4644    4656       2    4647    4644    4650      52    4647    4644
    4653      52    4647    4644    4656      52    4671    4662    4674       2
    4668    4662    4671       2    4668    4662    4674       2    4665    4662
    4668      52    4665    4662    4671      52    4665    4662    4674      52
    4689    4680    4692       2    4686    4680    4689       2    4686    4680
    4692       2    4683    4680    4686      52    4683    4680    4689      52
    4683    4680    4692      52    4707    4698    4710       2    4704    4698
    4707       2    4704    4698    4710       2    4701    4698    4704      52
    4701    4698    4707      52    4701    4698    4710      52    4725    4716
    4728       2    4722    4716    4725       2    4722    4716    4728       2
    4719    4716    4722      52    4719    4716    4725      52    4719    4716
    4728      52    4743    4734    4746       2    4740    4734    4743       2
    4740    4734    4746       2    4737    4734    4740      52    4737    4734
    4743      52    4737    4734    4746      52    4761    4752    4764       2
    4758    4752    4761       2    4758    4752    4764       2    4755    4752
    4758      52    4755    4752    4761      52    4755    4752    4764      52
    4779    4770    4782       2    4776    4770    4779       2    4776    4770
    4782       2    4773    4770    4776      52    4773    4770    4779      52
    4773    4770    4782      52    4797    4788    4800       2    4794    4788
    4797       2    4794    4788    4800       2    4791    4788    4794      52
    4791    4788    4797      52    4791    4788    4800      52    4815    4806
    4818       2    4812    4806    4815       2    4812    4806    4818       2
    4809    4806    4812      52    4809    4806    4815      52    4809    4806
    4818      52    4833    4824    4836       2    4830    4824    4833       2
    4830    4824    4836       2    4827    4824    4830      52    4827    4824
    4833      52    4827    4824    4836      52    4851    4842    4854       2
    4848    4842    4851       2    4848    4842    4854       2    4845    4842
    4848      52    4845    4842    4851      52    4845    4842    4854      52
    4869    4860    4872       2    4866    4860    4869       2    4866    4860
    4872       2    4863    4860    4866      52    4863    4860    4869      52
    4863    4860    4872      52    4887    4878    4890       2    4884    4878
    4887       2    4884    4878    4890       2    4881    4878    4884      52
    4881    4878    4887      52    4881    4878    4890      52    4905    4896
    4908       2    4902    4896    4905       2    4902    4896    4908       2
    4899    4896    4902      52    4899    4896    4905      52    4899    4896
    4908      52    4923    4914    4926       2    4920    4914    4923       2
    4920    4914    4926       2    4917    4914    4920      52    4917    4914
    4923      52    4917    4914    4926      52    4941    4932    4944       2
    4938    4932    4941       2    4938    4932    4944       2    4935    4932
    4938      52    4935    4932    4941      52    4935    4932    4944      52
    4959    4950    4962       2    4956    4950    4959       2    4956    4950
    4962       2    4953    4950    4956      52    4953    4950    4959      52
    4953    4950    4962      52    4977    4968    4980       2    4974    4968
    4977       2    4974    4968    4980       2    4971    4968    4974      52
    4971    4968    4977      52    4971    4968    4980      52    4995    4986
    4998       2    4992    4986    4995       2    4992    4986    4998       2
    4989    4986    4992      52    4989    4986    4995      52    4989    4986
    4998      52    5013    5004    5016       2    5010    5004    5013       2
    5010    5004    5016       2    5007    5004    5010      52    5007    5004
    5013      52    5007    5004    5016      52    5031    5022    5034       2
    5028    5022    5031       2    5028    5022    5034       2    5025    5022
    5028      52    5025    5022    5031      52    5025    5022    5034      52
    5049    5040    5052       2    5046    5040    5049       2    5046    5040
    5052       2    5043    5040    5046      52    5043    5040    5049      52
    5043    5040    5052      52    5067    5058    5070       2    5064    5058
    5067       2    5064    5058    5070       2    5061    5058    5064      52
    5061    5058    5067      52    5061    5058    5070      52    5085    5076
    5088       2    5082    5076    5085       2    5082    5076    5088       2
    5079    5076    5082      52    5079    5076    5085      52    5079    5076
    5088      52    5103    5094    5106       2    5100    5094    5103       2
    5100    5094    5106       2    5097    5094    5100      52    5097    5094
    5103      52    5097    5094    5106      52    5121    5112    5124       2
    5118    5112    5121       2    5118    5112    5124       2    5115    5112
    5118      52    5115    5112    5121      52    5115    5112    5124      52
    5139    5130    5142       2    5136    5130    5139       2    5136    5130
    5142       2    5133    5130    5136      52    5133    5130    5139      52
    5133    5130    5142      52    5157    5148    5160       2    5154    5148
    5157       2    5154    5148    5160       2    5151    5148    5154      52
    5151    5148    5157      52    5151    5148    5160      52    5175    5166
    5178       2    5172    5166    5175       2    5172    5166    5178       2
    5169    5166    5172      52    5169    5166    5175      52    5169    5166
    5178      52    5193    5184    5196       2    5190    5184    5193       2
    5190    5184    5196       2    5187    5184    5190      52    5187    5184
    5193      52    5187    5184    5196      52    5211    5202    5214       2
    5208    5202    5211       2    5208    5202    5214       2    5205    5202
    5208      52    5205    5202    5211      52    5205    5202    5214      52
    5229    5220    5232       2    5226    5220    5229       2    5226    5220
    5232       2    5223    5220    5226      52    5223    5220    5229      52
    5223    5220    5232      52    5247    5238    5250       2    5244    5238
    5247       2    5244    5238    5250       2    5241    5238    5244      52
    5241    5238    5247      52    5241    5238    5250      52    5265    5256
    5268       2    5262    5256    5265       2    5262    5256    5268       2
    5259    5256    5262      52    5259    5256    5265      52    5259    5256
    5268      52    5283    5274    5286       2    5280    5274    5283       2
    5280    5274    5286       2    5277    5274    5280      52    5277    5274
    5283      52    5277    5274    5286      52    5301    5292    5304       2
    5298    5292    5301       2    5298    5292    5304       2    5295    5292
    5298      52    5295    5292    5301      52    5295    5292    5304      52
    5319    5310    5322       2    5316    5310    5319       2    5316    5310
    5322       2    5313    5310    5316      52    5313    5310    5319      52
    5313    5310    5322      52    5337    5328    5340       2    5334    5328
    5337       2    5334    5328    5340       2    5331    5328    5334      52
    5331    5328    5337      52    5331    5328    5340      52    5355    5346
    5358       2    5352    5346    5355       2    5352    5346    5358       2
    5349    5346    5352      52    5349    5346    5355      52    5349    5346
    5358      52    5373    5364    5376       2    5370    5364    5373       2
    5370    5364    5376       2    5367    5364    5370      52    5367    5364
    5373      52    5367    5364    5376      52    5391    5382    5394       2
    5388    5382    5391       2    5388    5382    5394       2    5385    5382
    5388      52    5385    5382    5391      52    5385    5382    5394      52
    5409    5400    5412       2    5406    5400    5409       2    5406    5400
    5412       2    5403    5400    5406      52    5403    5400    5409      52
    5403    5400    5412      52    5427    5418    5430       2    5424    5418
    5427       2    5424    5418    5430       2    5421    5418    5424      52
    5421    5418    5427      52    5421    5418    5430      52    5445    5436
    5448       2    5442    5436    5445       2    5442    5436    5448       2
    5439    5436    5442      52    5439    5436    5445      52    5439    5436
    5448      52    5463    5454    5466       2    5460    5454    5463       2
    5460    5454    5466       2    5457    5454    5460      52    5457    5454
    5463      52    5457    5454    5466      52    5481    5472    5484       2
    5478    5472    5481       2    5478    5472    5484       2    5475    5472
    5478      52    5475    5472    5481      52    5475    5472    5484      52
    5499    5490    5502       2    5496    5490    5499       2    5496    5490
    5502       2    5493    5490    5496      52    5493    5490    5499      52
    5493    5490    5502      52    5517    5508    5520       2    5514    5508
    5517       2    5514    5508    5520       2    5511    5508    5514      52
    5511    5508    5517      52    5511    5508    5520      52    5535    5526
    5538       2    5532    5526    5535       2    5532    5526    5538       2
    5529    5526    5532      52    5529    5526    5535      52    5529    5526
    5538      52    5553    5544    5556       2    5550    5544    5553       2
    5550    5544    5556       2    5547    5544    5550      52    5547    5544
    5553      52    5547    5544    5556      52    5571    5562    5574       2
    5568    5562    5571       2    5568    5562    5574       2    5565    5562
    5568      52    5565    5562    5571      52    5565    5562    5574      52
    5589    5580    5592       2    5586    5580    5589       2    5586    5580
    5592       2    5583    5580    5586      52    5583    5580    5589      52
    5583    5580    5592      52    5607    5598    5610       2    5604    5598
    5607       2    5604    5598    5610       2    5601    5598    5604      52
    5601    5598    5607      52    5601    5598    5610      52    5625    5616
    5628       2    5622    5616    5625       2    5622    5616    5628       2
    5619    5616    5622      52    5619    5616    5625      52    5619    5616
    5628      52    5643    5634    5646       2    5640    5634    5643       2
    5640    5634    5646       2    5637    5634    5640      52    5637    5634
    5643      52    5637    5634    5646      52    5661    5652    5664       2
    5658    5652    5661       2    5658    5652    5664       2    5655    5652
    5658      52    5655    5652    5661      52    5655    5652    5664      52
    5679    5670    5682       2    5676    5670    5679       2    5676    5670
    5682       2    5673    5670    5676      52    5673    5670    5679      52
    5673    5670    5682      52    5697    5688    5700       2    5694    5688
    5697       2    5694    5688    5700       2    5691    5688    5694      52
    5691    5688    5697      52    5691    5688    5700      52    5715    5706
    5718       2    5712    5706    5715       2    5712    5706    5718       2
    5709    5706    5712      52    5709    5706    5715      52    5709    5706
    5718      52    5733    5724    5736       2    5730    5724    5733       2
    5730    5724    5736       2    5727    5724    5730      52    5727    5724
    5733      52    5727    5724    5736      52    5751    5742    5754       2
    5748    5742    5751       2    5748    5742    5754       2    5745    5742
    5748      52    5745    5742    5751      52    5745    5742    5754      52
    5769    5760    5772       2    5766    5760    5769       2    5766    5760
    5772       2    5763    5760    5766      52    5763    5760    5769      52
    5763    5760    5772      52    5787    5778    5790       2    5784    5778
    5787       2    5784    5778    5790       2    5781    5778    5784      52
    5781    5778    5787      52    5781    5778    5790      52    5805    5796
    5808       2    5802    5796    5805       2    5802    5796    5808       2
    5799    5796    5802      52    5799    5796    5805      52    5799    5796
    5808      52    5823    5814    5826       2    5820    5814    5823       2
    5820    5814    5826       2    5817    5814    5820      52    5817    5814
    5823      52    5817    5814    5826      52    5841    5832    5844       2
    5838    5832    5841       2    5838    5832    5844       2    5835    5832
    5838      52    5835    5832    5841      52    5835    5832    5844      52
    5859    5850    5862       2    5856    5850    5859       2    5856    5850
    5862       2    5853    5850    5856      52    5853    5850    5859      52
    5853    5850    5862      52    5877    5868    5880       2    5874    5868
    5877       2    5874    5868    5880       2    5871    5868    5874      52
    5871    5868    5877      52    5871    5868    5880      52    5895    5886
    5898       2    5892    5886    5895       2    5892    5886    5898       2
    5889    5886    5892      52    5889    5886    5895      52    5889    5886
    5898      52    5913    5904    5916       2    5910    5904    5913       2
    5910    5904    5916       2    5907    5904    5910      52    5907    5904
    5913      52    5907    5904    5916      52    5931    5922    5934       2
    5928    5922    5931       2    5928    5922    5934       2    5925    5922
    5928      52    5925    5922    5931      52    5925    5922    5934      52
    5949    5940    5952       2    5946    5940    5949       2    5946    5940
    5952       2    5943    5940    5946      52    5943    5940    5949      52
    5943    5940    5952      52    5967    5958    5970       2    5964    5958
    5967       2    5964    5958    5970       2    5961    5958    5964      52
    5961    5958    5967      52    5961    5958    5970      52    5985    5976
    5988       2    5982    5976    5985       2    5982    5976    5988       2
    5979    5976    5982      52    5979    5976    5985      52    5979    5976
    5988      52    6003    5994    6006       2    6000    5994    6003       2
    6000    5994    6006       2    5997    5994    6000      52    5997    5994
    6003      52    5997    5994    6006      52    6021    6012    6024       2
    6018    6012    6021       2    6018    6012    6024       2    6015    6012
    6018      52    6015    6012    6021      52    6015    6012    6024      52
    6039    6030    6042       2    6036    6030    6039       2    6036    6030
    6042       2    6033    6030    6036      52    6033    6030    6039      52
    6033    6030    6042      52    6057    6048    6060       2    6054    6048
    6057       2    6054    6048    6060       2    6051    6048    6054      52
    6051    6048    6057      52    6051    6048    6060      52    6075    6066
    6078       2    6072    6066    6075       2    6072    6066    6078       2
    6069    6066    6072      52    6069    6066    6075      52    6069    6066
    6078      52    6093    6084    6096       2    6090    6084    6093       2
    6090    6084    6096       2    6087    6084    6090      52    6087    6084
    6093      52    6087    6084    6096      52    6111    6102    6114       2
    6108    6102    6111       2    6108    6102    6114       2    6105    6102
    6108      52    6105    6102    6111      52    6105    6102    6114      52
    6129    6120    6132       2    6126    6120    6129       2    6126    6120
    6132       2    6123    6120    6126      52    6123    6120    6129      52
    6123    6120    6132      52    6147    6138    6150       2    6144    6138
    6147       2    6144    6138    6150       2    6141    6138    6144      52
    6141    6138    6147      52    6141    6138    6150      52    6165    6156
    6168       2    6162    6156    6165       2    6162    6156    6168       2
    6159    6156    6162      52    6159    6156    6165      52    6159    6156
    6168      52    6183    6174    6186       2    6180    6174    6183       2
    6180    6174    6186       2    6177    6174    6180      52    6177    6174
    6183      52    6177    6174    6186      52    6201    6192    6204       2
    6198    6192    6201       2    6198    6192    6204       2    6195    6192
    6198      52    6195    6192    6201      52    6195    6192    6204      52
    6219    6210    6222       2    6216    6210    6219       2    6216    6210
    6222       2    6213    6210    6216      52    6213    6210    6219      52
    6213    6210    6222      52    6237    6228    6240       2    6234    6228
    6237       2    6234    6228    6240       2    6231    6228    6234      52
    6231    6228    6237      52    6231    6228    6240      52    6255    6246
    6258       2    6252    6246    6255       2    6252    6246    6258       2
    6249    6246    6252      52    6249    6246    6255      52    6249    6246
    6258      52    6273    6264    6276       2    6270    6264    6273       2
    6270    6264    6276       2    6267    6264    6270      52    6267    6264
    6273      52    6267    6264    6276      52    6291    6282    6294       2
    6288    6282    6291       2    6288    6282    6294       2    6285    6282
    6288      52    6285    6282    6291      52    6285    6282    6294      52
    6309    6300    6312       2    6306    6300    6309       2    6306    6300
    6312       2    6303    6300    6306      52    6303    6300    6309      52
    6303    6300    6312      52    6327    6318    6330       2    6324    6318
    6327       2    6324    6318    6330       2    6321    6318    6324      52
    6321    6318    6327      52    6321    6318    6330      52    6345    6336
    6348       2    6342    6336    6345       2    6342    6336    6348       2
    6339    6336    6342      52    6339    6336    6345      52    6339    6336
    6348      52    6363    6354    6366       2    6360    6354    6363       2
    6360    6354    6366       2    6357    6354    6360      52    6357    6354
    6363      52    6357    6354    6366      52    6381    6372    6384       2
    6378    6372    6381       2    6378    6372    6384       2    6375    6372
    6378      52    6375    6372    6381      52    6375    6372    6384      52
    6399    6390    6402       2    6396    6390    6399       2    6396    6390
    6402       2    6393    6390    6396      52    6393    6390    6399      52
    6393    6390    6402      52    6417    6408    6420       2    6414    6408
    6417       2    6414    6408    6420       2    6411    6408    6414      52
    6411    6408    6417      52    6411    6408    6420      52    6435    6426
    6438       2    6432    6426    6435       2    6432    6426    6438       2
    6429    6426    6432      52    6429    6426    6435      52    6429    6426
    6438      52    6453    6444    6456       2    6450    6444    6453       2
    6450    6444    6456       2    6447    6444    6450      52    6447    6444
    6453      52    6447    6444    6456      52    6471    6462    6474       2
    6468    6462    6471       2    6468    6462    6474       2    6465    6462
    6468      52    6465    6462    6471      52    6465    6462    6474      52
    6489    6480    6492       2    6486    6480    6489       2    6486    6480
    6492       2    6483    6480    6486      52    6483    6480    6489      52
    6483    6480    6492      52    6507    6498    6510       2    6504    6498
    6507       2    6504    6498    6510       2    6501    6498    6504      52
    6501    6498    6507      52    6501    6498    6510      52    6525    6516
    6528       2    6522    6516    6525       2    6522    6516    6528       2
    6519    6516    6522      52    6519    6516    6525      52    6519    6516
    6528      52    6543    6534    6546       2    6540    6534    6543       2
    6540    6534    6546       2    6537    6534    6540      52    6537    6534
    6543      52    6537    6534    6546      52    6561    6552    6564       2
    6558    6552    6561       2    6558    6552    6564       2    6555    6552
    6558      52    6555    6552    6561      52    6555    6552    6564      52
    6579    6570    6582       2    6576    6570    6579       2    6576    6570
    6582       2    6573    6570    6576      52    6573    6570    6579      52
    6573    6570    6582      52    6597    6588    6600       2    6594    6588
    6597       2    6594    6588    6600       2    6591    6588    6594      52
    6591    6588    6597      52    6591    6588    6600      52    6615    6606
    6618       2    6612    6606    6615       2    6612    6606    6618       2
    6609    6606    6612      52    6609    6606    6615      52    6609    6606
    6618      52    6633    6624    6636       2    6630    6624    6633       2
    6630    6624    6636       2    6627    6624    6630      52    6627    6624
    6633      52    6627    6624    6636      52    6651    6642    6654       2
    6648    6642    6651       2    6648    6642    6654       2    6645    6642
    6648      52    6645    6642    6651      52    6645    6642    6654      52
    6669    6660    6672       2    6666    6660    6669       2    6666    6660
    6672       2    6663    6660    6666      52    6663    6660    6669      52
    6663    6660    6672      52    6687    6678    6690       2    6684    6678
    6687       2    6684    6678    6690       2    6681    6678    6684      52
    6681    6678    6687      52    6681    6678    6690      52    6705    6696
    6708       2    6702    6696    6705       2    6702    6696    6708       2
    6699    6696    6702      52    6699    6696    6705      52    6699    6696
    6708      52    6723    6714    6726       2    6720    6714    6723       2
    6720    6714    6726       2    6717    6714    6720      52    6717    6714
    6723      52    6717    6714    6726      52    6741    6732    6744       2
    6738    6732    6741       2    6738    6732    6744       2    6735    6732
    6738      52    6735    6732    6741      52    6735    6732    6744      52
    6759    6750    6762       2    6756    6750    6759       2    6756    6750
    6762       2    6753    6750    6756      52    6753    6750    6759      52
    6753    6750    6762      52    6777    6768    6780       2    6774    6768
    6777       2    6774    6768    6780       2    6771    6768    6774      52
    6771    6768    6777      52    6771    6768    6780      52    6795    6786
    6798       2    6792    6786    6795       2    6792    6786    6798       2
    6789    6786    6792      52    6789    6786    6795      52    6789    6786
    6798      52    6813    6804    6816       2    6810    6804    6813       2
    6810    6804    6816       2    6807    6804    6810      52    6807    6804
    6813      52    6807    6804    6816      52    6831    6822    6834       2
    6828    6822    6831       2    6828    6822    6834       2    6825    6822
    6828      52    6825    6822    6831      52    6825    6822    6834      52
    6849    6840    6852       2    6846    6840    6849       2    6846    6840
    6852       2    6843    6840    6846      52    6843    6840    6849      52
    6843    6840    6852      52    6867    6858    6870       2    6864    6858
    6867       2    6864    6858    6870       2    6861    6858    6864      52
    6861    6858    6867      52    6861    6858    6870      52    6885    6876
    6888       2    6882    6876    6885       2    6882    6876    6888       2
    6879    6876    6882      52    6879    6876    6885      52    6879    6876
    6888      52    6903    6894    6906       2    6900    6894    6903       2
    6900    6894    6906       2    6897    6894    6900      52    6897    6894
    6903      52    6897    6894    6906      52    6921    6912    6924       2
    6918    6912    6921       2    6918    6912    6924       2    6915    6912
    6918      52    6915    6912    6921      52    6915    6912    6924      52
    6939    6930    6942       2    6936    6930    6939       2    6936    6930
    6942       2    6933    6930    6936      52    6933    6930    6939      52
    6933    6930    6942      52    6957    6948    6960       2    6954    6948
    6957       2    6954    6948    6960       2    6951    6948    6954      52
    6951    6948    6957      52    6951    6948    6960      52    6975    6966
    6978       2    6972    6966    6975       2    6972    6966    6978       2
    6969    6966    6972      52    6969    6966    6975      52    6969    6966
    6978      52    6993    6984    6996       2    6990    6984    6993       2
    6990    6984    6996       2    6987    6984    6990      52    6987    6984
    6993      52    6987    6984    6996      52    7011    7002    7014       2
    7008    7002    7011       2    7008    7002    7014       2    7005    7002
    7008      52    7005    7002    7011      52    7005    7002    7014      52
    7029    7020    7032       2    7026    7020    7029       2    7026    7020
    7032       2    7023    7020    7026      52    7023    7020    7029      52
    7023    7020    7032      52    7047    7038    7050       2    7044    7038
    7047       2    7044    7038    7050       2    7041    7038    7044      52
    7041    7038    7047      52    7041    7038    7050      52    7065    7056
    7068       2    7062    7056    7065       2    7062    7056    7068       2
    7059    7056    7062      52    7059    7056    7065      52    7059    7056
    7068      52    7083    7074    7086       2    7080    7074    7083       2
    7080    7074    7086       2    7077    7074    7080      52    7077    7074
    7083      52    7077    7074    7086      52    7101    7092    7104       2
    7098    7092    7101       2    7098    7092    7104       2    7095    7092
    7098      52    7095    7092    7101      52    7095    7092    7104      52
    7119    7110    7122       2    7116    7110    7119       2    7116    7110
    7122       2    7113    7110    7116      52    7113    7110    7119      52
    7113    7110    7122      52    7137    7128    7140       2    7134    7128
    7137       2    7134    7128    7140       2    7131    7128    7134      52
    7131    7128    7137      52    7131    7128    7140      52    7155    7146
    7158       2    7152    7146    7155       2    7152    7146    7158       2
    7149    7146    7152      52    7149    7146    7155      52    7149    7146
    7158      52    7173    7164    7176       2    7170    7164    7173       2
    7170    7164    7176       2    7167    7164    7170      52    7167    7164
    7173      52    7167    7164    7176      52    7191    7182    7194       2
    7188    7182    7191       2    7188    7182    7194       2    7185    7182
    7188      52    7185    7182    7191      52    7185    7182    7194      52
    7209    7200    7212       2    7206    7200    7209       2    7206    7200
    7212       2    7203    7200    7206      52    7203    7200    7209      52
    7203    7200    7212      52    7227    7218    7230       2    7224    7218
    7227       2    7224    7218    7230       2    7221    7218    7224      52
    7221    7218    7227      52    7221    7218    7230      52    7245    7236
    7248       2    7242    7236    7245       2    7242    7236    7248       2
    7239    7236    7242      52    7239    7236    7245      52    7239    7236
    7248      52    7263    7254    7266       2    7260    7254    7263       2
    7260    7254    7266       2    7257    7254    7260      52    7257    7254
    7263      52    7257    7254    7266      52    7281    7272    7284       2
    7278    7272    7281       2    7278    7272    7284       2    7275    7272
    7278      52    7275    7272    7281      52    7275    7272    7284      52
    7299    7290    7302       2    7296    7290    7299       2    7296    7290
    7302       2    7293    7290    7296      52    7293    7290    7299      52
    7293    7290    7302      52    7317    7308    7320       2    7314    7308
    7317       2    7314    7308    7320       2    7311    7308    7314      52
    7311    7308    7317      52    7311    7308    7320      52    7335    7326
    7338       2    7332    7326    7335       2    7332    7326    7338       2
    7329    7326    7332      52    7329    7326    7335      52    7329    7326
    7338      52    7353    7344    7356       2    7350    7344    7353       2
    7350    7344    7356       2    7347    7344    7350      52    7347    7344
    7353      52    7347    7344    7356      52    7371    7362    7374       2
    7368    7362    7371       2    7368    7362    7374       2    7365    7362
    7368      52    7365    7362    7371      52    7365    7362    7374      52
    7389    7380    7392       2    7386    7380    7389       2    7386    7380
    7392       2    7383    7380    7386      52    7383    7380    7389      52
    7383    7380    7392      52    7407    7398    7410       2    7404    7398
    7407       2    7404    7398    7410       2    7401    7398    7404      52
    7401    7398    7407      52    7401    7398    7410      52    7425    7416
    7428       2    7422    7416    7425       2    7422    7416    7428       2
    7419    7416    7422      52    7419    7416    7425      52    7419    7416
    7428      52    7443    7434    7446       2    7440    7434    7443       2
    7440    7434    7446       2    7437    7434    7440      52    7437    7434
    7443      52    7437    7434    7446      52    7461    7452    7464       2
    7458    7452    7461       2    7458    7452    7464       2    7455    7452
    7458      52    7455    7452    7461      52    7455    7452    7464      52
    7479    7470    7482       2    7476    7470    7479       2    7476    7470
    7482       2    7473    7470    7476      52    7473    7470    7479      52
    7473    7470    7482      52    7497    7488    7500       2    7494    7488
    7497       2    7494    7488    7500       2    7491    7488    7494      52
    7491    7488    7497      52    7491    7488    7500      52    7515    7506
    7518       2    7512    7506    7515       2    7512    7506    7518       2
    7509    7506    7512      52    7509    7506    7515      52    7509    7506
    7518      52    7533    7524    7536       2    7530    7524    7533       2
    7530    7524    7536       2    7527    7524    7530      52    7527    7524
    7533      52    7527    7524    7536      52    7551    7542    7554       2
    7548    7542    7551       2    7548    7542    7554       2    7545    7542
    7548      52    7545    7542    7551      52    7545    7542    7554      52
    7569    7560    7572       2    7566    7560    7569       2    7566    7560
    7572       2    7563    7560    7566      52    7563    7560    7569      52
    7563    7560    7572      52    7587    7578    7590       2    7584    7578
    7587       2    7584    7578    7590       2    7581    7578    7584      52
    7581    7578    7587      52    7581    7578    7590      52    7605    7596
    7608       2    7602    7596    7605       2    7602    7596    7608       2
    7599    7596    7602      52    7599    7596    7605      52    7599    7596
    7608      52    7623    7614    7626       2    7620    7614    7623       2
    7620    7614    7626       2    7617    7614    7620      52    7617    7614
    7623      52    7617    7614    7626      52    7641    7632    7644       2
    7638    7632    7641       2    7638    7632    7644       2    7635    7632
    7638      52    7635    7632    7641      52    7635    7632    7644      52
    7659    7650    7662       2    7656    7650    7659       2    7656    7650
    7662       2    7653    7650    7656      52    7653    7650    7659      52
    7653    7650    7662      52    7677    7668    7680       2    7674    7668
    7677       2    7674    7668    7680       2    7671    7668    7674      52
    7671    7668    7677      52    7671    7668    7680      52    7695    7686
    7698       2    7692    7686    7695       2    7692    7686    7698       2
    7689    7686    7692      52    7689    7686    7695      52    7689    7686
    7698      52    7713    7704    7716       2    7710    7704    7713       2
    7710    7704    7716       2    7707    7704    7710      52    7707    7704
    7713      52    7707    7704    7716      52    7731    7722    7734       2
    7728    7722    7731       2    7728    7722    7734       2    7725    7722
    7728      52    7725    7722    7731      52    7725    7722    7734      52
    7749    7740    7752       2    7746    7740    7749       2    7746    7740
    7752       2    7743    7740    7746      52    7743    7740    7749      52
    7743    7740    7752      52    7767    7758    7770       2    7764    7758
    7767       2    7764    7758    7770       2    7761    7758    7764      52
    7761    7758    7767      52    7761    7758    7770      52    7785    7776
    7788       2    7782    7776    7785       2    7782    7776    7788       2
    7779    7776    7782      52    7779    7776    7785      52    7779    7776
    7788      52    7803    7794    7806       2    7800    7794    7803       2
    7800    7794    7806       2    7797    7794    7800      52    7797    7794
    7803      52    7797    7794    7806      52    7821    7812    7824       2
    7818    7812    7821       2    7818    7812    7824       2    7815    7812
    7818      52    7815    7812    7821      52    7815    7812    7824      52
    7839    7830    7842       2    7836    7830    7839       2    7836    7830
    7842       2    7833    7830    7836      52    7833    7830    7839      52
    7833    7830    7842      52    7857    7848    7860       2    7854    7848
    7857       2    7854    7848    7860       2    7851    7848    7854      52
    7851    7848    7857      52    7851    7848    7860      52    7875    7866
    7878       2    7872    7866    7875       2    7872    7866    7878       2
    7869    7866    7872      52    7869    7866    7875      52    7869    7866
    7878      52    7893    7884    7896       2    7890    7884    7893       2
    7890    7884    7896       2    7887    7884    7890      52    7887    7884
    7893      52    7887    7884    7896      52    7911    7902    7914       2
    7908    7902    7911       2    7908    7902    7914       2    7905    7902
    7908      52    7905    7902    7911      52    7905    7902    7914      52
    7929    7920    7932       2    7926    7920    7929       2    7926    7920
    7932       2    7923    7920    7926      52    7923    7920    7929      52
    7923    7920    7932      52    7947    7938    7950       2    7944    7938
    7947       2    7944    7938    7950       2    7941    7938    7944      52
    7941    7938    7947      52    7941    7938    7950      52    7965    7956
    7968       2    7962    7956    7965       2    7962    7956    7968       2
    7959    7956    7962      52    7959    7956    7965      52    7959    7956
    7968      52    7983    7974    7986       2    7980    7974    7983       2
    7980    7974    7986       2    7977    7974    7980      52    7977    7974
    7983      52    7977    7974    7986      52    8001    7992    8004       2
    7998    7992    8001       2    7998    7992    8004       2    7995    7992
    7998      52    7995    7992    8001      52    7995    7992    8004      52
    8019    8010    8022       2    8016    8010    8019       2    8016    8010
    8022       2    8013    8010    8016      52    8013    8010    8019      52
    8013    8010    8022      52    8037    8028    8040       2    8034    8028
    8037       2    8034    8028    8040       2    8031    8028    8034      52
    8031    8028    8037      52    8031    8028    8040      52    8055    8046
    8058       2    8052    8046    8055       2    8052    8046    8058       2
    8049    8046    8052      52    8049    8046    8055      52    8049    8046
    8058      52    8073    8064    8076       2    8070    8064    8073       2
    8070    8064    8076       2    8067    8064    8070      52    8067    8064
    8073      52    8067    8064    8076      52    8091    8082    8094       2
    8088    8082    8091       2    8088    8082    8094       2    8085    8082
    8088      52    8085    8082    8091      52    8085    8082    8094      52
    8109    8100    8112       2    8106    8100    8109       2    8106    8100
    8112       2    8103    8100    8106      52    8103    8100    8109      52
    8103    8100    8112      52    8127    8118    8130       2    8124    8118
    8127       2    8124    8118    8130       2    8121    8118    8124      52
    8121    8118    8127      52    8121    8118    8130      52    8145    8136
    8148       2    8142    8136    8145       2    8142    8136    8148       2
    8139    8136    8142      52    8139    8136    8145      52    8139    8136
    8148      52    8163    8154    8166       2    8160    8154    8163       2
    8160    8154    8166       2    8157    8154    8160      52    8157    8154
    8163      52    8157    8154    8166      52    8181    8172    8184       2
    8178    8172    8181       2    8178    8172    8184       2    8175    8172
    8178      52    8175    8172    8181      52    8175    8172    8184      52
    8199    8190    8202       2    8196    8190    8199       2    8196    8190
    8202       2    8193    8190    8196      52    8193    8190    8199      52
    8193    8190    8202      52    8217    8208    8220       2    8214    8208
    8217       2    8214    8208    8220       2    8211    8208    8214      52
    8211    8208    8217      52    8211    8208    8220      52    8235    8226
    8238       2    8232    8226    8235       2    8232    8226    8238       2
    8229    8226    8232      52    8229    8226    8235      52    8229    8226
    8238      52    8253    8244    8256       2    8250    8244    8253       2
    8250    8244    8256       2    8247    8244    8250      52    8247    8244
    8253      52    8247    8244    8256      52    8271    8262    8274       2
    8268    8262    8271       2    8268    8262    8274       2    8265    8262
    8268      52    8265    8262    8271      52    8265    8262    8274      52
    8289    8280    8292       2    8286    8280    8289       2    8286    8280
    8292       2    8283    8280    8286      52    8283    8280    8289      52
    8283    8280    8292      52    8307    8298    8310       2    8304    8298
    8307       2    8304    8298    8310       2    8301    8298    8304      52
    8301    8298    8307      52    8301    8298    8310      52    8325    8316
    8328       2    8322    8316    8325       2    8322    8316    8328       2
    8319    8316    8322      52    8319    8316    8325      52    8319    8316
    8328      52    8343    8334    8346       2    8340    8334    8343       2
    8340    8334    8346       2    8337    8334    8340      52    8337    8334
    8343      52    8337    8334    8346      52    8361    8352    8364       2
    8358    8352    8361       2    8358    8352    8364       2    8355    8352
    8358      52    8355    8352    8361      52    8355    8352    8364      52
    8379    8370    8382       2    8376    8370    8379       2    8376    8370
    8382       2    8373    8370    8376      52    8373    8370    8379      52
    8373    8370    8382      52    8397    8388    8400       2    8394    8388
    8397       2    8394    8388    8400       2    8391    8388    8394      52
    8391    8388    8397      52    8391    8388    8400      52    8415    8406
    8418       2    8412    8406    8415       2    8412    8406    8418       2
    8409    8406    8412      52    8409    8406    8415      52    8409    8406
    8418      52    8433    8424    8436       2    8430    8424    8433       2
    8430    8424    8436       2    8427    8424    8430      52    8427    8424
    8433      52    8427    8424    8436      52    8451    8442    8454       2
    8448    8442    8451       2    8448    8442    8454       2    8445    8442
    8448      52    8445    8442    8451      52    8445    8442    8454      52
    8469    8460    8472       2    8466    8460    8469       2    8466    8460
    8472       2    8463    8460    8466      52    8463    8460    8469      52
    8463    8460    8472      52    8487    8478    8490       2    8484    8478
    8487       2    8484    8478    8490       2    8481    8478    8484      52
    8481    8478    8487      52    8481    8478    8490      52    8505    8496
    8508       2    8502    8496    8505       2    8502    8496    8508       2
    8499    8496    8502      52    8499    8496    8505      52    8499    8496
    8508      52    8523    8514    8526       2    8520    8514    8523       2
    8520    8514    8526       2    8517    8514    8520      52    8517    8514
    8523      52    8517    8514    8526      52    8541    8532    8544       2
    8538    8532    8541       2    8538    8532    8544       2    8535    8532
    8538      52    8535    8532    8541      52    8535    8532    8544      52
    8559    8550    8562       2    8556    8550    8559       2    8556    8550
    8562       2    8553    8550    8556      52    8553    8550    8559      52
    8553    8550    8562      52    8577    8568    8580       2    8574    8568
    8577       2    8574    8568    8580       2    8571    8568    8574      52
    8571    8568    8577      52    8571    8568    8580      52    8595    8586
    8598       2    8592    8586    8595       2    8592    8586    8598       2
    8589    8586    8592      52    8589    8586    8595      52    8589    8586
    8598      52    8613    8604    8616       2    8610    8604    8613       2
    8610    8604    8616       2    8607    8604    8610      52    8607    8604
    8613      52    8607    8604    8616      52    8631    8622    8634       2
    8628    8622    8631       2    8628    8622    8634       2    8625    8622
    8628      52    8625    8622    8631      52    8625    8622    8634      52
    8649    8640    8652       2    8646    8640    8649       2    8646    8640
    8652       2    8643    8640    8646      52    8643    8640    8649      52
    8643    8640    8652      52    8667    8658    8670       2    8664    8658
    8667       2    8664    8658    8670       2    8661    8658    8664      52
    8661    8658    8667      52    8661    8658    8670      52    8685    8676
    8688       2    8682    8676    8685       2    8682    8676    8688       2
    8679    8676    8682      52    8679    8676    8685      52    8679    8676
    8688      52    8703    8694    8706       2    8700    8694    8703       2
    8700    8694    8706       2    8697    8694    8700      52    8697    8694
    8703      52    8697    8694    8706      52    8721    8712    8724       2
    8718    8712    8721       2    8718    8712    8724       2    8715    8712
    8718      52    8715    8712    8721      52    8715    8712    8724      52
    8739    8730    8742       2    8736    8730    8739       2    8736    8730
    8742       2    8733    8730    8736      52    8733    8730    8739      52
    8733    8730    8742      52    8757    8748    8760       2    8754    8748
    8757       2    8754    8748    8760       2    8751    8748    8754      52
    8751    8748    8757      52    8751    8748    8760      52    8775    8766
    8778       2    8772    8766    8775       2    8772    8766    8778       2
    8769    8766    8772      52    8769    8766    8775      52    8769    8766
    8778      52    8793    8784    8796       2    8790    8784    8793       2
    8790    8784    8796       2    8787    8784    8790      52    8787    8784
    8793      52    8787    8784    8796      52    8811    8802    8814       2
    8808    8802    8811       2    8808    8802    8814       2    8805    8802
    8808      52    8805    8802    8811      52    8805    8802    8814      52
    8829    8820    8832       2    8826    8820    8829       2    8826    8820
    8832       2    8823    8820    8826      52    8823    8820    8829      52
    8823    8820    8832      52    8847    8838    8850       2    8844    8838
    8847       2    8844    8838    8850       2    8841    8838    8844      52
    8841    8838    8847      52    8841    8838    8850      52    8865    8856
    8868       2    8862    8856    8865       2    8862    8856    8868       2
    8859    8856    8862      52    8859    8856    8865      52    8859    8856
    8868      52    8883    8874    8886       2    8880    8874    8883       2
    8880    8874    8886       2    8877    8874    8880      52    8877    8874
    8883      52    8877    8874    8886      52    8901    8892    8904       2
    8898    8892    8901       2    8898    8892    8904       2    8895    8892
    8898      52    8895    8892    8901      52    8895    8892    8904      52
    8919    8910    8922       2    8916    8910    8919       2    8916    8910
    8922       2    8913    8910    8916      52    8913    8910    8919      52
    8913    8910    8922      52    8937    8928    8940       2    8934    8928
    8937       2    8934    8928    8940       2    8931    8928    8934      52
    8931    8928    8937      52    8931    8928    8940      52    8955    8946
    8958       2    8952    8946    8955       2    8952    8946    8958       2
    8949    8946    8952      52    8949    8946    8955      52    8949    8946
    8958      52    8973    8964    8976       2    8970    8964    8973       2
    8970    8964    8976       2    8967    8964    8970      52    8967    8964
    8973      52    8967    8964    8976      52    8991    8982    8994       2
    8988    8982    8991       2    8988    8982    8994       2    8985    8982
    8988      52    8985    8982    8991      52    8985    8982    8994      52
    9009    9000    9012       2    9006    9000    9009       2    9006    9000
    9012       2    9003    9000    9006      52    9003    9000    9009      52
    9003    9000    9012      52    9027    9018    9030       2    9024    9018
    9027       2    9024    9018    9030       2    9021    9018    9024      52
    9021    9018    9027      52    9021    9018    9030      52    9045    9036
    9048       2    9042    9036    9045       2    9042    9036    9048       2
    9039    9036    9042      52    9039    9036    9045      52    9039    9036
    9048      52    9063    9054    9066       2    9060    9054    9063       2
    9060    9054    9066       2    9057    9054    9060      52    9057    9054
    9063      52    9057    9054    9066      52    9081    9072    9084       2
    9078    9072    9081       2    9078    9072    9084       2    9075    9072
    9078      52    9075    9072    9081      52    9075    9072    9084      52
    9099    9090    9102       2    9096    9090    9099       2    9096    9090
    9102       2    9093    9090    9096      52    9093    9090    9099      52
    9093    9090    9102      52    9117    9108    9120       2    9114    9108
    9117       2    9114    9108    9120       2    9111    9108    9114      52
    9111    9108    9117      52    9111    9108    9120      52    9135    9126
    9138       2    9132    9126    9135       2    9132    9126    9138       2
    9129    9126    9132      52    9129    9126    9135      52    9129    9126
    9138      52    9153    9144    9156       2    9150    9144    9153       2
    9150    9144    9156       2    9147    9144    9150      52    9147    9144
    9153      52    9147    9144    9156      52    9171    9162    9174       2
    9168    9162    9171       2    9168    9162    9174       2    9165    9162
    9168      52    9165    9162    9171      52    9165    9162    9174      52
    9189    9180    9192       2    9186    9180    9189       2    9186    9180
    9192       2    9183    9180    9186      52    9183    9180    9189      52
    9183    9180    9192      52    9207    9198    9210       2    9204    9198
    9207       2    9204    9198    9210       2    9201    9198    9204      52
    9201    9198    9207      52    9201    9198    9210      52    9225    9216
    9228       2    9222    9216    9225       2    9222    9216    9228       2
    9219    9216    9222      52    9219    9216    9225      52    9219    9216
    9228      52    9243    9234    9246       2    9240    9234    9243       2
    9240    9234    9246       2    9237    9234    9240      52    9237    9234
    9243      52    9237    9234    9246      52    9261    9252    9264       2
    9258    9252    9261       2    9258    9252    9264       2    9255    9252
    9258      52    9255    9252    9261      52    9255    9252    9264      52
    9279    9270    9282       2    9276    9270    9279       2    9276    9270
    9282       2    9273    9270    9276      52    9273    9270    9279      52
    9273    9270    9282      52    9297    9288    9300       2    9294    9288
    9297       2    9294    9288    9300       2    9291    9288    9294      52
    9291    9288    9297      52    9291    9288    9300      52    9315    9306
    9318       2    9312    9306    9315       2    9312    9306    9318       2
    9309    9306    9312      52    9309    9306    9315      52    9309    9306
    9318      52    9333    9324    9336       2    9330    9324    9333       2
    9330    9324    9336       2    9327    9324    9330      52    9327    9324
    9333      52    9327    9324    9336      52    9351    9342    9354       2
    9348    9342    9351       2    9348    9342    9354       2    9345    9342
    9348      52    9345    9342    9351      52    9345    9342    9354      52
    9369    9360    9372       2    9366    9360    9369       2    9366    9360
    9372       2    9363    9360    9366      52    9363    9360    9369      52
    9363    9360    9372      52    9387    9378    9390       2    9384    9378
    9387       2    9384    9378    9390       2    9381    9378    9384      52
    9381    9378    9387      52    9381    9378    9390      52    9405    9396
    9408       2    9402    9396    9405       2    9402    9396    9408       2
    9399    9396    9402      52    9399    9396    9405      52    9399    9396
    9408      52    9423    9414    9426       2    9420    9414    9423       2
    9420    9414    9426       2    9417    9414    9420      52    9417    9414
    9423      52    9417    9414    9426      52    9441    9432    9444       2
    9438    9432    9441       2    9438    9432    9444       2    9435    9432
    9438      52    9435    9432    9441      52    9435    9432    9444      52
    9459    9450    9462       2    9456    9450    9459       2    9456    9450
    9462       2    9453    9450    9456      52    9453    9450    9459      52
    9453    9450    9462      52    9477    9468    9480       2    9474    9468
    9477       2    9474    9468    9480       2    9471    9468    9474      52
    9471    9468    9477      52    9471    9468    9480      52    9495    9486
    9498       2    9492    9486    9495       2    9492    9486    9498       2
    9489    9486    9492      52    9489    9486    9495      52    9489    9486
    9498      52    9513    9504    9516       2    9510    9504    9513       2
    9510    9504    9516       2    9507    9504    9510      52    9507    9504
    9513      52    9507    9504    9516      52    9531    9522    9534       2
    9528    9522    9531       2    9528    9522    9534       2    9525    9522
    9528      52    9525    9522    9531      52    9525    9522    9534      52
    9549    9540    9552       2    9546    9540    9549       2    9546    9540
    9552       2    9543    9540    9546      52    9543    9540    9549      52
    9543    9540    9552      52    9567    9558    9570       2    9564    9558
    9567       2    9564    9558    9570       2    9561    9558    9564      52
    9561    9558    9567      52    9561    9558    9570      52    9585    9576
    9588       2    9582    9576    9585       2    9582    9576    9588       2
    9579    9576    9582      52    9579    9576    9585      52    9579    9576
    9588      52    9603    9594    9606       2    9600    9594    9603       2
    9600    9594    9606       2    9597    9594    9600      52    9597    9594
    9603      52    9597    9594    9606      52    9621    9612    9624       2
    9618    9612    9621       2    9618    9612    9624       2    9615    9612
    9618      52    9615    9612    9621      52    9615    9612    9624      52
    9639    9630    9642       2    9636    9630    9639       2    9636    9630
    9642       2    9633    9630    9636      52    9633    9630    9639      52
    9633    9630    9642      52    9657    9648    9660       2    9654    9648
    9657       2    9654    9648    9660       2    9651    9648    9654      52
    9651    9648    9657      52    9651    9648    9660      52    9675    9666
    9678       2    9672    9666    9675       2    9672    9666    9678       2
    9669    9666    9672      52    9669    9666    9675      52    9669    9666
    9678      52    9693    9684    9696       2    9690    9684    9693       2
    9690    9684    9696       2    9687    9684    9690      52    9687    9684
    9693      52    9687    9684    9696      52    9711    9702    9714       2
    9708    9702    9711       2    9708    9702    9714       2    9705    9702
    9708      52    9705    9702    9711      52    9705    9702    9714      52
    9729    9720    9732       2    9726    9720    9729       2    9726    9720
    9732       2    9723    9720    9726      52    9723    9720    9729      52
    9723    9720    9732      52    9747    9738    9750       2    9744    9738
    9747       2    9744    9738    9750       2    9741    9738    9744      52
    9741    9738    9747      52    9741    9738    9750      52    9765    9756
    9768       2    9762    9756    9765       2    9762    9756    9768       2
    9759    9756    9762      52    9759    9756    9765      52    9759    9756
    9768      52    9783    9774    9786       2    9780    9774    9783       2
    9780    9774    9786       2    9777    9774    9780      52    9777    9774
    9783      52    9777    9774    9786      52    9801    9792    9804       2
    9798    9792    9801       2    9798    9792    9804       2    9795    9792
    9798      52    9795    9792    9801      52    9795    9792    9804      52
    9819    9810    9822       2    9816    9810    9819       2    9816    9810
    9822       2    9813    9810    9816      52    9813    9810    9819      52
    9813    9810    9822      52    9837    9828    9840       2    9834    9828
    9837       2    9834    9828    9840       2    9831    9828    9834      52
    9831    9828    9837      52    9831    9828    9840      52    9855    9846
    9858       2    9852    9846    9855       2    9852    9846    9858       2
    9849    9846    9852      52    9849    9846    9855      52    9849    9846
    9858      52    9873    9864    9876       2    9870    9864    9873       2
    9870    9864    9876       2    9867    9864    9870      52    9867    9864
    9873      52    9867    9864    9876      52    9891    9882    9894       2
    9888    9882    9891       2    9888    9882    9894       2    9885    9882
    9888      52    9885    9882    9891      52    9885    9882    9894      52
    9909    9900    9912       2    9906    9900    9909       2    9906    9900
    9912       2    9903    9900    9906      52    9903    9900    9909      52
    9903    9900    9912      52    9927    9918    9930       2    9924    9918
    9927       2    9924    9918    9930       2    9921    9918    9924      52
    9921    9918    9927      52    9921    9918    9930      52    9945    9936
    9948       2    9942    9936    9945       2    9942    9936    9948       2
    9939    9936    9942      52    9939    9936    9945      52    9939    9936
    9948      52    9963    9954    9966       2    9960    9954    9963       2
    9960    9954    9966       2    9957    9954    9960      52    9957    9954
    9963      52    9957    9954    9966      52    9981    9972    9984       2
    9978    9972    9981       2    9978    9972    9984       2    9975    9972
    9978      52    9975    9972    9981      52    9975    9972    9984      52
    9999    9990   10002       2    9996    9990    9999       2    9996    9990
   10002       2    9993    9990    9996      52    9993    9990    9999      52
    9993    9990   10002      52   10017   10008   10020       2   10014   10008
   10017       2   10014   10008   10020       2   10011   10008   10014      52
   10011   10008   10017      52   10011   10008   10020      52   10035   10026
   10038       2   10032   10026   10035       2   10032   10026   10038       2
   10029   10026   10032      52   10029   10026   10035      52   10029   10026
   10038      52   10053   10044   10056       2   10050   10044   10053       2
   10050   10044   10056       2   10047   10044   10050      52   10047   10044
   10053      52   10047   10044   10056      52   10071   10062   10074       2
   10068   10062   10071       2   10068   10062   10074       2   10065   10062
   10068      52   10065   10062   10071      52   10065   10062   10074      52
   10089   10080   10092       2   10086   10080   10089       2   10086   10080
   10092       2   10083   10080   10086      52   10083   10080   10089      52
   10083   10080   10092      52   10107   10098   10110       2   10104   10098
   10107       2   10104   10098   10110       2   10101   10098   10104      52
   10101   10098   10107      52   10101   10098   10110      52   10125   10116
   10128       2   10122   10116   10125       2   10122   10116   10128       2
   10119   10116   10122      52   10119   10116   10125      52   10119   10116
   10128      52   10143   10134   10146       2   10140   10134   10143       2
   10140   10134   10146       2   10137   10134   10140      52   10137   10134
   10143      52   10137   10134   10146      52   10161   10152   10164       2
   10158   10152   10161       2   10158   10152   10164       2   10155   10152
   10158      52   10155   10152   10161      52   10155   10152   10164      52
   10179   10170   10182       2   10176   10170   10179       2   10176   10170
   10182       2   10173   10170   10176      52   10173   10170   10179      52
   10173   10170   10182      52   10197   10188   10200       2   10194   10188
   10197       2   10194   10188   10200       2   10191   10188   10194      52
   10191   10188   10197      52   10191   10188   10200      52   10215   10206
   10218       2   10212   10206   10215       2   10212   10206   10218       2
   10209   10206   10212      52   10209   10206   10215      52   10209   10206
   10218      52   10233   10224   10236       2   10230   10224   10233       2
   10230   10224   10236       2   10227   10224   10230      52   10227   10224
   10233      52   10227   10224   10236      52   10251   10242   10254       2
   10248   10242   10251       2   10248   10242   10254       2   10245   10242
   10248      52   10245   10242   10251      52   10245   10242   10254      52
   10269   10260   10272       2   10266   10260   10269       2   10266   10260
   10272       2   10263   10260   10266      52   10263   10260   10269      52
   10263   10260   10272      52   10287   10278   10290       2   10284   10278
   10287       2   10284   10278   10290       2   10281   10278   10284      52
   10281   10278   10287      52   10281   10278   10290      52   10305   10296
   10308       2   10302   10296   10305       2   10302   10296   10308       2
   10299   10296   10302      52   10299   10296   10305      52   10299   10296
   10308      52   10323   10314   10326       2   10320   10314   10323       2
   10320   10314   10326       2   10317   10314   10320      52   10317   10314
   10323      52   10317   10314   10326      52   10341   10332   10344       2
   10338   10332   10341       2   10338   10332   10344       2   10335   10332
   10338      52   10335   10332   10341      52   10335   10332   10344      52
   10359   10350   10362       2   10356   10350   10359       2   10356   10350
   10362       2   10353   10350   10356      52   10353   10350   10359      52
   10353   10350   10362      52   10377   10368   10380       2   10374   10368
   10377       2   10374   10368   10380       2   10371   10368   10374      52
   10371   10368   10377      52   10371   10368   10380      52   10395   10386
   10398       2   10392   10386   10395       2   10392   10386   10398       2
   10389   10386   10392      52   10389   10386   10395      52   10389   10386
   10398      52   10413   10404   10416       2   10410   10404   10413       2
   10410   10404   10416       2   10407   10404   10410      52   10407   10404
   10413      52   10407   10404   10416      52   10431   10422   10434       2
   10428   10422   10431       2   10428   10422   10434       2   10425   10422
   10428      52   10425   10422   10431      52   10425   10422   10434      52
   10449   10440   10452       2   10446   10440   10449       2   10446   10440
   10452       2   10443   10440   10446      52   10443   10440   10449      52
   10443   10440   10452      52   10467   10458   10470       2   10464   10458
   10467       2   10464   10458   10470       2   10461   10458   10464      52
   10461   10458   10467      52   10461   10458   10470      52   10485   10476
   10488       2   10482   10476   10485       2   10482   10476   10488       2
   10479   10476   10482      52   10479   10476   10485      52   10479   10476
   10488      52   10503   10494   10506       2   10500   10494   10503       2
   10500   10494   10506       2   10497   10494   10500      52   10497   10494
   10503      52   10497   10494   10506      52   10521   10512   10524       2
   10518   10512   10521       2   10518   10512   10524       2   10515   10512
   10518      52   10515   10512   10521      52   10515   10512   10524      52
   10539   10530   10542       2   10536   10530   10539       2   10536   10530
   10542       2   10533   10530   10536      52   10533   10530   10539      52
   10533   10530   10542      52   10557   10548   10560       2   10554   10548
   10557       2   10554   10548   10560       2   10551   10548   10554      52
   10551   10548   10557      52   10551   10548   10560      52   10575   10566
   10578       2   10572   10566   10575       2   10572   10566   10578       2
   10569   10566   10572      52   10569   10566   10575      52   10569   10566
   10578      52   10593   10584   10596       2   10590   10584   10593       2
   10590   10584   10596       2   10587   10584   10590      52   10587   10584
   10593      52   10587   10584   10596      52   10611   10602   10614       2
   10608   10602   10611       2   10608   10602   10614       2   10605   10602
   10608      52   10605   10602   10611      52   10605   10602   10614      52
   10629   10620   10632       2   10626   10620   10629       2   10626   10620
   10632       2   10623   10620   10626      52   10623   10620   10629      52
   10623   10620   10632      52   10647   10638   10650       2   10644   10638
   10647       2   10644   10638   10650       2   10641   10638   10644      52
   10641   10638   10647      52   10641   10638   10650      52   10665   10656
   10668       2   10662   10656   10665       2   10662   10656   10668       2
   10659   10656   10662      52   10659   10656   10665      52   10659   10656
   10668      52   10683   10674   10686       2   10680   10674   10683       2
   10680   10674   10686       2   10677   10674   10680      52   10677   10674
   10683      52   10677   10674   10686      52   10701   10692   10704       2
   10698   10692   10701       2   10698   10692   10704       2   10695   10692
   10698      52   10695   10692   10701      52   10695   10692   10704      52
   10719   10710   10722       2   10716   10710   10719       2   10716   10710
   10722       2   10713   10710   10716      52   10713   10710   10719      52
   10713   10710   10722      52   10737   10728   10740       2   10734   10728
   10737       2   10734   10728   10740       2   10731   10728   10734      52
   10731   10728   10737      52   10731   10728   10740      52   10755   10746
   10758       2   10752   10746   10755       2   10752   10746   10758       2
   10749   10746   10752      52   10749   10746   10755      52   10749   10746
   10758      52   10773   10764   10776       2   10770   10764   10773       2
   10770   10764   10776       2   10767   10764   10770      52   10767   10764
   10773      52   10767   10764   10776      52   10791   10782   10794       2
   10788   10782   10791       2   10788   10782   10794       2   10785   10782
   10788      52   10785   10782   10791      52   10785   10782   10794      52
   10809   10800   10812       2   10806   10800   10809       2   10806   10800
   10812       2   10803   10800   10806      52   10803   10800   10809      52
   10803   10800   10812      52   10827   10818   10830       2   10824   10818
   10827       2   10824   10818   10830       2   10821   10818   10824      52
   10821   10818   10827      52   10821   10818   10830      52   10845   10836
   10848       2   10842   10836   10845       2   10842   10836   10848       2
   10839   10836   10842      52   10839   10836   10845      52   10839   10836
   10848      52   10863   10854   10866       2   10860   10854   10863       2
   10860   10854   10866       2   10857   10854   10860      52   10857   10854
   10863      52   10857   10854   10866      52   10881   10872   10884       2
   10878   10872   10881       2   10878   10872   10884       2   10875   10872
   10878      52   10875   10872   10881      52   10875   10872   10884      52
   10899   10890   10902       2   10896   10890   10899       2   10896   10890
   10902       2   10893   10890   10896      52   10893   10890   10899      52
   10893   10890   10902      52   10917   10908   10920       2   10914   10908
   10917       2   10914   10908   10920       2   10911   10908   10914      52
   10911   10908   10917      52   10911   10908   10920      52   10935   10926
   10938       2   10932   10926   10935       2   10932   10926   10938       2
   10929   10926   10932      52   10929   10926   10935      52   10929   10926
   10938      52   10953   10944   10956       2   10950   10944   10953       2
   10950   10944   10956       2   10947   10944   10950      52   10947   10944
   10953      52   10947   10944   10956      52   10971   10962   10974       2
   10968   10962   10971       2   10968   10962   10974       2   10965   10962
   10968      52   10965   10962   10971      52   10965   10962   10974      52
   10989   10980   10992       2   10986   10980   10989       2   10986   10980
   10992       2   10983   10980   10986      52   10983   10980   10989      52
   10983   10980   10992      52   11007   10998   11010       2   11004   10998
   11007       2   11004   10998   11010       2   11001   10998   11004      52
   11001   10998   11007      52   11001   10998   11010      52   11025   11016
   11028       2   11022   11016   11025       2   11022   11016   11028       2
   11019   11016   11022      52   11019   11016   11025      52   11019   11016
   11028      52   11043   11034   11046       2   11040   11034   11043       2
   11040   11034   11046       2   11037   11034   11040      52   11037   11034
   11043      52   11037   11034   11046      52   11061   11052   11064       2
   11058   11052   11061       2   11058   11052   11064       2   11055   11052
   11058      52   11055   11052   11061      52   11055   11052   11064      52
   11079   11070   11082       2   11076   11070   11079       2   11076   11070
   11082       2   11073   11070   11076      52   11073   11070   11079      52
   11073   11070   11082      52   11097   11088   11100       2   11094   11088
   11097       2   11094   11088   11100       2   11091   11088   11094      52
   11091   11088   11097      52   11091   11088   11100      52   11115   11106
   11118       2   11112   11106   11115       2   11112   11106   11118       2
   11109   11106   11112      52   11109   11106   11115      52   11109   11106
   11118      52   11133   11124   11136       2   11130   11124   11133       2
   11130   11124   11136       2   11127   11124   11130      52   11127   11124
   11133      52   11127   11124   11136      52   11151   11142   11154       2
   11148   11142   11151       2   11148   11142   11154       2   11145   11142
   11148      52   11145   11142   11151      52   11145   11142   11154      52
   11169   11160   11172       2   11166   11160   11169       2   11166   11160
   11172       2   11163   11160   11166      52   11163   11160   11169      52
   11163   11160   11172      52   11187   11178   11190       2   11184   11178
   11187       2   11184   11178   11190       2   11181   11178   11184      52
   11181   11178   11187      52   11181   11178   11190      52   11205   11196
   11208       2   11202   11196   11205       2   11202   11196   11208       2
   11199   11196   11202      52   11199   11196   11205      52   11199   11196
   11208      52   11223   11214   11226       2   11220   11214   11223       2
   11220   11214   11226       2   11217   11214   11220      52   11217   11214
   11223      52   11217   11214   11226      52   11241   11232   11244       2
   11238   11232   11241       2   11238   11232   11244       2   11235   11232
   11238      52   11235   11232   11241      52   11235   11232   11244      52
   11259   11250   11262       2   11256   11250   11259       2   11256   11250
   11262       2   11253   11250   11256      52   11253   11250   11259      52
   11253   11250   11262      52   11277   11268   11280       2   11274   11268
   11277       2   11274   11268   11280       2   11271   11268   11274      52
   11271   11268   11277      52   11271   11268   11280      52   11295   11286
   11298       2   11292   11286   11295       2   11292   11286   11298       2
   11289   11286   11292      52   11289   11286   11295      52   11289   11286
   11298      52   11313   11304   11316       2   11310   11304   11313       2
   11310   11304   11316       2   11307   11304   11310      52   11307   11304
   11313      52   11307   11304   11316      52   11331   11322   11334       2
   11328   11322   11331       2   11328   11322   11334       2   11325   11322
   11328      52   11325   11322   11331      52   11325   11322   11334      52
   11349   11340   11352       2   11346   11340   11349       2   11346   11340
   11352       2   11343   11340   11346      52   11343   11340   11349      52
   11343   11340   11352      52   11367   11358   11370       2   11364   11358
   11367       2   11364   11358   11370       2   11361   11358   11364      52
   11361   11358   11367      52   11361   11358   11370      52   11385   11376
   11388       2   11382   11376   11385       2   11382   11376   11388       2
   11379   11376   11382      52   11379   11376   11385      52   11379   11376
   11388      52   11403   11394   11406       2   11400   11394   11403       2
   11400   11394   11406       2   11397   11394   11400      52   11397   11394
   11403      52   11397   11394   11406      52   11421   11412   11424       2
   11418   11412   11421       2   11418   11412   11424       2   11415   11412
   11418      52   11415   11412   11421      52   11415   11412   11424      52
   11439   11430   11442       2   11436   11430   11439       2   11436   11430
   11442       2   11433   11430   11436      52   11433   11430   11439      52
   11433   11430   11442      52   11457   11448   11460       2   11454   11448
   11457       2   11454   11448   11460       2   11451   11448   11454      52
   11451   11448   11457      52   11451   11448   11460      52   11475   11466
   11478       2   11472   11466   11475       2   11472   11466   11478       2
   11469   11466   11472      52   11469   11466   11475      52   11469   11466
   11478      52   11493   11484   11496       2   11490   11484   11493       2
   11490   11484   11496       2   11487   11484   11490      52   11487   11484
   11493      52   11487   11484   11496      52   11511   11502   11514       2
   11508   11502   11511       2   11508   11502   11514       2   11505   11502
   11508      52   11505   11502   11511      52   11505   11502   11514      52
   11529   11520   11532       2   11526   11520   11529       2   11526   11520
   11532       2   11523   11520   11526      52   11523   11520   11529      52
   11523   11520   11532      52   11547   11538   11550       2   11544   11538
   11547       2   11544   11538   11550       2   11541   11538   11544      52
   11541   11538   11547      52   11541   11538   11550      52   11565   11556
   11568       2   11562   11556   11565       2   11562   11556   11568       2
   11559   11556   11562      52   11559   11556   11565      52   11559   11556
   11568      52   11583   11574   11586       2   11580   11574   11583       2
   11580   11574   11586       2   11577   11574   11580      52   11577   11574
   11583      52   11577   11574   11586      52   11601   11592   11604       2
   11598   11592   11601       2   11598   11592   11604       2   11595   11592
   11598      52   11595   11592   11601      52   11595   11592   11604      52
   11619   11610   11622       2   11616   11610   11619       2   11616   11610
   11622       2   11613   11610   11616      52   11613   11610   11619      52
   11613   11610   11622      52   11637   11628   11640       2   11634   11628
   11637       2   11634   11628   11640       2   11631   11628   11634      52
   11631   11628   11637      52   11631   11628   11640      52   11655   11646
   11658       2   11652   11646   11655       2   11652   11646   11658       2
   11649   11646   11652      52   11649   11646   11655      52   11649   11646
   11658      52   11673   11664   11676       2   11670   11664   11673       2
   11670   11664   11676       2   11667   11664   11670      52   11667   11664
   11673      52   11667   11664   11676      52   11691   11682   11694       2
   11688   11682   11691       2   11688   11682   11694       2   11685   11682
   11688      52   11685   11682   11691      52   11685   11682   11694      52
   11709   11700   11712       2   11706   11700   11709       2   11706   11700
   11712       2   11703   11700   11706      52   11703   11700   11709      52
   11703   11700   11712      52   11727   11718   11730       2   11724   11718
   11727       2   11724   11718   11730       2   11721   11718   11724      52
   11721   11718   11727      52   11721   11718   11730      52   11745   11736
   11748       2   11742   11736   11745       2   11742   11736   11748       2
   11739   11736   11742      52   11739   11736   11745      52   11739   11736
   11748      52   11763   11754   11766       2   11760   11754   11763       2
   11760   11754   11766       2   11757   11754   11760      52   11757   11754
   11763      52   11757   11754   11766      52   11781   11772   11784       2
   11778   11772   11781       2   11778   11772   11784       2   11775   11772
   11778      52   11775   11772   11781      52   11775   11772   11784      52
   11799   11790   11802       2   11796   11790   11799       2   11796   11790
   11802       2   11793   11790   11796      52   11793   11790   11799      52
   11793   11790   11802      52   11817   11808   11820       2   11814   11808
   11817       2   11814   11808   11820       2   11811   11808   11814      52
   11811   11808   11817      52   11811   11808   11820      52   11835   11826
   11838       2   11832   11826   11835       2   11832   11826   11838       2
   11829   11826   11832      52   11829   11826   11835      52   11829   11826
   11838      52   11853   11844   11856       2   11850   11844   11853       2
   11850   11844   11856       2   11847   11844   11850      52   11847   11844
   11853      52   11847   11844   11856      52   11871   11862   11874       2
   11868   11862   11871       2   11868   11862   11874       2   11865   11862
   11868      52   11865   11862   11871      52   11865   11862   11874      52
   11889   11880   11892       2   11886   11880   11889       2   11886   11880
   11892       2   11883   11880   11886      52   11883   11880   11889      52
   11883   11880   11892      52   11907   11898   11910       2   11904   11898
   11907       2   11904   11898   11910       2   11901   11898   11904      52
   11901   11898   11907      52   11901   11898   11910      52   11925   11916
   11928       2   11922   11916   11925       2   11922   11916   11928       2
   11919   11916   11922      52   11919   11916   11925      52   11919   11916
   11928      52   11943   11934   11946       2   11940   11934   11943       2
   11940   11934   11946       2   11937   11934   11940      52   11937   11934
   11943      52   11937   11934   11946      52   11961   11952   11964       2
   11958   11952   11961       2   11958   11952   11964       2   11955   11952
   11958      52   11955   11952   11961      52   11955   11952   11964      52
   11979   11970   11982       2   11976   11970   11979       2   11976   11970
   11982       2   11973   11970   11976      52   11973   11970   11979      52
   11973   11970   11982      52   11997   11988   12000       2   11994   11988
   11997       2   11994   11988   12000       2   11991   11988   11994      52
   11991   11988   11997      52   11991   11988   12000      52   12015   12006
   12018       2   12012   12006   12015       2   12012   12006   12018       2
   12009   12006   12012      52   12009   12006   12015      52   12009   12006
   12018      52   12033   12024   12036       2   12030   12024   12033       2
   12030   12024   12036       2   12027   12024   12030      52   12027   12024
   12033      52   12027   12024   12036      52   12051   12042   12054       2
   12048   12042   12051       2   12048   12042   12054       2   12045   12042
   12048      52   12045   12042   12051      52   12045   12042   12054      52
   12069   12060   12072       2   12066   12060   12069       2   12066   12060
   12072       2   12063   12060   12066      52   12063   12060   12069      52
   12063   12060   12072      52   12087   12078   12090       2   12084   12078
   12087       2   12084   12078   12090       2   12081   12078   12084      52
   12081   12078   12087      52   12081   12078   12090      52   12105   12096
   12108       2   12102   12096   12105       2   12102   12096   12108       2
   12099   12096   12102      52   12099   12096   12105      52   12099   12096
   12108      52   12123   12114   12126       2   12120   12114   12123       2
   12120   12114   12126       2   12117   12114   12120      52   12117   12114
   12123      52   12117   12114   12126      52   12141   12132   12144       2
   12138   12132   12141       2   12138   12132   12144       2   12135   12132
   12138      52   12135   12132   12141      52   12135   12132   12144      52
   12159   12150   12162       2   12156   12150   12159       2   12156   12150
   12162       2   12153   12150   12156      52   12153   12150   12159      52
   12153   12150   12162      52   12177   12168   12180       2   12174   12168
   12177       2   12174   12168   12180       2   12171   12168   12174      52
   12171   12168   12177      52   12171   12168   12180      52   12195   12186
   12198       2   12192   12186   12195       2   12192   12186   12198       2
   12189   12186   12192      52   12189   12186   12195      52   12189   12186
   12198      52   12213   12204   12216       2   12210   12204   12213       2
   12210   12204   12216       2   12207   12204   12210      52   12207   12204
   12213      52   12207   12204   12216      52   12231   12222   12234       2
   12228   12222   12231       2   12228   12222   12234       2   12225   12222
   12228      52   12225   12222   12231      52   12225   12222   12234      52
   12249   12240   12252       2   12246   12240   12249       2   12246   12240
   12252       2   12243   12240   12246      52   12243   12240   12249      52
   12243   12240   12252      52   12267   12258   12270       2   12264   12258
   12267       2   12264   12258   12270       2   12261   12258   12264      52
   12261   12258   12267      52   12261   12258   12270      52   12285   12276
   12288       2   12282   12276   12285       2   12282   12276   12288       2
   12279   12276   12282      52   12279   12276   12285      52   12279   12276
   12288      52   12303   12294   12306       2   12300   12294   12303       2
   12300   12294   12306       2   12297   12294   12300      52   12297   12294
   12303      52   12297   12294   12306      52   12321   12312   12324       2
   12318   12312   12321       2   12318   12312   12324       2   12315   12312
   12318      52   12315   12312   12321      52   12315   12312   12324      52
   12339   12330   12342       2   12336   12330   12339       2   12336   12330
   12342       2   12333   12330   12336      52   12333   12330   12339      52
   12333   12330   12342      52   12357   12348   12360       2   12354   12348
   12357       2   12354   12348   12360       2   12351   12348   12354      52
   12351   12348   12357      52   12351   12348   12360      52   12375   12366
   12378       2   12372   12366   12375       2   12372   12366   12378       2
   12369   12366   12372      52   12369   12366   12375      52   12369   12366
   12378      52   12393   12384   12396       2   12390   12384   12393       2
   12390   12384   12396       2   12387   12384   12390      52   12387   12384
   12393      52   12387   12384   12396      52   12411   12402   12414       2
   12408   12402   12411       2   12408   12402   12414       2   12405   12402
   12408      52   12405   12402   12411      52   12405   12402   12414      52
   12429   12420   12432       2   12426   12420   12429       2   12426   12420
   12432       2   12423   12420   12426      52   12423   12420   12429      52
   12423   12420   12432      52   12447   12438   12450       2   12444   12438
   12447       2   12444   12438   12450       2   12441   12438   12444      52
   12441   12438   12447      52   12441   12438   12450      52   12465   12456
   12468       2   12462   12456   12465       2   12462   12456   12468       2
   12459   12456   12462      52   12459   12456   12465      52   12459   12456
   12468      52   12483   12474   12486       2   12480   12474   12483       2
   12480   12474   12486       2   12477   12474   12480      52   12477   12474
   12483      52   12477   12474   12486      52   12501   12492   12504       2
   12498   12492   12501       2   12498   12492   12504       2   12495   12492
   12498      52   12495   12492   12501      52   12495   12492   12504      52
   12519   12510   12522       2   12516   12510   12519       2   12516   12510
   12522       2   12513   12510   12516      52   12513   12510   12519      52
   12513   12510   12522      52   12537   12528   12540       2   12534   12528
   12537       2   12534   12528   12540       2   12531   12528   12534      52
   12531   12528   12537      52   12531   12528   12540      52   12555   12546
   12558       2   12552   12546   12555       2   12552   12546   12558       2
   12549   12546   12552      52   12549   12546   12555      52   12549   12546
   12558      52   12573   12564   12576       2   12570   12564   12573       2
   12570   12564   12576       2   12567   12564   12570      52   12567   12564
   12573      52   12567   12564   12576      52   12591   12582   12594       2
   12588   12582   12591       2   12588   12582   12594       2   12585   12582
   12588      52   12585   12582   12591      52   12585   12582   12594      52
   12609   12600   12612       2   12606   12600   12609       2   12606   12600
   12612       2   12603   12600   12606      52   12603   12600   12609      52
   12603   12600   12612      52   12627   12618   12630       2   12624   12618
   12627       2   12624   12618   12630       2   12621   12618   12624      52
   12621   12618   12627      52   12621   12618   12630      52   12645   12636
   12648       2   12642   12636   12645       2   12642   12636   12648       2
   12639   12636   12642      52   12639   12636   12645      52   12639   12636
   12648      52   12663   12654   12666       2   12660   12654   12663       2
   12660   12654   12666       2   12657   12654   12660      52   12657   12654
   12663      52   12657   12654   12666      52   12681   12672   12684       2
   12678   12672   12681       2   12678   12672   12684       2   12675   12672
   12678      52   12675   12672   12681      52   12675   12672   12684      52
   12699   12690   12702       2   12696   12690   12699       2   12696   12690
   12702       2   12693   12690   12696      52   12693   12690   12699      52
   12693   12690   12702      52   12717   12708   12720       2   12714   12708
   12717       2   12714   12708   12720       2   12711   12708   12714      52
   12711   12708   12717      52   12711   12708   12720      52   12735   12726
   12738       2   12732   12726   12735       2   12732   12726   12738       2
   12729   12726   12732      52   12729   12726   12735      52   12729   12726
   12738      52   12753   12744   12756       2   12750   12744   12753       2
   12750   12744   12756       2   12747   12744   12750      52   12747   12744
   12753      52   12747   12744   12756      52   12771   12762   12774       2
   12768   12762   12771       2   12768   12762   12774       2   12765   12762
   12768      52   12765   12762   12771      52   12765   12762   12774      52
   12789   12780   12792       2   12786   12780   12789       2   12786   12780
   12792       2   12783   12780   12786      52   12783   12780   12789      52
   12783   12780   12792      52   12807   12798   12810       2   12804   12798
   12807       2   12804   12798   12810       2   12801   12798   12804      52
   12801   12798   12807      52   12801   12798   12810      52   12825   12816
   12828       2   12822   12816   12825       2   12822   12816   12828       2
   12819   12816   12822      52   12819   12816   12825      52   12819   12816
   12828      52   12843   12834   12846       2   12840   12834   12843       2
   12840   12834   12846       2   12837   12834   12840      52   12837   12834
   12843      52   12837   12834   12846      52   12861   12852   12864       2
   12858   12852   12861       2   12858   12852   12864       2   12855   12852
   12858      52   12855   12852   12861      52   12855   12852   12864      52
   12879   12870   12882       2   12876   12870   12879       2   12876   12870
   12882       2   12873   12870   12876      52   12873   12870   12879      52
   12873   12870   12882      52   12897   12888   12900       2   12894   12888
   12897       2   12894   12888   12900       2   12891   12888   12894      52
   12891   12888   12897      52   12891   12888   12900      52   12915   12906
   12918       2   12912   12906   12915       2   12912   12906   12918       2
   12909   12906   12912      52   12909   12906   12915      52   12909   12906
   12918      52   12933   12924   12936       2   12930   12924   12933       2
   12930   12924   12936       2   12927   12924   12930      52   12927   12924
   12933      52   12927   12924   12936      52   12951   12942   12954       2
   12948   12942   12951       2   12948   12942   12954       2   12945   12942
   12948      52   12945   12942   12951      52   12945   12942   12954      52
   12969   12960   12972       2   12966   12960   12969       2   12966   12960
   12972       2   12963   12960   12966      52   12963   12960   12969      52
   12963   12960   12972      52   12987   12978   12990       2   12984   12978
   12987       2   12984   12978   12990       2   12981   12978   12984      52
   12981   12978   12987      52   12981   12978   12990      52   13005   12996
   13008       2   13002   12996   13005       2   13002   12996   13008       2
   12999   12996   13002      52   12999   12996   13005      52   12999   12996
   13008      52   13023   13014   13026       2   13020   13014   13023       2
   13020   13014   13026       2   13017   13014   13020      52   13017   13014
   13023      52   13017   13014   13026      52   13041   13032   13044       2
   13038   13032   13041       2   13038   13032   13044       2   13035   13032
   13038      52   13035   13032   13041      52   13035   13032   13044      52
   13059   13050   13062       2   13056   13050   13059       2   13056   13050
   13062       2   13053   13050   13056      52   13053   13050   13059      52
   13053   13050   13062      52   13077   13068   13080       2   13074   13068
   13077       2   13074   13068   13080       2   13071   13068   13074      52
   13071   13068   13077      52   13071   13068   13080      52   13095   13086
   13098       2   13092   13086   13095       2   13092   13086   13098       2
   13089   13086   13092      52   13089   13086   13095      52   13089   13086
   13098      52   13113   13104   13116       2   13110   13104   13113       2
   13110   13104   13116       2   13107   13104   13110      52   13107   13104
   13113      52   13107   13104   13116      52   13131   13122   13134       2
   13128   13122   13131       2   13128   13122   13134       2   13125   13122
   13128      52   13125   13122   13131      52   13125   13122   13134      52
   13149   13140   13152       2   13146   13140   13149       2   13146   13140
   13152       2   13143   13140   13146      52   13143   13140   13149      52
   13143   13140   13152      52   13167   13158   13170       2   13164   13158
   13167       2   13164   13158   13170       2   13161   13158   13164      52
   13161   13158   13167      52   13161   13158   13170      52   13185   13176
   13188       2   13182   13176   13185       2   13182   13176   13188       2
   13179   13176   13182      52   13179   13176   13185      52   13179   13176
   13188      52   13203   13194   13206       2   13200   13194   13203       2
   13200   13194   13206       2   13197   13194   13200      52   13197   13194
   13203      52   13197   13194   13206      52   13221   13212   13224       2
   13218   13212   13221       2   13218   13212   13224       2   13215   13212
   13218      52   13215   13212   13221      52   13215   13212   13224      52
   13239   13230   13242       2   13236   13230   13239       2   13236   13230
   13242       2   13233   13230   13236      52   13233   13230   13239      52
   13233   13230   13242      52   13257   13248   13260       2   13254   13248
   13257       2   13254   13248   13260       2   13251   13248   13254      52
   13251   13248   13257      52   13251   13248   13260      52   13275   13266
   13278       2   13272   13266   13275       2   13272   13266   13278       2
   13269   13266   13272      52   13269   13266   13275      52   13269   13266
   13278      52   13293   13284   13296       2   13290   13284   13293       2
   13290   13284   13296       2   13287   13284   13290      52   13287   13284
   13293      52   13287   13284   13296      52   13311   13302   13314       2
   13308   13302   13311       2   13308   13302   13314       2   13305   13302
   13308      52   13305   13302   13311      52   13305   13302   13314      52
   13329   13320   13332       2   13326   13320   13329       2   13326   13320
   13332       2   13323   13320   13326      52   13323   13320   13329      52
   13323   13320   13332      52   13347   13338   13350       2   13344   13338
   13347       2   13344   13338   13350       2   13341   13338   13344      52
   13341   13338   13347      52   13341   13338   13350      52   13365   13356
   13368       2   13362   13356   13365       2   13362   13356   13368       2
   13359   13356   13362      52   13359   13356   13365      52   13359   13356
   13368      52   13383   13374   13386       2   13380   13374   13383       2
   13380   13374   13386       2   13377   13374   13380      52   13377   13374
   13383      52   13377   13374   13386      52   13401   13392   13404       2
   13398   13392   13401       2   13398   13392   13404       2   13395   13392
   13398      52   13395   13392   13401      52   13395   13392   13404      52
   13419   13410   13422       2   13416   13410   13419       2   13416   13410
   13422       2   13413   13410   13416      52   13413   13410   13419      52
   13413   13410   13422      52   13437   13428   13440       2   13434   13428
   13437       2   13434   13428   13440       2   13431   13428   13434      52
   13431   13428   13437      52   13431   13428   13440      52   13455   13446
   13458       2   13452   13446   13455       2   13452   13446   13458       2
   13449   13446   13452      52   13449   13446   13455      52   13449   13446
   13458      52   13473   13464   13476       2   13470   13464   13473       2
   13470   13464   13476       2   13467   13464   13470      52   13467   13464
   13473      52   13467   13464   13476      52   13491   13482   13494       2
   13488   13482   13491       2   13488   13482   13494       2   13485   13482
   13488      52   13485   13482   13491      52   13485   13482   13494      52
   13509   13500   13512       2   13506   13500   13509       2   13506   13500
   13512       2   13503   13500   13506      52   13503   13500   13509      52
   13503   13500   13512      52   13527   13518   13530       2   13524   13518
   13527       2   13524   13518   13530       2   13521   13518   13524      52
   13521   13518   13527      52   13521   13518   13530      52   13545   13536
   13548       2   13542   13536   13545       2   13542   13536   13548       2
   13539   13536   13542      52   13539   13536   13545      52   13539   13536
   13548      52   13563   13554   13566       2   13560   13554   13563       2
   13560   13554   13566       2   13557   13554   13560      52   13557   13554
   13563      52   13557   13554   13566      52   13581   13572   13584       2
   13578   13572   13581       2   13578   13572   13584       2   13575   13572
   13578      52   13575   13572   13581      52   13575   13572   13584      52
   13599   13590   13602       2   13596   13590   13599       2   13596   13590
   13602       2   13593   13590   13596      52   13593   13590   13599      52
   13593   13590   13602      52   13617   13608   13620       2   13614   13608
   13617       2   13614   13608   13620       2   13611   13608   13614      52
   13611   13608   13617      52   13611   13608   13620      52   13635   13626
   13638       2   13632   13626   13635       2   13632   13626   13638       2
   13629   13626   13632      52   13629   13626   13635      52   13629   13626
   13638      52   13653   13644   13656       2   13650   13644   13653       2
   13650   13644   13656       2   13647   13644   13650      52   13647   13644
   13653      52   13647   13644   13656      52   13671   13662   13674       2
   13668   13662   13671       2   13668   13662   13674       2   13665   13662
   13668      52   13665   13662   13671      52   13665   13662   13674      52
   13689   13680   13692       2   13686   13680   13689       2   13686   13680
   13692       2   13683   13680   13686      52   13683   13680   13689      52
   13683   13680   13692      52   13707   13698   13710       2   13704   13698
   13707       2   13704   13698   13710       2   13701   13698   13704      52
   13701   13698   13707      52   13701   13698   13710      52   13725   13716
   13728       2   13722   13716   13725       2   13722   13716   13728       2
   13719   13716   13722      52   13719   13716   13725      52   13719   13716
   13728      52   13743   13734   13746       2   13740   13734   13743       2
   13740   13734   13746       2   13737   13734   13740      52   13737   13734
   13743      52   13737   13734   13746      52   13761   13752   13764       2
   13758   13752   13761       2   13758   13752   13764       2   13755   13752
   13758      52   13755   13752   13761      52   13755   13752   13764      52
   13779   13770   13782       2   13776   13770   13779       2   13776   13770
   13782       2   13773   13770   13776      52   13773   13770   13779      52
   13773   13770   13782      52   13797   13788   13800       2   13794   13788
   13797       2   13794   13788   13800       2   13791   13788   13794      52
   13791   13788   13797      52   13791   13788   13800      52   13815   13806
   13818       2   13812   13806   13815       2   13812   13806   13818       2
   13809   13806   13812      52   13809   13806   13815      52   13809   13806
   13818      52   13833   13824   13836       2   13830   13824   13833       2
   13830   13824   13836       2   13827   13824   13830      52   13827   13824
   13833      52   13827   13824   13836      52   13851   13842   13854       2
   13848   13842   13851       2   13848   13842   13854       2   13845   13842
   13848      52   13845   13842   13851      52   13845   13842   13854      52
   13869   13860   13872       2   13866   13860   13869       2   13866   13860
   13872       2   13863   13860   13866      52   13863   13860   13869      52
   13863   13860   13872      52   13887   13878   13890       2   13884   13878
   13887       2   13884   13878   13890       2   13881   13878   13884      52
   13881   13878   13887      52   13881   13878   13890      52   13905   13896
   13908       2   13902   13896   13905       2   13902   13896   13908       2
   13899   13896   13902      52   13899   13896   13905      52   13899   13896
   13908      52   13923   13914   13926       2   13920   13914   13923       2
   13920   13914   13926       2   13917   13914   13920      52   13917   13914
   13923      52   13917   13914   13926      52   13941   13932   13944       2
   13938   13932   13941       2   13938   13932   13944       2   13935   13932
   13938      52   13935   13932   13941      52   13935   13932   13944      52
   13959   13950   13962       2   13956   13950   13959       2   13956   13950
   13962       2   13953   13950   13956      52   13953   13950   13959      52
   13953   13950   13962      52   13977   13968   13980       2   13974   13968
   13977       2   13974   13968   13980       2   13971   13968   13974      52
   13971   13968   13977      52   13971   13968   13980      52   13995   13986
   13998       2   13992   13986   13995       2   13992   13986   13998       2
   13989   13986   13992      52   13989   13986   13995      52   13989   13986
   13998      52   14013   14004   14016       2   14010   14004   14013       2
   14010   14004   14016       2   14007   14004   14010      52   14007   14004
   14013      52   14007   14004   14016      52   14031   14022   14034       2
   14028   14022   14031       2   14028   14022   14034       2   14025   14022
   14028      52   14025   14022   14031      52   14025   14022   14034      52
   14049   14040   14052       2   14046   14040   14049       2   14046   14040
   14052       2   14043   14040   14046      52   14043   14040   14049      52
   14043   14040   14052      52   14067   14058   14070       2   14064   14058
   14067       2   14064   14058   14070       2   14061   14058   14064      52
   14061   14058   14067      52   14061   14058   14070      52   14085   14076
   14088       2   14082   14076   14085       2   14082   14076   14088       2
   14079   14076   14082      52   14079   14076   14085      52   14079   14076
   14088      52   14103   14094   14106       2   14100   14094   14103       2
   14100   14094   14106       2   14097   14094   14100      52   14097   14094
   14103      52   14097   14094   14106      52   14121   14112   14124       2
   14118   14112   14121       2   14118   14112   14124       2   14115   14112
   14118      52   14115   14112   14121      52   14115   14112   14124      52
   14139   14130   14142       2   14136   14130   14139       2   14136   14130
   14142       2   14133   14130   14136      52   14133   14130   14139      52
   14133   14130   14142      52   14157   14148   14160       2   14154   14148
   14157       2   14154   14148   14160       2   14151   14148   14154      52
   14151   14148   14157      52   14151   14148   14160      52   14175   14166
   14178       2   14172   14166   14175       2   14172   14166   14178       2
   14169   14166   14172      52   14169   14166   14175      52   14169   14166
   14178      52   14193   14184   14196       2   14190   14184   14193       2
   14190   14184   14196       2   14187   14184   14190      52   14187   14184
   14193      52   14187   14184   14196      52   14211   14202   14214       2
   14208   14202   14211       2   14208   14202   14214       2   14205   14202
   14208      52   14205   14202   14211      52   14205   14202   14214      52
   14229   14220   14232       2   14226   14220   14229       2   14226   14220
   14232       2   14223   14220   14226      52   14223   14220   14229      52
   14223   14220   14232      52   14247   14238   14250       2   14244   14238
   14247       2   14244   14238   14250       2   14241   14238   14244      52
   14241   14238   14247      52   14241   14238   14250      52   14265   14256
   14268       2   14262   14256   14265       2   14262   14256   14268       2
   14259   14256   14262      52   14259   14256   14265      52   14259   14256
   14268      52   14283   14274   14286       2   14280   14274   14283       2
   14280   14274   14286       2   14277   14274   14280      52   14277   14274
   14283      52   14277   14274   14286      52   14301   14292   14304       2
   14298   14292   14301       2   14298   14292   14304       2   14295   14292
   14298      52   14295   14292   14301      52   14295   14292   14304      52
   14319   14310   14322       2   14316   14310   14319       2   14316   14310
   14322       2   14313   14310   14316      52   14313   14310   14319      52
   14313   14310   14322      52   14337   14328   14340       2   14334   14328
   14337       2   14334   14328   14340       2   14331   14328   14334      52
   14331   14328   14337      52   14331   14328   14340      52   14355   14346
   14358       2   14352   14346   14355       2   14352   14346   14358       2
   14349   14346   14352      52   14349   14346   14355      52   14349   14346
   14358      52   14373   14364   14376       2   14370   14364   14373       2
   14370   14364   14376       2   14367   14364   14370      52   14367   14364
   14373      52   14367   14364   14376      52   14391   14382   14394       2
   14388   14382   14391       2   14388   14382   14394       2   14385   14382
   14388      52   14385   14382   14391      52   14385   14382   14394      52
   14409   14400   14412       2   14406   14400   14409       2   14406   14400
   14412       2   14403   14400   14406      52   14403   14400   14409      52
   14403   14400   14412      52   14427   14418   14430       2   14424   14418
   14427       2   14424   14418   14430       2   14421   14418   14424      52
   14421   14418   14427      52   14421   14418   14430      52   14445   14436
   14448       2   14442   14436   14445       2   14442   14436   14448       2
   14439   14436   14442      52   14439   14436   14445      52   14439   14436
   14448      52   14463   14454   14466       2   14460   14454   14463       2
   14460   14454   14466       2   14457   14454   14460      52   14457   14454
   14463      52   14457   14454   14466      52   14481   14472   14484       2
   14478   14472   14481       2   14478   14472   14484       2   14475   14472
   14478      52   14475   14472   14481      52   14475   14472   14484      52
   14499   14490   14502       2   14496   14490   14499       2   14496   14490
   14502       2   14493   14490   14496      52   14493   14490   14499      52
   14493   14490   14502      52   14517   14508   14520       2   14514   14508
   14517       2   14514   14508   14520       2   14511   14508   14514      52
   14511   14508   14517      52   14511   14508   14520      52   14535   14526
   14538       2   14532   14526   14535       2   14532   14526   14538       2
   14529   14526   14532      52   14529   14526   14535      52   14529   14526
   14538      52   14553   14544   14556       2   14550   14544   14553       2
   14550   14544   14556       2   14547   14544   14550      52   14547   14544
   14553      52   14547   14544   14556      52   14571   14562   14574       2
   14568   14562   14571       2   14568   14562   14574       2   14565   14562
   14568      52   14565   14562   14571      52   14565   14562   14574      52
   14589   14580   14592       2   14586   14580   14589       2   14586   14580
   14592       2   14583   14580   14586      52   14583   14580   14589      52
   14583   14580   14592      52   14607   14598   14610       2   14604   14598
   14607       2   14604   14598   14610       2   14601   14598   14604      52
   14601   14598   14607      52   14601   14598   14610      52   14625   14616
   14628       2   14622   14616   14625       2   14622   14616   14628       2
   14619   14616   14622      52   14619   14616   14625      52   14619   14616
   14628      52   14643   14634   14646       2   14640   14634   14643       2
   14640   14634   14646       2   14637   14634   14640      52   14637   14634
   14643      52   14637   14634   14646      52   14661   14652   14664       2
   14658   14652   14661       2   14658   14652   14664       2   14655   14652
   14658      52   14655   14652   14661      52   14655   14652   14664      52
   14679   14670   14682       2   14676   14670   14679       2   14676   14670
   14682       2   14673   14670   14676      52   14673   14670   14679      52
   14673   14670   14682      52   14697   14688   14700       2   14694   14688
   14697       2   14694   14688   14700       2   14691   14688   14694      52
   14691   14688   14697      52   14691   14688   14700      52   14715   14706
   14718       2   14712   14706   14715       2   14712   14706   14718       2
   14709   14706   14712      52   14709   14706   14715      52   14709   14706
   14718      52   14733   14724   14736       2   14730   14724   14733       2
   14730   14724   14736       2   14727   14724   14730      52   14727   14724
   14733      52   14727   14724   14736      52   14751   14742   14754       2
   14748   14742   14751       2   14748   14742   14754       2   14745   14742
   14748      52   14745   14742   14751      52   14745   14742   14754      52
   14769   14760   14772       2   14766   14760   14769       2   14766   14760
   14772       2   14763   14760   14766      52   14763   14760   14769      52
   14763   14760   14772      52   14787   14778   14790       2   14784   14778
   14787       2   14784   14778   14790       2   14781   14778   14784      52
   14781   14778   14787      52   14781   14778   14790      52   14805   14796
   14808       2   14802   14796   14805       2   14802   14796   14808       2
   14799   14796   14802      52   14799   14796   14805      52   14799   14796
   14808      52   14823   14814   14826       2   14820   14814   14823       2
   14820   14814   14826       2   14817   14814   14820      52   14817   14814
   14823      52   14817   14814   14826      52   14841   14832   14844       2
   14838   14832   14841       2   14838   14832   14844       2   14835   14832
   14838      52   14835   14832   14841      52   14835   14832   14844      52
   14859   14850   14862       2   14856   14850   14859       2   14856   14850
   14862       2   14853   14850   14856      52   14853   14850   14859      52
   14853   14850   14862      52   14877   14868   14880       2   14874   14868
   14877       2   14874   14868   14880       2   14871   14868   14874      52
   14871   14868   14877      52   14871   14868   14880      52   14895   14886
   14898       2   14892   14886   14895       2   14892   14886   14898       2
   14889   14886   14892      52   14889   14886   14895      52   14889   14886
   14898      52   14913   14904   14916       2   14910   14904   14913       2
   14910   14904   14916       2   14907   14904   14910      52   14907   14904
   14913      52   14907   14904   14916      52   14931   14922   14934       2
   14928   14922   14931       2   14928   14922   14934       2   14925   14922
   14928      52   14925   14922   14931      52   14925   14922   14934      52
   14949   14940   14952       2   14946   14940   14949       2   14946   14940
   14952       2   14943   14940   14946      52   14943   14940   14949      52
   14943   14940   14952      52   14967   14958   14970       2   14964   14958
   14967       2   14964   14958   14970       2   14961   14958   14964      52
   14961   14958   14967      52   14961   14958   14970      52   14985   14976
   14988       2   14982   14976   14985       2   14982   14976   14988       2
   14979   14976   14982      52   14979   14976   14985      52   14979   14976
   14988      52   15003   14994   15006       2   15000   14994   15003       2
   15000   14994   15006       2   14997   14994   15000      52   14997   14994
   15003      52   14997   14994   15006      52   15021   15012   15024       2
   15018   15012   15021       2   15018   15012   15024       2   15015   15012
   15018      52   15015   15012   15021      52   15015   15012   15024      52
   15039   15030   15042       2   15036   15030   15039       2   15036   15030
   15042       2   15033   15030   15036      52   15033   15030   15039      52
   15033   15030   15042      52   15057   15048   15060       2   15054   15048
   15057       2   15054   15048   15060       2   15051   15048   15054      52
   15051   15048   15057      52   15051   15048   15060      52   15075   15066
   15078       2   15072   15066   15075       2   15072   15066   15078       2
   15069   15066   15072      52   15069   15066   15075      52   15069   15066
   15078      52   15093   15084   15096       2   15090   15084   15093       2
   15090   15084   15096       2   15087   15084   15090      52   15087   15084
   15093      52   15087   15084   15096      52   15111   15102   15114       2
   15108   15102   15111       2   15108   15102   15114       2   15105   15102
   15108      52   15105   15102   15111      52   15105   15102   15114      52
   15129   15120   15132       2   15126   15120   15129       2   15126   15120
   15132       2   15123   15120   15126      52   15123   15120   15129      52
   15123   15120   15132      52   15147   15138   15150       2   15144   15138
   15147       2   15144   15138   15150       2   15141   15138   15144      52
   15141   15138   15147      52   15141   15138   15150      52   15165   15156
   15168       2   15162   15156   15165       2   15162   15156   15168       2
   15159   15156   15162      52   15159   15156   15165      52   15159   15156
   15168      52   15183   15174   15186       2   15180   15174   15183       2
   15180   15174   15186       2   15177   15174   15180      52   15177   15174
   15183      52   15177   15174   15186      52   15201   15192   15204       2
   15198   15192   15201       2   15198   15192   15204       2   15195   15192
   15198      52   15195   15192   15201      52   15195   15192   15204      52
   15219   15210   15222       2   15216   15210   15219       2   15216   15210
   15222       2   15213   15210   15216      52   15213   15210   15219      52
   15213   15210   15222      52   15237   15228   15240       2   15234   15228
   15237       2   15234   15228   15240       2   15231   15228   15234      52
   15231   15228   15237      52   15231   15228   15240      52   15255   15246
   15258       2   15252   15246   15255       2   15252   15246   15258       2
   15249   15246   15252      52   15249   15246   15255      52   15249   15246
   15258      52   15273   15264   15276       2   15270   15264   15273       2
   15270   15264   15276       2   15267   15264   15270      52   15267   15264
   15273      52   15267   15264   15276      52   15291   15282   15294       2
   15288   15282   15291       2   15288   15282   15294       2   15285   15282
   15288      52   15285   15282   15291      52   15285   15282   15294      52
   15309   15300   15312       2   15306   15300   15309       2   15306   15300
   15312       2   15303   15300   15306      52   15303   15300   15309      52
   15303   15300   15312      52   15327   15318   15330       2   15324   15318
   15327       2   15324   15318   15330       2   15321   15318   15324      52
   15321   15318   15327      52   15321   15318   15330      52   15345   15336
   15348       2   15342   15336   15345       2   15342   15336   15348       2
   15339   15336   15342      52   15339   15336   15345      52   15339   15336
   15348      52   15363   15354   15366       2   15360   15354   15363       2
   15360   15354   15366       2   15357   15354   15360      52   15357   15354
   15363      52   15357   15354   15366      52   15381   15372   15384       2
   15378   15372   15381       2   15378   15372   15384       2   15375   15372
   15378      52   15375   15372   15381      52   15375   15372   15384      52
   15399   15390   15402       2   15396   15390   15399       2   15396   15390
   15402       2   15393   15390   15396      52   15393   15390   15399      52
   15393   15390   15402      52   15417   15408   15420       2   15414   15408
   15417       2   15414   15408   15420       2   15411   15408   15414      52
   15411   15408   15417      52   15411   15408   15420      52   15435   15426
   15438       2   15432   15426   15435       2   15432   15426   15438       2
   15429   15426   15432      52   15429   15426   15435      52   15429   15426
   15438      52   15453   15444   15456       2   15450   15444   15453       2
   15450   15444   15456       2   15447   15444   15450      52   15447   15444
   15453      52   15447   15444   15456      52   15471   15462   15474       2
   15468   15462   15471       2   15468   15462   15474       2   15465   15462
   15468      52   15465   15462   15471      52   15465   15462   15474      52
   15489   15480   15492       2   15486   15480   15489       2   15486   15480
   15492       2   15483   15480   15486      52   15483   15480   15489      52
   15483   15480   15492      52   15507   15498   15510       2   15504   15498
   15507       2   15504   15498   15510       2   15501   15498   15504      52
   15501   15498   15507      52   15501   15498   15510      52   15525   15516
   15528       2   15522   15516   15525       2   15522   15516   15528       2
   15519   15516   15522      52   15519   15516   15525      52   15519   15516
   15528      52   15543   15534   15546       2   15540   15534   15543       2
   15540   15534   15546       2   15537   15534   15540      52   15537   15534
   15543      52   15537   15534   15546      52   15561   15552   15564       2
   15558   15552   15561       2   15558   15552   15564       2   15555   15552
   15558      52   15555   15552   15561      52   15555   15552   15564      52
   15579   15570   15582       2   15576   15570   15579       2   15576   15570
   15582       2   15573   15570   15576      52   15573   15570   15579      52
   15573   15570   15582      52   15597   15588   15600       2   15594   15588
   15597       2   15594   15588   15600       2   15591   15588   15594      52
   15591   15588   15597      52   15591   15588   15600      52   15615   15606
   15618       2   15612   15606   15615       2   15612   15606   15618       2
   15609   15606   15612      52   15609   15606   15615      52   15609   15606
   15618      52   15633   15624   15636       2   15630   15624   15633       2
   15630   15624   15636       2   15627   15624   15630      52   15627   15624
   15633      52   15627   15624   15636      52   15651   15642   15654       2
   15648   15642   15651       2   15648   15642   15654       2   15645   15642
   15648      52   15645   15642   15651      52   15645   15642   15654      52
   15669   15660   15672       2   15666   15660   15669       2   15666   15660
   15672       2   15663   15660   15666      52   15663   15660   15669      52
   15663   15660   15672      52   15687   15678   15690       2   15684   15678
   15687       2   15684   15678   15690       2   15681   15678   15684      52
   15681   15678   15687      52   15681   15678   15690      52   15705   15696
   15708       2   15702   15696   15705       2   15702   15696   15708       2
   15699   15696   15702      52   15699   15696   15705      52   15699   15696
   15708      52   15723   15714   15726       2   15720   15714   15723       2
   15720   15714   15726       2   15717   15714   15720      52   15717   15714
   15723      52   15717   15714   15726      52   15741   15732   15744       2
   15738   15732   15741       2   15738   15732   15744       2   15735   15732
   15738      52   15735   15732   15741      52   15735   15732   15744      52
   15759   15750   15762       2   15756   15750   15759       2   15756   15750
   15762       2   15753   15750   15756      52   15753   15750   15759      52
   15753   15750   15762      52   15777   15768   15780       2   15774   15768
   15777       2   15774   15768   15780       2   15771   15768   15774      52
   15771   15768   15777      52   15771   15768   15780      52   15795   15786
   15798       2   15792   15786   15795       2   15792   15786   15798       2
   15789   15786   15792      52   15789   15786   15795      52   15789   15786
   15798      52   15813   15804   15816       2   15810   15804   15813       2
   15810   15804   15816       2   15807   15804   15810      52   15807   15804
   15813      52   15807   15804   15816      52   15831   15822   15834       2
   15828   15822   15831       2   15828   15822   15834       2   15825   15822
   15828      52   15825   15822   15831      52   15825   15822   15834      52
   15849   15840   15852       2   15846   15840   15849       2   15846   15840
   15852       2   15843   15840   15846      52   15843   15840   15849      52
   15843   15840   15852      52   15867   15858   15870       2   15864   15858
   15867       2   15864   15858   15870       2   15861   15858   15864      52
   15861   15858   15867      52   15861   15858   15870      52   15885   15876
   15888       2   15882   15876   15885       2   15882   15876   15888       2
   15879   15876   15882      52   15879   15876   15885      52   15879   15876
   15888      52   15903   15894   15906       2   15900   15894   15903       2
   15900   15894   15906       2   15897   15894   15900      52   15897   15894
   15903      52   15897   15894   15906      52   15921   15912   15924       2
   15918   15912   15921       2   15918   15912   15924       2   15915   15912
   15918      52   15915   15912   15921      52   15915   15912   15924      52
   15939   15930   15942       2   15936   15930   15939       2   15936   15930
   15942       2   15933   15930   15936      52   15933   15930   15939      52
   15933   15930   15942      52   15957   15948   15960       2   15954   15948
   15957       2   15954   15948   15960       2   15951   15948   15954      52
   15951   15948   15957      52   15951   15948   15960      52   15975   15966
   15978       2   15972   15966   15975       2   15972   15966   15978       2
   15969   15966   15972      52   15969   15966   15975      52   15969   15966
   15978      52   15993   15984   15996       2   15990   15984   15993       2
   15990   15984   15996       2   15987   15984   15990      52   15987   15984
   15993      52   15987   15984   15996      52   16011   16002   16014       2
   16008   16002   16011       2   16008   16002   16014       2   16005   16002
   16008      52   16005   16002   16011      52   16005   16002   16014      52
   16029   16020   16032       2   16026   16020   16029       2   16026   16020
   16032       2   16023   16020   16026      52   16023   16020   16029      52
   16023   16020   16032      52   16047   16038   16050       2   16044   16038
   16047       2   16044   16038   16050       2   16041   16038   16044      52
   16041   16038   16047      52   16041   16038   16050      52   16065   16056
   16068       2   16062   16056   16065       2   16062   16056   16068       2
   16059   16056   16062      52   16059   16056   16065      52   16059   16056
   16068      52   16083   16074   16086       2   16080   16074   16083       2
   16080   16074   16086       2   16077   16074   16080      52   16077   16074
   16083      52   16077   16074   16086      52   16101   16092   16104       2
   16098   16092   16101       2   16098   16092   16104       2   16095   16092
   16098      52   16095   16092   16101      52   16095   16092   16104      52
   16119   16110   16122       2   16116   16110   16119       2   16116   16110
   16122       2   16113   16110   16116      52   16113   16110   16119      52
   16113   16110   16122      52   16137   16128   16140       2   16134   16128
   16137       2   16134   16128   16140       2   16131   16128   16134      52
   16131   16128   16137      52   16131   16128   16140      52   16155   16146
   16158       2   16152   16146   16155       2   16152   16146   16158       2
   16149   16146   16152      52   16149   16146   16155      52   16149   16146
   16158      52   16173   16164   16176       2   16170   16164   16173       2
   16170   16164   16176       2   16167   16164   16170      52   16167   16164
   16173      52   16167   16164   16176      52   16191   16182   16194       2
   16188   16182   16191       2   16188   16182   16194       2   16185   16182
   16188      52   16185   16182   16191      52   16185   16182   16194      52
   16209   16200   16212       2   16206   16200   16209       2   16206   16200
   16212       2   16203   16200   16206      52   16203   16200   16209      52
   16203   16200   16212      52   16227   16218   16230       2   16224   16218
   16227       2   16224   16218   16230       2   16221   16218   16224      52
   16221   16218   16227      52   16221   16218   16230      52   16245   16236
   16248       2   16242   16236   16245       2   16242   16236   16248       2
   16239   16236   16242      52   16239   16236   16245      52   16239   16236
   16248      52   16263   16254   16266       2   16260   16254   16263       2
   16260   16254   16266       2   16257   16254   16260      52   16257   16254
   16263      52   16257   16254   16266      52   16281   16272   16284       2
   16278   16272   16281       2   16278   16272   16284       2   16275   16272
   16278      52   16275   16272   16281      52   16275   16272   16284      52
   16299   16290   16302       2   16296   16290   16299       2   16296   16290
   16302       2   16293   16290   16296      52   16293   16290   16299      52
   16293   16290   16302      52   16317   16308   16320       2   16314   16308
   16317       2   16314   16308   16320       2   16311   16308   16314      52
   16311   16308   16317      52   16311   16308   16320      52   16335   16326
   16338       2   16332   16326   16335       2   16332   16326   16338       2
   16329   16326   16332      52   16329   16326   16335      52   16329   16326
   16338      52   16353   16344   16356       2   16350   16344   16353       2
   16350   16344   16356       2   16347   16344   16350      52   16347   16344
   16353      52   16347   16344   16356      52   16371   16362   16374       2
   16368   16362   16371       2   16368   16362   16374       2   16365   16362
   16368      52   16365   16362   16371      52   16365   16362   16374      52
   16389   16380   16392       2   16386   16380   16389       2   16386   16380
   16392       2   16383   16380   16386      52   16383   16380   16389      52
   16383   16380   16392      52   16407   16398   16410       2   16404   16398
   16407       2   16404   16398   16410       2   16401   16398   16404      52
   16401   16398   16407      52   16401   16398   16410      52   16425   16416
   16428       2   16422   16416   16425       2   16422   16416   16428       2
   16419   16416   16422      52   16419   16416   16425      52   16419   16416
   16428      52   16443   16434   16446       2   16440   16434   16443       2
   16440   16434   16446       2   16437   16434   16440      52   16437   16434
   16443      52   16437   16434   16446      52   16461   16452   16464       2
   16458   16452   16461       2   16458   16452   16464       2   16455   16452
   16458      52   16455   16452   16461      52   16455   16452   16464      52
   16479   16470   16482       2   16476   16470   16479       2   16476   16470
   16482       2   16473   16470   16476      52   16473   16470   16479      52
   16473   16470   16482      52   16497   16488   16500       2   16494   16488
   16497       2   16494   16488   16500       2   16491   16488   16494      52
   16491   16488   16497      52   16491   16488   16500      52   16515   16506
   16518       2   16512   16506   16515       2   16512   16506   16518       2
   16509   16506   16512      52   16509   16506   16515      52   16509   16506
   16518      52   16533   16524   16536       2   16530   16524   16533       2
   16530   16524   16536       2   16527   16524   16530      52   16527   16524
   16533      52   16527   16524   16536      52   16551   16542   16554       2
   16548   16542   16551       2   16548   16542   16554       2   16545   16542
   16548      52   16545   16542   16551      52   16545   16542   16554      52
   16569   16560   16572       2   16566   16560   16569       2   16566   16560
   16572       2   16563   16560   16566      52   16563   16560   16569      52
   16563   16560   16572      52   16587   16578   16590       2   16584   16578
   16587       2   16584   16578   16590       2   16581   16578   16584      52
   16581   16578   16587      52   16581   16578   16590      52   16605   16596
   16608       2   16602   16596   16605       2   16602   16596   16608       2
   16599   16596   16602      52   16599   16596   16605      52   16599   16596
   16608      52   16623   16614   16626       2   16620   16614   16623       2
   16620   16614   16626       2   16617   16614   16620      52   16617   16614
   16623      52   16617   16614   16626      52   16641   16632   16644       2
   16638   16632   16641       2   16638   16632   16644       2   16635   16632
   16638      52   16635   16632   16641      52   16635   16632   16644      52
   16659   16650   16662       2   16656   16650   16659       2   16656   16650
   16662       2   16653   16650   16656      52   16653   16650   16659      52
   16653   16650   16662      52   16677   16668   16680       2   16674   16668
   16677       2   16674   16668   16680       2   16671   16668   16674      52
   16671   16668   16677      52   16671   16668   16680      52   16695   16686
   16698       2   16692   16686   16695       2   16692   16686   16698       2
   16689   16686   16692      52   16689   16686   16695      52   16689   16686
   16698      52   16713   16704   16716       2   16710   16704   16713       2
   16710   16704   16716       2   16707   16704   16710      52   16707   16704
   16713      52   16707   16704   16716      52   16731   16722   16734       2
   16728   16722   16731       2   16728   16722   16734       2   16725   16722
   16728      52   16725   16722   16731      52   16725   16722   16734      52
   16749   16740   16752       2   16746   16740   16749       2   16746   16740
   16752       2   16743   16740   16746      52   16743   16740   16749      52
   16743   16740   16752      52   16767   16758   16770       2   16764   16758
   16767       2   16764   16758   16770       2   16761   16758   16764      52
   16761   16758   16767      52   16761   16758   16770      52   16785   16776
   16788       2   16782   16776   16785       2   16782   16776   16788       2
   16779   16776   16782      52   16779   16776   16785      52   16779   16776
   16788      52
%FLAG ANGLES_WITHOUT_HYDROGEN                                                   
%FORMAT(10I8)                                                                   
     222     177     225       1     201     117     204       1      99      18
     210       6      90      69     189       6      81      78     117       7
      78     117     201       9      78     117     204      10      75      78
      81      11      75      78     117       7      72      75      78      11
      69      66      81      12      66      63      72      11      66      69
      90      14      66      69     189      14      66      81      78      11
      63      60      87      15      63      66      69      12      63      66
      81      11      63      72      75      11      60      57      69      16
      60      63      66      17      60      63      72      17      57      60
      63      20      57      60      87      21      57      69      66      22
      57      69      90      23      57      69     189      23      54      57
      60      25      54      57      69      26      51      54      57      27
      42      39      51      29      42      45      48      30      39      36
      93      31      39      42      45      32      39      51      54      34
      36      33      48      36      36      39      42      37      36      39
      51      38      33      36      39      38      33      36      93      39
      33      48      45      40      30      33      36      34      30      33
      48      43      27      30      33      34      24      21      27      44
      21      18      99      45      21      18     210      45      21      24
      96      46      21      27      30      38      18      21      24      48
      18      21      27      49      15      12     177       7      12     177
     222       9      12     177     225      10       9       6      18      12
       9      12      15      11       9      12     177       7       6       3
      24      17       6       9      12      11       6      18      21      50
       6      18      99      14       6      18     210      14       3       0
      15      11       3       6       9      11       3       6      18      12
       3      24      21      51       3      24      96      15       0       3
       6      11       0       3      24      17       0      15      12      11
     231     237     234      53     249     255     252      53     267     273
     270      53     285     291     288      53     303     309     306      53
     321     327     324      53     339     345     342      53     357     363
     360      53     375     381     378      53     393     399     396      53
     411     417     414      53     429     435     432      53     447     453
     450      53     465     471     468      53     483     489     486      53
     501     507     504      53     519     525     522      53     537     543
     540      53     555     561     558      53     573     579     576      53
     591     597     594      53     609     615     612      53     627     633
     630      53     645     651     648      53     663     669     666      53
     681     687     684      53     699     705     702      53     717     723
     720      53     735     741     738      53     753     759     756      53
     771     777     774      53     789     795     792      53     807     813
     810      53     825     831     828      53     843     849     846      53
     861     867     864      53     879     885     882      53     897     903
     900      53     915     921     918      53     933     939     936      53
     951     957     954      53     969     975     972      53     987     993
     990      53    1005    1011    1008      53    1023    1029    1026      53
    1041    1047    1044      53    1059    1065    1062      53    1077    1083
    1080      53    1095    1101    1098      53    1113    1119    1116      53
    1131    1137    1134      53    1149    1155    1152      53    1167    1173
    1170      53    1185    1191    1188      53    1203    1209    1206      53
    1221    1227    1224      53    1239    1245    1242      53    1257    1263
    1260      53    1275    1281    1278      53    1293    1299    1296      53
    1311    1317    1314      53    1329    1335    1332      53    1347    1353
    1350      53    1365    1371    1368      53    1383    1389    1386      53
    1401    1407    1404      53    1419    1425    1422      53    1437    1443
    1440      53    1455    1461    1458      53    1473    1479    1476      53
    1491    1497    1494      53    1509    1515    1512      53    1527    1533
    1530      53    1545    1551    1548      53    1563    1569    1566      53
    1581    1587    1584      53    1599    1605    1602      53    1617    1623
    1620      53    1635    1641    1638      53    1653    1659    1656      53
    1671    1677    1674      53    1689    1695    1692      53    1707    1713
    1710      53    1725    1731    1728      53    1743    1749    1746      53
    1761    1767    1764      53    1779    1785    1782      53    1797    1803
    1800      53    1815    1821    1818      53    1833    1839    1836      53
    1851    1857    1854      53    1869    1875    1872      53    1887    1893
    1890      53    1905    1911    1908      53    1923    1929    1926      53
    1941    1947    1944      53    1959    1965    1962      53    1977    1983
    1980      53    1995    2001    1998      53    2013    2019    2016      53
    2031    2037    2034      53    2049    2055    2052      53    2067    2073
    2070      53    2085    2091    2088      53    2103    2109    2106      53
    2121    2127    2124      53    2139    2145    2142      53    2157    2163
    2160      53    2175    2181    2178      53    2193    2199    2196      53
    2211    2217    2214      53    2229    2235    2232      53    2247    2253
    2250      53    2265    2271    2268      53    2283    2289    2286      53
    2301    2307    2304      53    2319    2325    2322      53    2337    2343
    2340      53    2355    2361    2358      53    2373    2379    2376      53
    2391    2397    2394      53    2409    2415    2412      53    2427    2433
    2430      53    2445    2451    2448      53    2463    2469    2466      53
    2481    2487    2484      53    2499    2505    2502      53    2517    2523
    2520      53    2535    2541    2538      53    2553    2559    2556      53
    2571    2577    2574      53    2589    2595    2592      53    2607    2613
    2610      53    2625    2631    2628      53    2643    2649    2646      53
    2661    2667    2664      53    2679    2685    2682      53    2697    2703
    2700      53    2715    2721    2718      53    2733    2739    2736      53
    2751    2757    2754      53    2769    2775    2772      53    2787    2793
    2790      53    2805    2811    2808      53    2823    2829    2826      53
    2841    2847    2844      53    2859    2865    2862      53    2877    2883
    2880      53    2895    2901    2898      53    2913    2919    2916      53
    2931    2937    2934      53    2949    2955    2952      53    2967    2973
    2970      53    2985    2991    2988      53    3003    3009    3006      53
    3021    3027    3024      53    3039    3045    3042      53    3057    3063
    3060      53    3075    3081    3078      53    3093    3099    3096      53
    3111    3117    3114      53    3129    3135    3132      53    3147    3153
    3150      53    3165    3171    3168      53    3183    3189    3186      53
    3201    3207    3204      53    3219    3225    3222      53    3237    3243
    3240      53    3255    3261    3258      53    3273    3279    3276      53
    3291    3297    3294      53    3309    3315    3312      53    3327    3333
    3330      53    3345    3351    3348      53    3363    3369    3366      53
    3381    3387    3384      53    3399    3405    3402      53    3417    3423
    3420      53    3435    3441    3438      53    3453    3459    3456      53
    3471    3477    3474      53    3489    3495    3492      53    3507    3513
    3510      53    3525    3531    3528      53    3543    3549    3546      53
    3561    3567    3564      53    3579    3585    3582      53    3597    3603
    3600      53    3615    3621    3618      53    3633    3639    3636      53
    3651    3657    3654      53    3669    3675    3672      53    3687    3693
    3690      53    3705    3711    3708      53    3723    3729    3726      53
    3741    3747    3744      53    3759    3765    3762      53    3777    3783
    3780      53    3795    3801    3798      53    3813    3819    3816      53
    3831    3837    3834      53    3849    3855    3852      53    3867    3873
    3870      53    3885    3891    3888      53    3903    3909    3906      53
    3921    3927    3924      53    3939    3945    3942      53    3957    3963
    3960      53    3975    3981    3978      53    3993    3999    3996      53
    4011    4017    4014      53    4029    4035    4032      53    4047    4053
    4050      53    4065    4071    4068      53    4083    4089    4086      53
    4101    4107    4104      53    4119    4125    4122      53    4137    4143
    4140      53    4155    4161    4158      53    4173    4179    4176      53
    4191    4197    4194      53    4209    4215    4212      53    4227    4233
    4230      53    4245    4251    4248      53    4263    4269    4266      53
    4281    4287    4284      53    4299    4305    4302      53    4317    4323
    4320      53    4335    4341    4338      53    4353    4359    4356      53
    4371    4377    4374      53    4389    4395    4392      53    4407    4413
    4410      53    4425    4431    4428      53    4443    4449    4446      53
    4461    4467    4464      53    4479    4485    4482      53    4497    4503
    4500      53    4515    4521    4518      53    4533    4539    4536      53
    4551    4557    4554      53    4569    4575    4572      53    4587    4593
    4590      53    4605    4611    4608      53    4623    4629    4626      53
    4641    4647    4644      53    4659    4665    4662      53    4677    4683
    4680      53    4695    4701    4698      53    4713    4719    4716      53
    4731    4737    4734      53    4749    4755    4752      53    4767    4773
    4770      53    4785    4791    4788      53    4803    4809    4806      53
    4821    4827    4824      53    4839    4845    4842      53    4857    4863
    4860      53    4875    4881    4878      53    4893    4899    4896      53
    4911    4917    4914      53    4929    4935    4932      53    4947    4953
    4950      53    4965    4971    4968      53    4983    4989    4986      53
    5001    5007    5004      53    5019    5025    5022      53    5037    5043
    5040      53    5055    5061    5058      53    5073    5079    5076      53
    5091    5097    5094      53    5109    5115    5112      53    5127    5133
    5130      53    5145    5151    5148      53    5163    5169    5166      53
    5181    5187    5184      53    5199    5205    5202      53    5217    5223
    5220      53    5235    5241    5238      53    5253    5259    5256      53
    5271    5277    5274      53    5289    5295    5292      53    5307    5313
    5310      53    5325    5331    5328      53    5343    5349    5346      53
    5361    5367    5364      53    5379    5385    5382      53    5397    5403
    5400      53    5415    5421    5418      53    5433    5439    5436      53
    5451    5457    5454      53    5469    5475    5472      53    5487    5493
    5490      53    5505    5511    5508      53    5523    5529    5526      53
    5541    5547    5544      53    5559    5565    5562      53    5577    5583
    5580      53    5595    5601    5598      53    5613    5619    5616      53
    5631    5637    5634      53    5649    5655    5652      53    5667    5673
    5670      53    5685    5691    5688      53    5703    5709    5706      53
    5721    5727    5724      53    5739    5745    5742      53    5757    5763
    5760      53    5775    5781    5778      53    5793    5799    5796      53
    5811    5817    5814      53    5829    5835    5832      53    5847    5853
    5850      53    5865    5871    5868      53    5883    5889    5886      53
    5901    5907    5904      53    5919    5925    5922      53    5937    5943
    5940      53    5955    5961    5958      53    5973    5979    5976      53
    5991    5997    5994      53    6009    6015    6012      53    6027    6033
    6030      53    6045    6051    6048      53    6063    6069    6066      53
    6081    6087    6084      53    6099    6105    6102      53    6117    6123
    6120      53    6135    6141    6138      53    6153    6159    6156      53
    6171    6177    6174      53    6189    6195    6192      53    6207    6213
    6210      53    6225    6231    6228      53    6243    6249    6246      53
    6261    6267    6264      53    6279    6285    6282      53    6297    6303
    6300      53    6315    6321    6318      53    6333    6339    6336      53
    6351    6357    6354      53    6369    6375    6372      53    6387    6393
    6390      53    6405    6411    6408      53    6423    6429    6426      53
    6441    6447    6444      53    6459    6465    6462      53    6477    6483
    6480      53    6495    6501    6498      53    6513    6519    6516      53
    6531    6537    6534      53    6549    6555    6552      53    6567    6573
    6570      53    6585    6591    6588      53    6603    6609    6606      53
    6621    6627    6624      53    6639    6645    6642      53    6657    6663
    6660      53    6675    6681    6678      53    6693    6699    6696      53
    6711    6717    6714      53    6729    6735    6732      53    6747    6753
    6750      53    6765    6771    6768      53    6783    6789    6786      53
    6801    6807    6804      53    6819    6825    6822      53    6837    6843
    6840      53    6855    6861    6858      53    6873    6879    6876      53
    6891    6897    6894      53    6909    6915    6912      53    6927    6933
    6930      53    6945    6951    6948      53    6963    6969    6966      53
    6981    6987    6984      53    6999    7005    7002      53    7017    7023
    7020      53    7035    7041    7038      53    7053    7059    7056      53
    7071    7077    7074      53    7089    7095    7092      53    7107    7113
    7110      53    7125    7131    7128      53    7143    7149    7146      53
    7161    7167    7164      53    7179    7185    7182      53    7197    7203
    7200      53    7215    7221    7218      53    7233    7239    7236      53
    7251    7257    7254      53    7269    7275    7272      53    7287    7293
    7290      53    7305    7311    7308      53    7323    7329    7326      53
    7341    7347    7344      53    7359    7365    7362      53    7377    7383
    7380      53    7395    7401    7398      53    7413    7419    7416      53
    7431    7437    7434      53    7449    7455    7452      53    7467    7473
    7470      53    7485    7491    7488      53    7503    7509    7506      53
    7521    7527    7524      53    7539    7545    7542      53    7557    7563
    7560      53    7575    7581    7578      53    7593    7599    7596      53
    7611    7617    7614      53    7629    7635    7632      53    7647    7653
    7650      53    7665    7671    7668      53    7683    7689    7686      53
    7701    7707    7704      53    7719    7725    7722      53    7737    7743
    7740      53    7755    7761    7758      53    7773    7779    7776      53
    7791    7797    7794      53    7809    7815    7812      53    7827    7833
    7830      53    7845    7851    7848      53    7863    7869    7866      53
    7881    7887    7884      53    7899    7905    7902      53    7917    7923
    7920      53    7935    7941    7938      53    7953    7959    7956      53
    7971    7977    7974      53    7989    7995    7992      53    8007    8013
    8010      53    8025    8031    8028      53    8043    8049    8046      53
    8061    8067    8064      53    8079    8085    8082      53    8097    8103
    8100      53    8115    8121    8118      53    8133    8139    8136      53
    8151    8157    8154      53    8169    8175    8172      53    8187    8193
    8190      53    8205    8211    8208      53    8223    8229    8226      53
    8241    8247    8244      53    8259    8265    8262      53    8277    8283
    8280      53    8295    8301    8298      53    8313    8319    8316      53
    8331    8337    8334      53    8349    8355    8352      53    8367    8373
    8370      53    8385    8391    8388      53    8403    8409    8406      53
    8421    8427    8424      53    8439    8445    8442      53    8457    8463
    8460      53    8475    8481    8478      53    8493    8499    8496      53
    8511    8517    8514      53    8529    8535    8532      53    8547    8553
    8550      53    8565    8571    8568      53    8583    8589    8586      53
    8601    8607    8604      53    8619    8625    8622      53    8637    8643
    8640      53    8655    8661    8658      53    8673    8679    8676      53
    8691    8697    8694      53    8709    8715    8712      53    8727    8733
    8730      53    8745    8751    8748      53    8763    8769    8766      53
    8781    8787    8784      53    8799    8805    8802      53    8817    8823
    8820      53    8835    8841    8838      53    8853    8859    8856      53
    8871    8877    8874      53    8889    8895    8892      53    8907    8913
    8910      53    8925    8931    8928      53    8943    8949    8946      53
    8961    8967    8964      53    8979    8985    8982      53    8997    9003
    9000      53    9015    9021    9018      53    9033    9039    9036      53
    9051    9057    9054      53    9069    9075    9072      53    9087    9093
    9090      53    9105    9111    9108      53    9123    9129    9126      53
    9141    9147    9144      53    9159    9165    9162      53    9177    9183
    9180      53    9195    9201    9198      53    9213    9219    9216      53
    9231    9237    9234      53    9249    9255    9252      53    9267    9273
    9270      53    9285    9291    9288      53    9303    9309    9306      53
    9321    9327    9324      53    9339    9345    9342      53    9357    9363
    9360      53    9375    9381    9378      53    9393    9399    9396      53
    9411    9417    9414      53    9429    9435    9432      53    9447    9453
    9450      53    9465    9471    9468      53    9483    9489    9486      53
    9501    9507    9504      53    9519    9525    9522      53    9537    9543
    9540      53    9555    9561    9558      53    9573    9579    9576      53
    9591    9597    9594      53    9609    9615    9612      53    9627    9633
    9630      53    9645    9651    9648      53    9663    9669    9666      53
    9681    9687    9684      53    9699    9705    9702      53    9717    9723
    9720      53    9735    9741    9738      53    9753    9759    9756      53
    9771    9777    9774      53    9789    9795    9792      53    9807    9813
    9810      53    9825    9831    9828      53    9843    9849    9846      53
    9861    9867    9864      53    9879    9885    9882      53    9897    9903
    9900      53    9915    9921    9918      53    9933    9939    9936      53
    9951    9957    9954      53    9969    9975    9972      53    9987    9993
    9990      53   10005   10011   10008      53   10023   10029   10026      53
   10041   10047   10044      53   10059   10065   10062      53   10077   10083
   10080      53   10095   10101   10098      53   10113   10119   10116      53
   10131   10137   10134      53   10149   10155   10152      53   10167   10173
   10170      53   10185   10191   10188      53   10203   10209   10206      53
   10221   10227   10224      53   10239   10245   10242      53   10257   10263
   10260      53   10275   10281   10278      53   10293   10299   10296      53
   10311   10317   10314      53   10329   10335   10332      53   10347   10353
   10350      53   10365   10371   10368      53   10383   10389   10386      53
   10401   10407   10404      53   10419   10425   10422      53   10437   10443
   10440      53   10455   10461   10458      53   10473   10479   10476      53
   10491   10497   10494      53   10509   10515   10512      53   10527   10533
   10530      53   10545   10551   10548      53   10563   10569   10566      53
   10581   10587   10584      53   10599   10605   10602      53   10617   10623
   10620      53   10635   10641   10638      53   10653   10659   10656      53
   10671   10677   10674      53   10689   10695   10692      53   10707   10713
   10710      53   10725   10731   10728      53   10743   10749   10746      53
   10761   10767   10764      53   10779   10785   10782      53   10797   10803
   10800      53   10815   10821   10818      53   10833   10839   10836      53
   10851   10857   10854      53   10869   10875   10872      53   10887   10893
   10890      53   10905   10911   10908      53   10923   10929   10926      53
   10941   10947   10944      53   10959   10965   10962      53   10977   10983
   10980      53   10995   11001   10998      53   11013   11019   11016      53
   11031   11037   11034      53   11049   11055   11052      53   11067   11073
   11070      53   11085   11091   11088      53   11103   11109   11106      53
   11121   11127   11124      53   11139   11145   11142      53   11157   11163
   11160      53   11175   11181   11178      53   11193   11199   11196      53
   11211   11217   11214      53   11229   11235   11232      53   11247   11253
   11250      53   11265   11271   11268      53   11283   11289   11286      53
   11301   11307   11304      53   11319   11325   11322      53   11337   11343
   11340      53   11355   11361   11358      53   11373   11379   11376      53
   11391   11397   11394      53   11409   11415   11412      53   11427   11433
   11430      53   11445   11451   11448      53   11463   11469   11466      53
   11481   11487   11484      53   11499   11505   11502      53   11517   11523
   11520      53   11535   11541   11538      53   11553   11559   11556      53
   11571   11577   11574      53   11589   11595   11592      53   11607   11613
   11610      53   11625   11631   11628      53   11643   11649   11646      53
   11661   11667   11664      53   11679   11685   11682      53   11697   11703
   11700      53   11715   11721   11718      53   11733   11739   11736      53
   11751   11757   11754      53   11769   11775   11772      53   11787   11793
   11790      53   11805   11811   11808      53   11823   11829   11826      53
   11841   11847   11844      53   11859   11865   11862      53   11877   11883
   11880      53   11895   11901   11898      53   11913   11919   11916      53
   11931   11937   11934      53   11949   11955   11952      53   11967   11973
   11970      53   11985   11991   11988      53   12003   12009   12006      53
   12021   12027   12024      53   12039   12045   12042      53   12057   12063
   12060      53   12075   12081   12078      53   12093   12099   12096      53
   12111   12117   12114      53   12129   12135   12132      53   12147   12153
   12150      53   12165   12171   12168      53   12183   12189   12186      53
   12201   12207   12204      53   12219   12225   12222      53   12237   12243
   12240      53   12255   12261   12258      53   12273   12279   12276      53
   12291   12297   12294      53   12309   12315   12312      53   12327   12333
   12330      53   12345   12351   12348      53   12363   12369   12366      53
   12381   12387   12384      53   12399   12405   12402      53   12417   12423
   12420      53   12435   12441   12438      53   12453   12459   12456      53
   12471   12477   12474      53   12489   12495   12492      53   12507   12513
   12510      53   12525   12531   12528      53   12543   12549   12546      53
   12561   12567   12564      53   12579   12585   12582      53   12597   12603
   12600      53   12615   12621   12618      53   12633   12639   12636      53
   12651   12657   12654      53   12669   12675   12672      53   12687   12693
   12690      53   12705   12711   12708      53   12723   12729   12726      53
   12741   12747   12744      53   12759   12765   12762      53   12777   12783
   12780      53   12795   12801   12798      53   12813   12819   12816      53
   12831   12837   12834      53   12849   12855   12852      53   12867   12873
   12870      53   12885   12891   12888      53   12903   12909   12906      53
   12921   12927   12924      53   12939   12945   12942      53   12957   12963
   12960      53   12975   12981   12978      53   12993   12999   12996      53
   13011   13017   13014      53   13029   13035   13032      53   13047   13053
   13050      53   13065   13071   13068      53   13083   13089   13086      53
   13101   13107   13104      53   13119   13125   13122      53   13137   13143
   13140      53   13155   13161   13158      53   13173   13179   13176      53
   13191   13197   13194      53   13209   13215   13212      53   13227   13233
   13230      53   13245   13251   13248      53   13263   13269   13266      53
   13281   13287   13284      53   13299   13305   13302      53   13317   13323
   13320      53   13335   13341   13338      53   13353   13359   13356      53
   13371   13377   13374      53   13389   13395   13392      53   13407   13413
   13410      53   13425   13431   13428      53   13443   13449   13446      53
   13461   13467   13464      53   13479   13485   13482      53   13497   13503
   13500      53   13515   13521   13518      53   13533   13539   13536      53
   13551   13557   13554      53   13569   13575   13572      53   13587   13593
   13590      53   13605   13611   13608      53   13623   13629   13626      53
   13641   13647   13644      53   13659   13665   13662      53   13677   13683
   13680      53   13695   13701   13698      53   13713   13719   13716      53
   13731   13737   13734      53   13749   13755   13752      53   13767   13773
   13770      53   13785   13791   13788      53   13803   13809   13806      53
   13821   13827   13824      53   13839   13845   13842      53   13857   13863
   13860      53   13875   13881   13878      53   13893   13899   13896      53
   13911   13917   13914      53   13929   13935   13932      53   13947   13953
   13950      53   13965   13971   13968      53   13983   13989   13986      53
   14001   14007   14004      53   14019   14025   14022      53   14037   14043
   14040      53   14055   14061   14058      53   14073   14079   14076      53
   14091   14097   14094      53   14109   14115   14112      53   14127   14133
   14130      53   14145   14151   14148      53   14163   14169   14166      53
   14181   14187   14184      53   14199   14205   14202      53   14217   14223
   14220      53   14235   14241   14238      53   14253   14259   14256      53
   14271   14277   14274      53   14289   14295   14292      53   14307   14313
   14310      53   14325   14331   14328      53   14343   14349   14346      53
   14361   14367   14364      53   14379   14385   14382      53   14397   14403
   14400      53   14415   14421   14418      53   14433   14439   14436      53
   14451   14457   14454      53   14469   14475   14472      53   14487   14493
   14490      53   14505   14511   14508      53   14523   14529   14526      53
   14541   14547   14544      53   14559   14565   14562      53   14577   14583
   14580      53   14595   14601   14598      53   14613   14619   14616      53
   14631   14637   14634      53   14649   14655   14652      53   14667   14673
   14670      53   14685   14691   14688      53   14703   14709   14706      53
   14721   14727   14724      53   14739   14745   14742      53   14757   14763
   14760      53   14775   14781   14778      53   14793   14799   14796      53
   14811   14817   14814      53   14829   14835   14832      53   14847   14853
   14850      53   14865   14871   14868      53   14883   14889   14886      53
   14901   14907   14904      53   14919   14925   14922      53   14937   14943
   14940      53   14955   14961   14958      53   14973   14979   14976      53
   14991   14997   14994      53   15009   15015   15012      53   15027   15033
   15030      53   15045   15051   15048      53   15063   15069   15066      53
   15081   15087   15084      53   15099   15105   15102      53   15117   15123
   15120      53   15135   15141   15138      53   15153   15159   15156      53
   15171   15177   15174      53   15189   15195   15192      53   15207   15213
   15210      53   15225   15231   15228      53   15243   15249   15246      53
   15261   15267   15264      53   15279   15285   15282      53   15297   15303
   15300      53   15315   15321   15318      53   15333   15339   15336      53
   15351   15357   15354      53   15369   15375   15372      53   15387   15393
   15390      53   15405   15411   15408      53   15423   15429   15426      53
   15441   15447   15444      53   15459   15465   15462      53   15477   15483
   15480      53   15495   15501   15498      53   15513   15519   15516      53
   15531   15537   15534      53   15549   15555   15552      53   15567   15573
   15570      53   15585   15591   15588      53   15603   15609   15606      53
   15621   15627   15624      53   15639   15645   15642      53   15657   15663
   15660      53   15675   15681   15678      53   15693   15699   15696      53
   15711   15717   15714      53   15729   15735   15732      53   15747   15753
   15750      53   15765   15771   15768      53   15783   15789   15786      53
   15801   15807   15804      53   15819   15825   15822      53   15837   15843
   15840      53   15855   15861   15858      53   15873   15879   15876      53
   15891   15897   15894      53   15909   15915   15912      53   15927   15933
   15930      53   15945   15951   15948      53   15963   15969   15966      53
   15981   15987   15984      53   15999   16005   16002      53   16017   16023
   16020      53   16035   16041   16038      53   16053   16059   16056      53
   16071   16077   16074      53   16089   16095   16092      53   16107   16113
   16110      53   16125   16131   16128      53   16143   16149   16146      53
   16161   16167   16164      53   16179   16185   16182      53   16197   16203
   16200      53   16215   16221   16218      53   16233   16239   16236      53
   16251   16257   16254      53   16269   16275   16272      53   16287   16293
   16290      53   16305   16311   16308      53   16323   16329   16326      53
   16341   16347   16344      53   16359   16365   16362      53   16377   16383
   16380      53   16395   16401   16398      53   16413   16419   16416      53
   16431   16437   16434      53   16449   16455   16452      53   16467   16473
   16470      53   16485   16491   16488      53   16503   16509   16506      53
   16521   16527   16524      53   16539   16545   16542      53   16557   16563
   16560      53   16575   16581   16578      53   16593   16599   16596      53
   16611   16617   16614      53   16629   16635   16632      53   16647   16653
   16650      53   16665   16671   16668      53   16683   16689   16686      53
   16701   16707   16704      53   16719   16725   16722      53   16737   16743
   16740      53   16755   16761   16758      53   16773   16779   16776      53
%FLAG DIHEDRALS_INC_HYDROGEN                                                    
%FORMAT(10I8)                                                                   
     225     177     222     228       1     225     177    -222     228       2
     204     117     201     207       1     204     117    -201     207       2
     171       9      12     177       3     168      99      18     210       4
     165      99      18     210       4     162      99      18     210       4
     156      30      27     159       5     147      45      42     153       6
     147      45      48     150       6     144      42      45     147       6
     141      48      45     147       6     138      45      42     144       6
     138      45      42     153       6     138      45      48     141       6
     138      45      48     150       6     132      54      51     135       7
     117      78      81     120       3     111      90      69     189       4
     108      90      69     189       4     105      90      69     189       4
     174       0      15     102       3     102      15      12     177       3
      99      18     210     213       4      99      18     210     216       4
      99      18     210     219       4      90      69     189     192       4
      90      69     189     195       4      90      69     189     198       4
      84      75      72     114       3      84      75      78     117       3
      81      78      75      84       3      78      75      72     114       3
      78     117     201     207       2      75      78      81     120       3
      69      57      54     132       5      69      66      81     120       3
      66      63      72     114       3      66      69      90     105      12
      66      69      90     108      12      66      69      90     111      12
      66      69     189     192      12      66      69     189     195      12
      66      69     189     198      12      63      60      87     123      15
      63      60      87     126      15      63      60      87     129      15
      63      66      81     120       3      63      72      75      84       3
      60      57      54     132       5      60      63      72     114       3
      57      54      51     135       7      57      60      87     123      18
      57      60      87     126      18      57      60      87     129      18
      57      69      90     105      12      57      69      90     108      12
      57      69      90     111      12      57      69     189     192      12
      57      69     189     195      12      57      69     189     198      12
      51      39      42     144      21      51      39      42     153      21
      48      33      30     156       7      48      45      42     144       4
      48      45      42     153       4      42      39      51     135       5
      42      45      48     141       4      42      45      48     150       4
      39      42      45     138      12      39      42      45     147      12
      39      51      54     132       7      36      33      30     156       7
      36      33      48     141      21      36      33      48     150      21
      36      39      42     144      21      36      39      42     153      21
      36      39      51     135       5      33      30      27     159       5
      33      48      45     138      12      33      48      45     147      12
      30      33      48     141      21      30      33      48     150      21
     174       0       3      24       3      24      21      27     159       7
      21      18      99     162      12      21      18      99     165      12
      21      18      99     168      12      21      18     210     213      12
      21      18     210     216      12      21      18     210     219      12
      21      24      96     180      16      21      24      96     183      16
      21      24      96     186      16      21      27      30     156       5
      18       6       9     171       3      18      21      27     159       7
      15      12       9     171       3     174       0      15      12       3
      12     177     222     228       2       9      12      15     102       3
     174       0       3       6       3       6      18      99     162      12
       6      18      99     165      12       6      18      99     168      12
       6      18     210     213      12       6      18     210     216      12
       6      18     210     219      12       3       0      15     102       3
       3       6       9     171       3       3      24      96     180      15
       3      24      96     183      15       3      24      96     186      15
     231     237     234     240      19     231     237     234     243      19
     231     237     234     246      19     249     255     252     258      19
     249     255     252     261      19     249     255     252     264      19
     267     273     270     276      19     267     273     270     279      19
     267     273     270     282      19     285     291     288     294      19
     285     291     288     297      19     285     291     288     300      19
     303     309     306     312      19     303     309     306     315      19
     303     309     306     318      19     321     327     324     330      19
     321     327     324     333      19     321     327     324     336      19
     339     345     342     348      19     339     345     342     351      19
     339     345     342     354      19     357     363     360     366      19
     357     363     360     369      19     357     363     360     372      19
     375     381     378     384      19     375     381     378     387      19
     375     381     378     390      19     393     399     396     402      19
     393     399     396     405      19     393     399     396     408      19
     411     417     414     420      19     411     417     414     423      19
     411     417     414     426      19     429     435     432     438      19
     429     435     432     441      19     429     435     432     444      19
     447     453     450     456      19     447     453     450     459      19
     447     453     450     462      19     465     471     468     474      19
     465     471     468     477      19     465     471     468     480      19
     483     489     486     492      19     483     489     486     495      19
     483     489     486     498      19     501     507     504     510      19
     501     507     504     513      19     501     507     504     516      19
     519     525     522     528      19     519     525     522     531      19
     519     525     522     534      19     537     543     540     546      19
     537     543     540     549      19     537     543     540     552      19
     555     561     558     564      19     555     561     558     567      19
     555     561     558     570      19     573     579     576     582      19
     573     579     576     585      19     573     579     576     588      19
     591     597     594     600      19     591     597     594     603      19
     591     597     594     606      19     609     615     612     618      19
     609     615     612     621      19     609     615     612     624      19
     627     633     630     636      19     627     633     630     639      19
     627     633     630     642      19     645     651     648     654      19
     645     651     648     657      19     645     651     648     660      19
     663     669     666     672      19     663     669     666     675      19
     663     669     666     678      19     681     687     684     690      19
     681     687     684     693      19     681     687     684     696      19
     699     705     702     708      19     699     705     702     711      19
     699     705     702     714      19     717     723     720     726      19
     717     723     720     729      19     717     723     720     732      19
     735     741     738     744      19     735     741     738     747      19
     735     741     738     750      19     753     759     756     762      19
     753     759     756     765      19     753     759     756     768      19
     771     777     774     780      19     771     777     774     783      19
     771     777     774     786      19     789     795     792     798      19
     789     795     792     801      19     789     795     792     804      19
     807     813     810     816      19     807     813     810     819      19
     807     813     810     822      19     825     831     828     834      19
     825     831     828     837      19     825     831     828     840      19
     843     849     846     852      19     843     849     846     855      19
     843     849     846     858      19     861     867     864     870      19
     861     867     864     873      19     861     867     864     876      19
     879     885     882     888      19     879     885     882     891      19
     879     885     882     894      19     897     903     900     906      19
     897     903     900     909      19     897     903     900     912      19
     915     921     918     924      19     915     921     918     927      19
     915     921     918     930      19     933     939     936     942      19
     933     939     936     945      19     933     939     936     948      19
     951     957     954     960      19     951     957     954     963      19
     951     957     954     966      19     969     975     972     978      19
     969     975     972     981      19     969     975     972     984      19
     987     993     990     996      19     987     993     990     999      19
     987     993     990    1002      19    1005    1011    1008    1014      19
    1005    1011    1008    1017      19    1005    1011    1008    1020      19
    1023    1029    1026    1032      19    1023    1029    1026    1035      19
    1023    1029    1026    1038      19    1041    1047    1044    1050      19
    1041    1047    1044    1053      19    1041    1047    1044    1056      19
    1059    1065    1062    1068      19    1059    1065    1062    1071      19
    1059    1065    1062    1074      19    1077    1083    1080    1086      19
    1077    1083    1080    1089      19    1077    1083    1080    1092      19
    1095    1101    1098    1104      19    1095    1101    1098    1107      19
    1095    1101    1098    1110      19    1113    1119    1116    1122      19
    1113    1119    1116    1125      19    1113    1119    1116    1128      19
    1131    1137    1134    1140      19    1131    1137    1134    1143      19
    1131    1137    1134    1146      19    1149    1155    1152    1158      19
    1149    1155    1152    1161      19    1149    1155    1152    1164      19
    1167    1173    1170    1176      19    1167    1173    1170    1179      19
    1167    1173    1170    1182      19    1185    1191    1188    1194      19
    1185    1191    1188    1197      19    1185    1191    1188    1200      19
    1203    1209    1206    1212      19    1203    1209    1206    1215      19
    1203    1209    1206    1218      19    1221    1227    1224    1230      19
    1221    1227    1224    1233      19    1221    1227    1224    1236      19
    1239    1245    1242    1248      19    1239    1245    1242    1251      19
    1239    1245    1242    1254      19    1257    1263    1260    1266      19
    1257    1263    1260    1269      19    1257    1263    1260    1272      19
    1275    1281    1278    1284      19    1275    1281    1278    1287      19
    1275    1281    1278    1290      19    1293    1299    1296    1302      19
    1293    1299    1296    1305      19    1293    1299    1296    1308      19
    1311    1317    1314    1320      19    1311    1317    1314    1323      19
    1311    1317    1314    1326      19    1329    1335    1332    1338      19
    1329    1335    1332    1341      19    1329    1335    1332    1344      19
    1347    1353    1350    1356      19    1347    1353    1350    1359      19
    1347    1353    1350    1362      19    1365    1371    1368    1374      19
    1365    1371    1368    1377      19    1365    1371    1368    1380      19
    1383    1389    1386    1392      19    1383    1389    1386    1395      19
    1383    1389    1386    1398      19    1401    1407    1404    1410      19
    1401    1407    1404    1413      19    1401    1407    1404    1416      19
    1419    1425    1422    1428      19    1419    1425    1422    1431      19
    1419    1425    1422    1434      19    1437    1443    1440    1446      19
    1437    1443    1440    1449      19    1437    1443    1440    1452      19
    1455    1461    1458    1464      19    1455    1461    1458    1467      19
    1455    1461    1458    1470      19    1473    1479    1476    1482      19
    1473    1479    1476    1485      19    1473    1479    1476    1488      19
    1491    1497    1494    1500      19    1491    1497    1494    1503      19
    1491    1497    1494    1506      19    1509    1515    1512    1518      19
    1509    1515    1512    1521      19    1509    1515    1512    1524      19
    1527    1533    1530    1536      19    1527    1533    1530    1539      19
    1527    1533    1530    1542      19    1545    1551    1548    1554      19
    1545    1551    1548    1557      19    1545    1551    1548    1560      19
    1563    1569    1566    1572      19    1563    1569    1566    1575      19
    1563    1569    1566    1578      19    1581    1587    1584    1590      19
    1581    1587    1584    1593      19    1581    1587    1584    1596      19
    1599    1605    1602    1608      19    1599    1605    1602    1611      19
    1599    1605    1602    1614      19    1617    1623    1620    1626      19
    1617    1623    1620    1629      19    1617    1623    1620    1632      19
    1635    1641    1638    1644      19    1635    1641    1638    1647      19
    1635    1641    1638    1650      19    1653    1659    1656    1662      19
    1653    1659    1656    1665      19    1653    1659    1656    1668      19
    1671    1677    1674    1680      19    1671    1677    1674    1683      19
    1671    1677    1674    1686      19    1689    1695    1692    1698      19
    1689    1695    1692    1701      19    1689    1695    1692    1704      19
    1707    1713    1710    1716      19    1707    1713    1710    1719      19
    1707    1713    1710    1722      19    1725    1731    1728    1734      19
    1725    1731    1728    1737      19    1725    1731    1728    1740      19
    1743    1749    1746    1752      19    1743    1749    1746    1755      19
    1743    1749    1746    1758      19    1761    1767    1764    1770      19
    1761    1767    1764    1773      19    1761    1767    1764    1776      19
    1779    1785    1782    1788      19    1779    1785    1782    1791      19
    1779    1785    1782    1794      19    1797    1803    1800    1806      19
    1797    1803    1800    1809      19    1797    1803    1800    1812      19
    1815    1821    1818    1824      19    1815    1821    1818    1827      19
    1815    1821    1818    1830      19    1833    1839    1836    1842      19
    1833    1839    1836    1845      19    1833    1839    1836    1848      19
    1851    1857    1854    1860      19    1851    1857    1854    1863      19
    1851    1857    1854    1866      19    1869    1875    1872    1878      19
    1869    1875    1872    1881      19    1869    1875    1872    1884      19
    1887    1893    1890    1896      19    1887    1893    1890    1899      19
    1887    1893    1890    1902      19    1905    1911    1908    1914      19
    1905    1911    1908    1917      19    1905    1911    1908    1920      19
    1923    1929    1926    1932      19    1923    1929    1926    1935      19
    1923    1929    1926    1938      19    1941    1947    1944    1950      19
    1941    1947    1944    1953      19    1941    1947    1944    1956      19
    1959    1965    1962    1968      19    1959    1965    1962    1971      19
    1959    1965    1962    1974      19    1977    1983    1980    1986      19
    1977    1983    1980    1989      19    1977    1983    1980    1992      19
    1995    2001    1998    2004      19    1995    2001    1998    2007      19
    1995    2001    1998    2010      19    2013    2019    2016    2022      19
    2013    2019    2016    2025      19    2013    2019    2016    2028      19
    2031    2037    2034    2040      19    2031    2037    2034    2043      19
    2031    2037    2034    2046      19    2049    2055    2052    2058      19
    2049    2055    2052    2061      19    2049    2055    2052    2064      19
    2067    2073    2070    2076      19    2067    2073    2070    2079      19
    2067    2073    2070    2082      19    2085    2091    2088    2094      19
    2085    2091    2088    2097      19    2085    2091    2088    2100      19
    2103    2109    2106    2112      19    2103    2109    2106    2115      19
    2103    2109    2106    2118      19    2121    2127    2124    2130      19
    2121    2127    2124    2133      19    2121    2127    2124    2136      19
    2139    2145    2142    2148      19    2139    2145    2142    2151      19
    2139    2145    2142    2154      19    2157    2163    2160    2166      19
    2157    2163    2160    2169      19    2157    2163    2160    2172      19
    2175    2181    2178    2184      19    2175    2181    2178    2187      19
    2175    2181    2178    2190      19    2193    2199    2196    2202      19
    2193    2199    2196    2205      19    2193    2199    2196    2208      19
    2211    2217    2214    2220      19    2211    2217    2214    2223      19
    2211    2217    2214    2226      19    2229    2235    2232    2238      19
    2229    2235    2232    2241      19    2229    2235    2232    2244      19
    2247    2253    2250    2256      19    2247    2253    2250    2259      19
    2247    2253    2250    2262      19    2265    2271    2268    2274      19
    2265    2271    2268    2277      19    2265    2271    2268    2280      19
    2283    2289    2286    2292      19    2283    2289    2286    2295      19
    2283    2289    2286    2298      19    2301    2307    2304    2310      19
    2301    2307    2304    2313      19    2301    2307    2304    2316      19
    2319    2325    2322    2328      19    2319    2325    2322    2331      19
    2319    2325    2322    2334      19    2337    2343    2340    2346      19
    2337    2343    2340    2349      19    2337    2343    2340    2352      19
    2355    2361    2358    2364      19    2355    2361    2358    2367      19
    2355    2361    2358    2370      19    2373    2379    2376    2382      19
    2373    2379    2376    2385      19    2373    2379    2376    2388      19
    2391    2397    2394    2400      19    2391    2397    2394    2403      19
    2391    2397    2394    2406      19    2409    2415    2412    2418      19
    2409    2415    2412    2421      19    2409    2415    2412    2424      19
    2427    2433    2430    2436      19    2427    2433    2430    2439      19
    2427    2433    2430    2442      19    2445    2451    2448    2454      19
    2445    2451    2448    2457      19    2445    2451    2448    2460      19
    2463    2469    2466    2472      19    2463    2469    2466    2475      19
    2463    2469    2466    2478      19    2481    2487    2484    2490      19
    2481    2487    2484    2493      19    2481    2487    2484    2496      19
    2499    2505    2502    2508      19    2499    2505    2502    2511      19
    2499    2505    2502    2514      19    2517    2523    2520    2526      19
    2517    2523    2520    2529      19    2517    2523    2520    2532      19
    2535    2541    2538    2544      19    2535    2541    2538    2547      19
    2535    2541    2538    2550      19    2553    2559    2556    2562      19
    2553    2559    2556    2565      19    2553    2559    2556    2568      19
    2571    2577    2574    2580      19    2571    2577    2574    2583      19
    2571    2577    2574    2586      19    2589    2595    2592    2598      19
    2589    2595    2592    2601      19    2589    2595    2592    2604      19
    2607    2613    2610    2616      19    2607    2613    2610    2619      19
    2607    2613    2610    2622      19    2625    2631    2628    2634      19
    2625    2631    2628    2637      19    2625    2631    2628    2640      19
    2643    2649    2646    2652      19    2643    2649    2646    2655      19
    2643    2649    2646    2658      19    2661    2667    2664    2670      19
    2661    2667    2664    2673      19    2661    2667    2664    2676      19
    2679    2685    2682    2688      19    2679    2685    2682    2691      19
    2679    2685    2682    2694      19    2697    2703    2700    2706      19
    2697    2703    2700    2709      19    2697    2703    2700    2712      19
    2715    2721    2718    2724      19    2715    2721    2718    2727      19
    2715    2721    2718    2730      19    2733    2739    2736    2742      19
    2733    2739    2736    2745      19    2733    2739    2736    2748      19
    2751    2757    2754    2760      19    2751    2757    2754    2763      19
    2751    2757    2754    2766      19    2769    2775    2772    2778      19
    2769    2775    2772    2781      19    2769    2775    2772    2784      19
    2787    2793    2790    2796      19    2787    2793    2790    2799      19
    2787    2793    2790    2802      19    2805    2811    2808    2814      19
    2805    2811    2808    2817      19    2805    2811    2808    2820      19
    2823    2829    2826    2832      19    2823    2829    2826    2835      19
    2823    2829    2826    2838      19    2841    2847    2844    2850      19
    2841    2847    2844    2853      19    2841    2847    2844    2856      19
    2859    2865    2862    2868      19    2859    2865    2862    2871      19
    2859    2865    2862    2874      19    2877    2883    2880    2886      19
    2877    2883    2880    2889      19    2877    2883    2880    2892      19
    2895    2901    2898    2904      19    2895    2901    2898    2907      19
    2895    2901    2898    2910      19    2913    2919    2916    2922      19
    2913    2919    2916    2925      19    2913    2919    2916    2928      19
    2931    2937    2934    2940      19    2931    2937    2934    2943      19
    2931    2937    2934    2946      19    2949    2955    2952    2958      19
    2949    2955    2952    2961      19    2949    2955    2952    2964      19
    2967    2973    2970    2976      19    2967    2973    2970    2979      19
    2967    2973    2970    2982      19    2985    2991    2988    2994      19
    2985    2991    2988    2997      19    2985    2991    2988    3000      19
    3003    3009    3006    3012      19    3003    3009    3006    3015      19
    3003    3009    3006    3018      19    3021    3027    3024    3030      19
    3021    3027    3024    3033      19    3021    3027    3024    3036      19
    3039    3045    3042    3048      19    3039    3045    3042    3051      19
    3039    3045    3042    3054      19    3057    3063    3060    3066      19
    3057    3063    3060    3069      19    3057    3063    3060    3072      19
    3075    3081    3078    3084      19    3075    3081    3078    3087      19
    3075    3081    3078    3090      19    3093    3099    3096    3102      19
    3093    3099    3096    3105      19    3093    3099    3096    3108      19
    3111    3117    3114    3120      19    3111    3117    3114    3123      19
    3111    3117    3114    3126      19    3129    3135    3132    3138      19
    3129    3135    3132    3141      19    3129    3135    3132    3144      19
    3147    3153    3150    3156      19    3147    3153    3150    3159      19
    3147    3153    3150    3162      19    3165    3171    3168    3174      19
    3165    3171    3168    3177      19    3165    3171    3168    3180      19
    3183    3189    3186    3192      19    3183    3189    3186    3195      19
    3183    3189    3186    3198      19    3201    3207    3204    3210      19
    3201    3207    3204    3213      19    3201    3207    3204    3216      19
    3219    3225    3222    3228      19    3219    3225    3222    3231      19
    3219    3225    3222    3234      19    3237    3243    3240    3246      19
    3237    3243    3240    3249      19    3237    3243    3240    3252      19
    3255    3261    3258    3264      19    3255    3261    3258    3267      19
    3255    3261    3258    3270      19    3273    3279    3276    3282      19
    3273    3279    3276    3285      19    3273    3279    3276    3288      19
    3291    3297    3294    3300      19    3291    3297    3294    3303      19
    3291    3297    3294    3306      19    3309    3315    3312    3318      19
    3309    3315    3312    3321      19    3309    3315    3312    3324      19
    3327    3333    3330    3336      19    3327    3333    3330    3339      19
    3327    3333    3330    3342      19    3345    3351    3348    3354      19
    3345    3351    3348    3357      19    3345    3351    3348    3360      19
    3363    3369    3366    3372      19    3363    3369    3366    3375      19
    3363    3369    3366    3378      19    3381    3387    3384    3390      19
    3381    3387    3384    3393      19    3381    3387    3384    3396      19
    3399    3405    3402    3408      19    3399    3405    3402    3411      19
    3399    3405    3402    3414      19    3417    3423    3420    3426      19
    3417    3423    3420    3429      19    3417    3423    3420    3432      19
    3435    3441    3438    3444      19    3435    3441    3438    3447      19
    3435    3441    3438    3450      19    3453    3459    3456    3462      19
    3453    3459    3456    3465      19    3453    3459    3456    3468      19
    3471    3477    3474    3480      19    3471    3477    3474    3483      19
    3471    3477    3474    3486      19    3489    3495    3492    3498      19
    3489    3495    3492    3501      19    3489    3495    3492    3504      19
    3507    3513    3510    3516      19    3507    3513    3510    3519      19
    3507    3513    3510    3522      19    3525    3531    3528    3534      19
    3525    3531    3528    3537      19    3525    3531    3528    3540      19
    3543    3549    3546    3552      19    3543    3549    3546    3555      19
    3543    3549    3546    3558      19    3561    3567    3564    3570      19
    3561    3567    3564    3573      19    3561    3567    3564    3576      19
    3579    3585    3582    3588      19    3579    3585    3582    3591      19
    3579    3585    3582    3594      19    3597    3603    3600    3606      19
    3597    3603    3600    3609      19    3597    3603    3600    3612      19
    3615    3621    3618    3624      19    3615    3621    3618    3627      19
    3615    3621    3618    3630      19    3633    3639    3636    3642      19
    3633    3639    3636    3645      19    3633    3639    3636    3648      19
    3651    3657    3654    3660      19    3651    3657    3654    3663      19
    3651    3657    3654    3666      19    3669    3675    3672    3678      19
    3669    3675    3672    3681      19    3669    3675    3672    3684      19
    3687    3693    3690    3696      19    3687    3693    3690    3699      19
    3687    3693    3690    3702      19    3705    3711    3708    3714      19
    3705    3711    3708    3717      19    3705    3711    3708    3720      19
    3723    3729    3726    3732      19    3723    3729    3726    3735      19
    3723    3729    3726    3738      19    3741    3747    3744    3750      19
    3741    3747    3744    3753      19    3741    3747    3744    3756      19
    3759    3765    3762    3768      19    3759    3765    3762    3771      19
    3759    3765    3762    3774      19    3777    3783    3780    3786      19
    3777    3783    3780    3789      19    3777    3783    3780    3792      19
    3795    3801    3798    3804      19    3795    3801    3798    3807      19
    3795    3801    3798    3810      19    3813    3819    3816    3822      19
    3813    3819    3816    3825      19    3813    3819    3816    3828      19
    3831    3837    3834    3840      19    3831    3837    3834    3843      19
    3831    3837    3834    3846      19    3849    3855    3852    3858      19
    3849    3855    3852    3861      19    3849    3855    3852    3864      19
    3867    3873    3870    3876      19    3867    3873    3870    3879      19
    3867    3873    3870    3882      19    3885    3891    3888    3894      19
    3885    3891    3888    3897      19    3885    3891    3888    3900      19
    3903    3909    3906    3912      19    3903    3909    3906    3915      19
    3903    3909    3906    3918      19    3921    3927    3924    3930      19
    3921    3927    3924    3933      19    3921    3927    3924    3936      19
    3939    3945    3942    3948      19    3939    3945    3942    3951      19
    3939    3945    3942    3954      19    3957    3963    3960    3966      19
    3957    3963    3960    3969      19    3957    3963    3960    3972      19
    3975    3981    3978    3984      19    3975    3981    3978    3987      19
    3975    3981    3978    3990      19    3993    3999    3996    4002      19
    3993    3999    3996    4005      19    3993    3999    3996    4008      19
    4011    4017    4014    4020      19    4011    4017    4014    4023      19
    4011    4017    4014    4026      19    4029    4035    4032    4038      19
    4029    4035    4032    4041      19    4029    4035    4032    4044      19
    4047    4053    4050    4056      19    4047    4053    4050    4059      19
    4047    4053    4050    4062      19    4065    4071    4068    4074      19
    4065    4071    4068    4077      19    4065    4071    4068    4080      19
    4083    4089    4086    4092      19    4083    4089    4086    4095      19
    4083    4089    4086    4098      19    4101    4107    4104    4110      19
    4101    4107    4104    4113      19    4101    4107    4104    4116      19
    4119    4125    4122    4128      19    4119    4125    4122    4131      19
    4119    4125    4122    4134      19    4137    4143    4140    4146      19
    4137    4143    4140    4149      19    4137    4143    4140    4152      19
    4155    4161    4158    4164      19    4155    4161    4158    4167      19
    4155    4161    4158    4170      19    4173    4179    4176    4182      19
    4173    4179    4176    4185      19    4173    4179    4176    4188      19
    4191    4197    4194    4200      19    4191    4197    4194    4203      19
    4191    4197    4194    4206      19    4209    4215    4212    4218      19
    4209    4215    4212    4221      19    4209    4215    4212    4224      19
    4227    4233    4230    4236      19    4227    4233    4230    4239      19
    4227    4233    4230    4242      19    4245    4251    4248    4254      19
    4245    4251    4248    4257      19    4245    4251    4248    4260      19
    4263    4269    4266    4272      19    4263    4269    4266    4275      19
    4263    4269    4266    4278      19    4281    4287    4284    4290      19
    4281    4287    4284    4293      19    4281    4287    4284    4296      19
    4299    4305    4302    4308      19    4299    4305    4302    4311      19
    4299    4305    4302    4314      19    4317    4323    4320    4326      19
    4317    4323    4320    4329      19    4317    4323    4320    4332      19
    4335    4341    4338    4344      19    4335    4341    4338    4347      19
    4335    4341    4338    4350      19    4353    4359    4356    4362      19
    4353    4359    4356    4365      19    4353    4359    4356    4368      19
    4371    4377    4374    4380      19    4371    4377    4374    4383      19
    4371    4377    4374    4386      19    4389    4395    4392    4398      19
    4389    4395    4392    4401      19    4389    4395    4392    4404      19
    4407    4413    4410    4416      19    4407    4413    4410    4419      19
    4407    4413    4410    4422      19    4425    4431    4428    4434      19
    4425    4431    4428    4437      19    4425    4431    4428    4440      19
    4443    4449    4446    4452      19    4443    4449    4446    4455      19
    4443    4449    4446    4458      19    4461    4467    4464    4470      19
    4461    4467    4464    4473      19    4461    4467    4464    4476      19
    4479    4485    4482    4488      19    4479    4485    4482    4491      19
    4479    4485    4482    4494      19    4497    4503    4500    4506      19
    4497    4503    4500    4509      19    4497    4503    4500    4512      19
    4515    4521    4518    4524      19    4515    4521    4518    4527      19
    4515    4521    4518    4530      19    4533    4539    4536    4542      19
    4533    4539    4536    4545      19    4533    4539    4536    4548      19
    4551    4557    4554    4560      19    4551    4557    4554    4563      19
    4551    4557    4554    4566      19    4569    4575    4572    4578      19
    4569    4575    4572    4581      19    4569    4575    4572    4584      19
    4587    4593    4590    4596      19    4587    4593    4590    4599      19
    4587    4593    4590    4602      19    4605    4611    4608    4614      19
    4605    4611    4608    4617      19    4605    4611    4608    4620      19
    4623    4629    4626    4632      19    4623    4629    4626    4635      19
    4623    4629    4626    4638      19    4641    4647    4644    4650      19
    4641    4647    4644    4653      19    4641    4647    4644    4656      19
    4659    4665    4662    4668      19    4659    4665    4662    4671      19
    4659    4665    4662    4674      19    4677    4683    4680    4686      19
    4677    4683    4680    4689      19    4677    4683    4680    4692      19
    4695    4701    4698    4704      19    4695    4701    4698    4707      19
    4695    4701    4698    4710      19    4713    4719    4716    4722      19
    4713    4719    4716    4725      19    4713    4719    4716    4728      19
    4731    4737    4734    4740      19    4731    4737    4734    4743      19
    4731    4737    4734    4746      19    4749    4755    4752    4758      19
    4749    4755    4752    4761      19    4749    4755    4752    4764      19
    4767    4773    4770    4776      19    4767    4773    4770    4779      19
    4767    4773    4770    4782      19    4785    4791    4788    4794      19
    4785    4791    4788    4797      19    4785    4791    4788    4800      19
    4803    4809    4806    4812      19    4803    4809    4806    4815      19
    4803    4809    4806    4818      19    4821    4827    4824    4830      19
    4821    4827    4824    4833      19    4821    4827    4824    4836      19
    4839    4845    4842    4848      19    4839    4845    4842    4851      19
    4839    4845    4842    4854      19    4857    4863    4860    4866      19
    4857    4863    4860    4869      19    4857    4863    4860    4872      19
    4875    4881    4878    4884      19    4875    4881    4878    4887      19
    4875    4881    4878    4890      19    4893    4899    4896    4902      19
    4893    4899    4896    4905      19    4893    4899    4896    4908      19
    4911    4917    4914    4920      19    4911    4917    4914    4923      19
    4911    4917    4914    4926      19    4929    4935    4932    4938      19
    4929    4935    4932    4941      19    4929    4935    4932    4944      19
    4947    4953    4950    4956      19    4947    4953    4950    4959      19
    4947    4953    4950    4962      19    4965    4971    4968    4974      19
    4965    4971    4968    4977      19    4965    4971    4968    4980      19
    4983    4989    4986    4992      19    4983    4989    4986    4995      19
    4983    4989    4986    4998      19    5001    5007    5004    5010      19
    5001    5007    5004    5013      19    5001    5007    5004    5016      19
    5019    5025    5022    5028      19    5019    5025    5022    5031      19
    5019    5025    5022    5034      19    5037    5043    5040    5046      19
    5037    5043    5040    5049      19    5037    5043    5040    5052      19
    5055    5061    5058    5064      19    5055    5061    5058    5067      19
    5055    5061    5058    5070      19    5073    5079    5076    5082      19
    5073    5079    5076    5085      19    5073    5079    5076    5088      19
    5091    5097    5094    5100      19    5091    5097    5094    5103      19
    5091    5097    5094    5106      19    5109    5115    5112    5118      19
    5109    5115    5112    5121      19    5109    5115    5112    5124      19
    5127    5133    5130    5136      19    5127    5133    5130    5139      19
    5127    5133    5130    5142      19    5145    5151    5148    5154      19
    5145    5151    5148    5157      19    5145    5151    5148    5160      19
    5163    5169    5166    5172      19    5163    5169    5166    5175      19
    5163    5169    5166    5178      19    5181    5187    5184    5190      19
    5181    5187    5184    5193      19    5181    5187    5184    5196      19
    5199    5205    5202    5208      19    5199    5205    5202    5211      19
    5199    5205    5202    5214      19    5217    5223    5220    5226      19
    5217    5223    5220    5229      19    5217    5223    5220    5232      19
    5235    5241    5238    5244      19    5235    5241    5238    5247      19
    5235    5241    5238    5250      19    5253    5259    5256    5262      19
    5253    5259    5256    5265      19    5253    5259    5256    5268      19
    5271    5277    5274    5280      19    5271    5277    5274    5283      19
    5271    5277    5274    5286      19    5289    5295    5292    5298      19
    5289    5295    5292    5301      19    5289    5295    5292    5304      19
    5307    5313    5310    5316      19    5307    5313    5310    5319      19
    5307    5313    5310    5322      19    5325    5331    5328    5334      19
    5325    5331    5328    5337      19    5325    5331    5328    5340      19
    5343    5349    5346    5352      19    5343    5349    5346    5355      19
    5343    5349    5346    5358      19    5361    5367    5364    5370      19
    5361    5367    5364    5373      19    5361    5367    5364    5376      19
    5379    5385    5382    5388      19    5379    5385    5382    5391      19
    5379    5385    5382    5394      19    5397    5403    5400    5406      19
    5397    5403    5400    5409      19    5397    5403    5400    5412      19
    5415    5421    5418    5424      19    5415    5421    5418    5427      19
    5415    5421    5418    5430      19    5433    5439    5436    5442      19
    5433    5439    5436    5445      19    5433    5439    5436    5448      19
    5451    5457    5454    5460      19    5451    5457    5454    5463      19
    5451    5457    5454    5466      19    5469    5475    5472    5478      19
    5469    5475    5472    5481      19    5469    5475    5472    5484      19
    5487    5493    5490    5496      19    5487    5493    5490    5499      19
    5487    5493    5490    5502      19    5505    5511    5508    5514      19
    5505    5511    5508    5517      19    5505    5511    5508    5520      19
    5523    5529    5526    5532      19    5523    5529    5526    5535      19
    5523    5529    5526    5538      19    5541    5547    5544    5550      19
    5541    5547    5544    5553      19    5541    5547    5544    5556      19
    5559    5565    5562    5568      19    5559    5565    5562    5571      19
    5559    5565    5562    5574      19    5577    5583    5580    5586      19
    5577    5583    5580    5589      19    5577    5583    5580    5592      19
    5595    5601    5598    5604      19    5595    5601    5598    5607      19
    5595    5601    5598    5610      19    5613    5619    5616    5622      19
    5613    5619    5616    5625      19    5613    5619    5616    5628      19
    5631    5637    5634    5640      19    5631    5637    5634    5643      19
    5631    5637    5634    5646      19    5649    5655    5652    5658      19
    5649    5655    5652    5661      19    5649    5655    5652    5664      19
    5667    5673    5670    5676      19    5667    5673    5670    5679      19
    5667    5673    5670    5682      19    5685    5691    5688    5694      19
    5685    5691    5688    5697      19    5685    5691    5688    5700      19
    5703    5709    5706    5712      19    5703    5709    5706    5715      19
    5703    5709    5706    5718      19    5721    5727    5724    5730      19
    5721    5727    5724    5733      19    5721    5727    5724    5736      19
    5739    5745    5742    5748      19    5739    5745    5742    5751      19
    5739    5745    5742    5754      19    5757    5763    5760    5766      19
    5757    5763    5760    5769      19    5757    5763    5760    5772      19
    5775    5781    5778    5784      19    5775    5781    5778    5787      19
    5775    5781    5778    5790      19    5793    5799    5796    5802      19
    5793    5799    5796    5805      19    5793    5799    5796    5808      19
    5811    5817    5814    5820      19    5811    5817    5814    5823      19
    5811    5817    5814    5826      19    5829    5835    5832    5838      19
    5829    5835    5832    5841      19    5829    5835    5832    5844      19
    5847    5853    5850    5856      19    5847    5853    5850    5859      19
    5847    5853    5850    5862      19    5865    5871    5868    5874      19
    5865    5871    5868    5877      19    5865    5871    5868    5880      19
    5883    5889    5886    5892      19    5883    5889    5886    5895      19
    5883    5889    5886    5898      19    5901    5907    5904    5910      19
    5901    5907    5904    5913      19    5901    5907    5904    5916      19
    5919    5925    5922    5928      19    5919    5925    5922    5931      19
    5919    5925    5922    5934      19    5937    5943    5940    5946      19
    5937    5943    5940    5949      19    5937    5943    5940    5952      19
    5955    5961    5958    5964      19    5955    5961    5958    5967      19
    5955    5961    5958    5970      19    5973    5979    5976    5982      19
    5973    5979    5976    5985      19    5973    5979    5976    5988      19
    5991    5997    5994    6000      19    5991    5997    5994    6003      19
    5991    5997    5994    6006      19    6009    6015    6012    6018      19
    6009    6015    6012    6021      19    6009    6015    6012    6024      19
    6027    6033    6030    6036      19    6027    6033    6030    6039      19
    6027    6033    6030    6042      19    6045    6051    6048    6054      19
    6045    6051    6048    6057      19    6045    6051    6048    6060      19
    6063    6069    6066    6072      19    6063    6069    6066    6075      19
    6063    6069    6066    6078      19    6081    6087    6084    6090      19
    6081    6087    6084    6093      19    6081    6087    6084    6096      19
    6099    6105    6102    6108      19    6099    6105    6102    6111      19
    6099    6105    6102    6114      19    6117    6123    6120    6126      19
    6117    6123    6120    6129      19    6117    6123    6120    6132      19
    6135    6141    6138    6144      19    6135    6141    6138    6147      19
    6135    6141    6138    6150      19    6153    6159    6156    6162      19
    6153    6159    6156    6165      19    6153    6159    6156    6168      19
    6171    6177    6174    6180      19    6171    6177    6174    6183      19
    6171    6177    6174    6186      19    6189    6195    6192    6198      19
    6189    6195    6192    6201      19    6189    6195    6192    6204      19
    6207    6213    6210    6216      19    6207    6213    6210    6219      19
    6207    6213    6210    6222      19    6225    6231    6228    6234      19
    6225    6231    6228    6237      19    6225    6231    6228    6240      19
    6243    6249    6246    6252      19    6243    6249    6246    6255      19
    6243    6249    6246    6258      19    6261    6267    6264    6270      19
    6261    6267    6264    6273      19    6261    6267    6264    6276      19
    6279    6285    6282    6288      19    6279    6285    6282    6291      19
    6279    6285    6282    6294      19    6297    6303    6300    6306      19
    6297    6303    6300    6309      19    6297    6303    6300    6312      19
    6315    6321    6318    6324      19    6315    6321    6318    6327      19
    6315    6321    6318    6330      19    6333    6339    6336    6342      19
    6333    6339    6336    6345      19    6333    6339    6336    6348      19
    6351    6357    6354    6360      19    6351    6357    6354    6363      19
    6351    6357    6354    6366      19    6369    6375    6372    6378      19
    6369    6375    6372    6381      19    6369    6375    6372    6384      19
    6387    6393    6390    6396      19    6387    6393    6390    6399      19
    6387    6393    6390    6402      19    6405    6411    6408    6414      19
    6405    6411    6408    6417      19    6405    6411    6408    6420      19
    6423    6429    6426    6432      19    6423    6429    6426    6435      19
    6423    6429    6426    6438      19    6441    6447    6444    6450      19
    6441    6447    6444    6453      19    6441    6447    6444    6456      19
    6459    6465    6462    6468      19    6459    6465    6462    6471      19
    6459    6465    6462    6474      19    6477    6483    6480    6486      19
    6477    6483    6480    6489      19    6477    6483    6480    6492      19
    6495    6501    6498    6504      19    6495    6501    6498    6507      19
    6495    6501    6498    6510      19    6513    6519    6516    6522      19
    6513    6519    6516    6525      19    6513    6519    6516    6528      19
    6531    6537    6534    6540      19    6531    6537    6534    6543      19
    6531    6537    6534    6546      19    6549    6555    6552    6558      19
    6549    6555    6552    6561      19    6549    6555    6552    6564      19
    6567    6573    6570    6576      19    6567    6573    6570    6579      19
    6567    6573    6570    6582      19    6585    6591    6588    6594      19
    6585    6591    6588    6597      19    6585    6591    6588    6600      19
    6603    6609    6606    6612      19    6603    6609    6606    6615      19
    6603    6609    6606    6618      19    6621    6627    6624    6630      19
    6621    6627    6624    6633      19    6621    6627    6624    6636      19
    6639    6645    6642    6648      19    6639    6645    6642    6651      19
    6639    6645    6642    6654      19    6657    6663    6660    6666      19
    6657    6663    6660    6669      19    6657    6663    6660    6672      19
    6675    6681    6678    6684      19    6675    6681    6678    6687      19
    6675    6681    6678    6690      19    6693    6699    6696    6702      19
    6693    6699    6696    6705      19    6693    6699    6696    6708      19
    6711    6717    6714    6720      19    6711    6717    6714    6723      19
    6711    6717    6714    6726      19    6729    6735    6732    6738      19
    6729    6735    6732    6741      19    6729    6735    6732    6744      19
    6747    6753    6750    6756      19    6747    6753    6750    6759      19
    6747    6753    6750    6762      19    6765    6771    6768    6774      19
    6765    6771    6768    6777      19    6765    6771    6768    6780      19
    6783    6789    6786    6792      19    6783    6789    6786    6795      19
    6783    6789    6786    6798      19    6801    6807    6804    6810      19
    6801    6807    6804    6813      19    6801    6807    6804    6816      19
    6819    6825    6822    6828      19    6819    6825    6822    6831      19
    6819    6825    6822    6834      19    6837    6843    6840    6846      19
    6837    6843    6840    6849      19    6837    6843    6840    6852      19
    6855    6861    6858    6864      19    6855    6861    6858    6867      19
    6855    6861    6858    6870      19    6873    6879    6876    6882      19
    6873    6879    6876    6885      19    6873    6879    6876    6888      19
    6891    6897    6894    6900      19    6891    6897    6894    6903      19
    6891    6897    6894    6906      19    6909    6915    6912    6918      19
    6909    6915    6912    6921      19    6909    6915    6912    6924      19
    6927    6933    6930    6936      19    6927    6933    6930    6939      19
    6927    6933    6930    6942      19    6945    6951    6948    6954      19
    6945    6951    6948    6957      19    6945    6951    6948    6960      19
    6963    6969    6966    6972      19    6963    6969    6966    6975      19
    6963    6969    6966    6978      19    6981    6987    6984    6990      19
    6981    6987    6984    6993      19    6981    6987    6984    6996      19
    6999    7005    7002    7008      19    6999    7005    7002    7011      19
    6999    7005    7002    7014      19    7017    7023    7020    7026      19
    7017    7023    7020    7029      19    7017    7023    7020    7032      19
    7035    7041    7038    7044      19    7035    7041    7038    7047      19
    7035    7041    7038    7050      19    7053    7059    7056    7062      19
    7053    7059    7056    7065      19    7053    7059    7056    7068      19
    7071    7077    7074    7080      19    7071    7077    7074    7083      19
    7071    7077    7074    7086      19    7089    7095    7092    7098      19
    7089    7095    7092    7101      19    7089    7095    7092    7104      19
    7107    7113    7110    7116      19    7107    7113    7110    7119      19
    7107    7113    7110    7122      19    7125    7131    7128    7134      19
    7125    7131    7128    7137      19    7125    7131    7128    7140      19
    7143    7149    7146    7152      19    7143    7149    7146    7155      19
    7143    7149    7146    7158      19    7161    7167    7164    7170      19
    7161    7167    7164    7173      19    7161    7167    7164    7176      19
    7179    7185    7182    7188      19    7179    7185    7182    7191      19
    7179    7185    7182    7194      19    7197    7203    7200    7206      19
    7197    7203    7200    7209      19    7197    7203    7200    7212      19
    7215    7221    7218    7224      19    7215    7221    7218    7227      19
    7215    7221    7218    7230      19    7233    7239    7236    7242      19
    7233    7239    7236    7245      19    7233    7239    7236    7248      19
    7251    7257    7254    7260      19    7251    7257    7254    7263      19
    7251    7257    7254    7266      19    7269    7275    7272    7278      19
    7269    7275    7272    7281      19    7269    7275    7272    7284      19
    7287    7293    7290    7296      19    7287    7293    7290    7299      19
    7287    7293    7290    7302      19    7305    7311    7308    7314      19
    7305    7311    7308    7317      19    7305    7311    7308    7320      19
    7323    7329    7326    7332      19    7323    7329    7326    7335      19
    7323    7329    7326    7338      19    7341    7347    7344    7350      19
    7341    7347    7344    7353      19    7341    7347    7344    7356      19
    7359    7365    7362    7368      19    7359    7365    7362    7371      19
    7359    7365    7362    7374      19    7377    7383    7380    7386      19
    7377    7383    7380    7389      19    7377    7383    7380    7392      19
    7395    7401    7398    7404      19    7395    7401    7398    7407      19
    7395    7401    7398    7410      19    7413    7419    7416    7422      19
    7413    7419    7416    7425      19    7413    7419    7416    7428      19
    7431    7437    7434    7440      19    7431    7437    7434    7443      19
    7431    7437    7434    7446      19    7449    7455    7452    7458      19
    7449    7455    7452    7461      19    7449    7455    7452    7464      19
    7467    7473    7470    7476      19    7467    7473    7470    7479      19
    7467    7473    7470    7482      19    7485    7491    7488    7494      19
    7485    7491    7488    7497      19    7485    7491    7488    7500      19
    7503    7509    7506    7512      19    7503    7509    7506    7515      19
    7503    7509    7506    7518      19    7521    7527    7524    7530      19
    7521    7527    7524    7533      19    7521    7527    7524    7536      19
    7539    7545    7542    7548      19    7539    7545    7542    7551      19
    7539    7545    7542    7554      19    7557    7563    7560    7566      19
    7557    7563    7560    7569      19    7557    7563    7560    7572      19
    7575    7581    7578    7584      19    7575    7581    7578    7587      19
    7575    7581    7578    7590      19    7593    7599    7596    7602      19
    7593    7599    7596    7605      19    7593    7599    7596    7608      19
    7611    7617    7614    7620      19    7611    7617    7614    7623      19
    7611    7617    7614    7626      19    7629    7635    7632    7638      19
    7629    7635    7632    7641      19    7629    7635    7632    7644      19
    7647    7653    7650    7656      19    7647    7653    7650    7659      19
    7647    7653    7650    7662      19    7665    7671    7668    7674      19
    7665    7671    7668    7677      19    7665    7671    7668    7680      19
    7683    7689    7686    7692      19    7683    7689    7686    7695      19
    7683    7689    7686    7698      19    7701    7707    7704    7710      19
    7701    7707    7704    7713      19    7701    7707    7704    7716      19
    7719    7725    7722    7728      19    7719    7725    7722    7731      19
    7719    7725    7722    7734      19    7737    7743    7740    7746      19
    7737    7743    7740    7749      19    7737    7743    7740    7752      19
    7755    7761    7758    7764      19    7755    7761    7758    7767      19
    7755    7761    7758    7770      19    7773    7779    7776    7782      19
    7773    7779    7776    7785      19    7773    7779    7776    7788      19
    7791    7797    7794    7800      19    7791    7797    7794    7803      19
    7791    7797    7794    7806      19    7809    7815    7812    7818      19
    7809    7815    7812    7821      19    7809    7815    7812    7824      19
    7827    7833    7830    7836      19    7827    7833    7830    7839      19
    7827    7833    7830    7842      19    7845    7851    7848    7854      19
    7845    7851    7848    7857      19    7845    7851    7848    7860      19
    7863    7869    7866    7872      19    7863    7869    7866    7875      19
    7863    7869    7866    7878      19    7881    7887    7884    7890      19
    7881    7887    7884    7893      19    7881    7887    7884    7896      19
    7899    7905    7902    7908      19    7899    7905    7902    7911      19
    7899    7905    7902    7914      19    7917    7923    7920    7926      19
    7917    7923    7920    7929      19    7917    7923    7920    7932      19
    7935    7941    7938    7944      19    7935    7941    7938    7947      19
    7935    7941    7938    7950      19    7953    7959    7956    7962      19
    7953    7959    7956    7965      19    7953    7959    7956    7968      19
    7971    7977    7974    7980      19    7971    7977    7974    7983      19
    7971    7977    7974    7986      19    7989    7995    7992    7998      19
    7989    7995    7992    8001      19    7989    7995    7992    8004      19
    8007    8013    8010    8016      19    8007    8013    8010    8019      19
    8007    8013    8010    8022      19    8025    8031    8028    8034      19
    8025    8031    8028    8037      19    8025    8031    8028    8040      19
    8043    8049    8046    8052      19    8043    8049    8046    8055      19
    8043    8049    8046    8058      19    8061    8067    8064    8070      19
    8061    8067    8064    8073      19    8061    8067    8064    8076      19
    8079    8085    8082    8088      19    8079    8085    8082    8091      19
    8079    8085    8082    8094      19    8097    8103    8100    8106      19
    8097    8103    8100    8109      19    8097    8103    8100    8112      19
    8115    8121    8118    8124      19    8115    8121    8118    8127      19
    8115    8121    8118    8130      19    8133    8139    8136    8142      19
    8133    8139    8136    8145      19    8133    8139    8136    8148      19
    8151    8157    8154    8160      19    8151    8157    8154    8163      19
    8151    8157    8154    8166      19    8169    8175    8172    8178      19
    8169    8175    8172    8181      19    8169    8175    8172    8184      19
    8187    8193    8190    8196      19    8187    8193    8190    8199      19
    8187    8193    8190    8202      19    8205    8211    8208    8214      19
    8205    8211    8208    8217      19    8205    8211    8208    8220      19
    8223    8229    8226    8232      19    8223    8229    8226    8235      19
    8223    8229    8226    8238      19    8241    8247    8244    8250      19
    8241    8247    8244    8253      19    8241    8247    8244    8256      19
    8259    8265    8262    8268      19    8259    8265    8262    8271      19
    8259    8265    8262    8274      19    8277    8283    8280    8286      19
    8277    8283    8280    8289      19    8277    8283    8280    8292      19
    8295    8301    8298    8304      19    8295    8301    8298    8307      19
    8295    8301    8298    8310      19    8313    8319    8316    8322      19
    8313    8319    8316    8325      19    8313    8319    8316    8328      19
    8331    8337    8334    8340      19    8331    8337    8334    8343      19
    8331    8337    8334    8346      19    8349    8355    8352    8358      19
    8349    8355    8352    8361      19    8349    8355    8352    8364      19
    8367    8373    8370    8376      19    8367    8373    8370    8379      19
    8367    8373    8370    8382      19    8385    8391    8388    8394      19
    8385    8391    8388    8397      19    8385    8391    8388    8400      19
    8403    8409    8406    8412      19    8403    8409    8406    8415      19
    8403    8409    8406    8418      19    8421    8427    8424    8430      19
    8421    8427    8424    8433      19    8421    8427    8424    8436      19
    8439    8445    8442    8448      19    8439    8445    8442    8451      19
    8439    8445    8442    8454      19    8457    8463    8460    8466      19
    8457    8463    8460    8469      19    8457    8463    8460    8472      19
    8475    8481    8478    8484      19    8475    8481    8478    8487      19
    8475    8481    8478    8490      19    8493    8499    8496    8502      19
    8493    8499    8496    8505      19    8493    8499    8496    8508      19
    8511    8517    8514    8520      19    8511    8517    8514    8523      19
    8511    8517    8514    8526      19    8529    8535    8532    8538      19
    8529    8535    8532    8541      19    8529    8535    8532    8544      19
    8547    8553    8550    8556      19    8547    8553    8550    8559      19
    8547    8553    8550    8562      19    8565    8571    8568    8574      19
    8565    8571    8568    8577      19    8565    8571    8568    8580      19
    8583    8589    8586    8592      19    8583    8589    8586    8595      19
    8583    8589    8586    8598      19    8601    8607    8604    8610      19
    8601    8607    8604    8613      19    8601    8607    8604    8616      19
    8619    8625    8622    8628      19    8619    8625    8622    8631      19
    8619    8625    8622    8634      19    8637    8643    8640    8646      19
    8637    8643    8640    8649      19    8637    8643    8640    8652      19
    8655    8661    8658    8664      19    8655    8661    8658    8667      19
    8655    8661    8658    8670      19    8673    8679    8676    8682      19
    8673    8679    8676    8685      19    8673    8679    8676    8688      19
    8691    8697    8694    8700      19    8691    8697    8694    8703      19
    8691    8697    8694    8706      19    8709    8715    8712    8718      19
    8709    8715    8712    8721      19    8709    8715    8712    8724      19
    8727    8733    8730    8736      19    8727    8733    8730    8739      19
    8727    8733    8730    8742      19    8745    8751    8748    8754      19
    8745    8751    8748    8757      19    8745    8751    8748    8760      19
    8763    8769    8766    8772      19    8763    8769    8766    8775      19
    8763    8769    8766    8778      19    8781    8787    8784    8790      19
    8781    8787    8784    8793      19    8781    8787    8784    8796      19
    8799    8805    8802    8808      19    8799    8805    8802    8811      19
    8799    8805    8802    8814      19    8817    8823    8820    8826      19
    8817    8823    8820    8829      19    8817    8823    8820    8832      19
    8835    8841    8838    8844      19    8835    8841    8838    8847      19
    8835    8841    8838    8850      19    8853    8859    8856    8862      19
    8853    8859    8856    8865      19    8853    8859    8856    8868      19
    8871    8877    8874    8880      19    8871    8877    8874    8883      19
    8871    8877    8874    8886      19    8889    8895    8892    8898      19
    8889    8895    8892    8901      19    8889    8895    8892    8904      19
    8907    8913    8910    8916      19    8907    8913    8910    8919      19
    8907    8913    8910    8922      19    8925    8931    8928    8934      19
    8925    8931    8928    8937      19    8925    8931    8928    8940      19
    8943    8949    8946    8952      19    8943    8949    8946    8955      19
    8943    8949    8946    8958      19    8961    8967    8964    8970      19
    8961    8967    8964    8973      19    8961    8967    8964    8976      19
    8979    8985    8982    8988      19    8979    8985    8982    8991      19
    8979    8985    8982    8994      19    8997    9003    9000    9006      19
    8997    9003    9000    9009      19    8997    9003    9000    9012      19
    9015    9021    9018    9024      19    9015    9021    9018    9027      19
    9015    9021    9018    9030      19    9033    9039    9036    9042      19
    9033    9039    9036    9045      19    9033    9039    9036    9048      19
    9051    9057    9054    9060      19    9051    9057    9054    9063      19
    9051    9057    9054    9066      19    9069    9075    9072    9078      19
    9069    9075    9072    9081      19    9069    9075    9072    9084      19
    9087    9093    9090    9096      19    9087    9093    9090    9099      19
    9087    9093    9090    9102      19    9105    9111    9108    9114      19
    9105    9111    9108    9117      19    9105    9111    9108    9120      19
    9123    9129    9126    9132      19    9123    9129    9126    9135      19
    9123    9129    9126    9138      19    9141    9147    9144    9150      19
    9141    9147    9144    9153      19    9141    9147    9144    9156      19
    9159    9165    9162    9168      19    9159    9165    9162    9171      19
    9159    9165    9162    9174      19    9177    9183    9180    9186      19
    9177    9183    9180    9189      19    9177    9183    9180    9192      19
    9195    9201    9198    9204      19    9195    9201    9198    9207      19
    9195    9201    9198    9210      19    9213    9219    9216    9222      19
    9213    9219    9216    9225      19    9213    9219    9216    9228      19
    9231    9237    9234    9240      19    9231    9237    9234    9243      19
    9231    9237    9234    9246      19    9249    9255    9252    9258      19
    9249    9255    9252    9261      19    9249    9255    9252    9264      19
    9267    9273    9270    9276      19    9267    9273    9270    9279      19
    9267    9273    9270    9282      19    9285    9291    9288    9294      19
    9285    9291    9288    9297      19    9285    9291    9288    9300      19
    9303    9309    9306    9312      19    9303    9309    9306    9315      19
    9303    9309    9306    9318      19    9321    9327    9324    9330      19
    9321    9327    9324    9333      19    9321    9327    9324    9336      19
    9339    9345    9342    9348      19    9339    9345    9342    9351      19
    9339    9345    9342    9354      19    9357    9363    9360    9366      19
    9357    9363    9360    9369      19    9357    9363    9360    9372      19
    9375    9381    9378    9384      19    9375    9381    9378    9387      19
    9375    9381    9378    9390      19    9393    9399    9396    9402      19
    9393    9399    9396    9405      19    9393    9399    9396    9408      19
    9411    9417    9414    9420      19    9411    9417    9414    9423      19
    9411    9417    9414    9426      19    9429    9435    9432    9438      19
    9429    9435    9432    9441      19    9429    9435    9432    9444      19
    9447    9453    9450    9456      19    9447    9453    9450    9459      19
    9447    9453    9450    9462      19    9465    9471    9468    9474      19
    9465    9471    9468    9477      19    9465    9471    9468    9480      19
    9483    9489    9486    9492      19    9483    9489    9486    9495      19
    9483    9489    9486    9498      19    9501    9507    9504    9510      19
    9501    9507    9504    9513      19    9501    9507    9504    9516      19
    9519    9525    9522    9528      19    9519    9525    9522    9531      19
    9519    9525    9522    9534      19    9537    9543    9540    9546      19
    9537    9543    9540    9549      19    9537    9543    9540    9552      19
    9555    9561    9558    9564      19    9555    9561    9558    9567      19
    9555    9561    9558    9570      19    9573    9579    9576    9582      19
    9573    9579    9576    9585      19    9573    9579    9576    9588      19
    9591    9597    9594    9600      19    9591    9597    9594    9603      19
    9591    9597    9594    9606      19    9609    9615    9612    9618      19
    9609    9615    9612    9621      19    9609    9615    9612    9624      19
    9627    9633    9630    9636      19    9627    9633    9630    9639      19
    9627    9633    9630    9642      19    9645    9651    9648    9654      19
    9645    9651    9648    9657      19    9645    9651    9648    9660      19
    9663    9669    9666    9672      19    9663    9669    9666    9675      19
    9663    9669    9666    9678      19    9681    9687    9684    9690      19
    9681    9687    9684    9693      19    9681    9687    9684    9696      19
    9699    9705    9702    9708      19    9699    9705    9702    9711      19
    9699    9705    9702    9714      19    9717    9723    9720    9726      19
    9717    9723    9720    9729      19    9717    9723    9720    9732      19
    9735    9741    9738    9744      19    9735    9741    9738    9747      19
    9735    9741    9738    9750      19    9753    9759    9756    9762      19
    9753    9759    9756    9765      19    9753    9759    9756    9768      19
    9771    9777    9774    9780      19    9771    9777    9774    9783      19
    9771    9777    9774    9786      19    9789    9795    9792    9798      19
    9789    9795    9792    9801      19    9789    9795    9792    9804      19
    9807    9813    9810    9816      19    9807    9813    9810    9819      19
    9807    9813    9810    9822      19    9825    9831    9828    9834      19
    9825    9831    9828    9837      19    9825    9831    9828    9840      19
    9843    9849    9846    9852      19    9843    9849    9846    9855      19
    9843    9849    9846    9858      19    9861    9867    9864    9870      19
    9861    9867    9864    9873      19    9861    9867    9864    9876      19
    9879    9885    9882    9888      19    9879    9885    9882    9891      19
    9879    9885    9882    9894      19    9897    9903    9900    9906      19
    9897    9903    9900    9909      19    9897    9903    9900    9912      19
    9915    9921    9918    9924      19    9915    9921    9918    9927      19
    9915    9921    9918    9930      19    9933    9939    9936    9942      19
    9933    9939    9936    9945      19    9933    9939    9936    9948      19
    9951    9957    9954    9960      19    9951    9957    9954    9963      19
    9951    9957    9954    9966      19    9969    9975    9972    9978      19
    9969    9975    9972    9981      19    9969    9975    9972    9984      19
    9987    9993    9990    9996      19    9987    9993    9990    9999      19
    9987    9993    9990   10002      19   10005   10011   10008   10014      19
   10005   10011   10008   10017      19   10005   10011   10008   10020      19
   10023   10029   10026   10032      19   10023   10029   10026   10035      19
   10023   10029   10026   10038      19   10041   10047   10044   10050      19
   10041   10047   10044   10053      19   10041   10047   10044   10056      19
   10059   10065   10062   10068      19   10059   10065   10062   10071      19
   10059   10065   10062   10074      19   10077   10083   10080   10086      19
   10077   10083   10080   10089      19   10077   10083   10080   10092      19
   10095   10101   10098   10104      19   10095   10101   10098   10107      19
   10095   10101   10098   10110      19   10113   10119   10116   10122      19
   10113   10119   10116   10125      19   10113   10119   10116   10128      19
   10131   10137   10134   10140      19   10131   10137   10134   10143      19
   10131   10137   10134   10146      19   10149   10155   10152   10158      19
   10149   10155   10152   10161      19   10149   10155   10152   10164      19
   10167   10173   10170   10176      19   10167   10173   10170   10179      19
   10167   10173   10170   10182      19   10185   10191   10188   10194      19
   10185   10191   10188   10197      19   10185   10191   10188   10200      19
   10203   10209   10206   10212      19   10203   10209   10206   10215      19
   10203   10209   10206   10218      19   10221   10227   10224   10230      19
   10221   10227   10224   10233      19   10221   10227   10224   10236      19
   10239   10245   10242   10248      19   10239   10245   10242   10251      19
   10239   10245   10242   10254      19   10257   10263   10260   10266      19
   10257   10263   10260   10269      19   10257   10263   10260   10272      19
   10275   10281   10278   10284      19   10275   10281   10278   10287      19
   10275   10281   10278   10290      19   10293   10299   10296   10302      19
   10293   10299   10296   10305      19   10293   10299   10296   10308      19
   10311   10317   10314   10320      19   10311   10317   10314   10323      19
   10311   10317   10314   10326      19   10329   10335   10332   10338      19
   10329   10335   10332   10341      19   10329   10335   10332   10344      19
   10347   10353   10350   10356      19   10347   10353   10350   10359      19
   10347   10353   10350   10362      19   10365   10371   10368   10374      19
   10365   10371   10368   10377      19   10365   10371   10368   10380      19
   10383   10389   10386   10392      19   10383   10389   10386   10395      19
   10383   10389   10386   10398      19   10401   10407   10404   10410      19
   10401   10407   10404   10413      19   10401   10407   10404   10416      19
   10419   10425   10422   10428      19   10419   10425   10422   10431      19
   10419   10425   10422   10434      19   10437   10443   10440   10446      19
   10437   10443   10440   10449      19   10437   10443   10440   10452      19
   10455   10461   10458   10464      19   10455   10461   10458   10467      19
   10455   10461   10458   10470      19   10473   10479   10476   10482      19
   10473   10479   10476   10485      19   10473   10479   10476   10488      19
   10491   10497   10494   10500      19   10491   10497   10494   10503      19
   10491   10497   10494   10506      19   10509   10515   10512   10518      19
   10509   10515   10512   10521      19   10509   10515   10512   10524      19
   10527   10533   10530   10536      19   10527   10533   10530   10539      19
   10527   10533   10530   10542      19   10545   10551   10548   10554      19
   10545   10551   10548   10557      19   10545   10551   10548   10560      19
   10563   10569   10566   10572      19   10563   10569   10566   10575      19
   10563   10569   10566   10578      19   10581   10587   10584   10590      19
   10581   10587   10584   10593      19   10581   10587   10584   10596      19
   10599   10605   10602   10608      19   10599   10605   10602   10611      19
   10599   10605   10602   10614      19   10617   10623   10620   10626      19
   10617   10623   10620   10629      19   10617   10623   10620   10632      19
   10635   10641   10638   10644      19   10635   10641   10638   10647      19
   10635   10641   10638   10650      19   10653   10659   10656   10662      19
   10653   10659   10656   10665      19   10653   10659   10656   10668      19
   10671   10677   10674   10680      19   10671   10677   10674   10683      19
   10671   10677   10674   10686      19   10689   10695   10692   10698      19
   10689   10695   10692   10701      19   10689   10695   10692   10704      19
   10707   10713   10710   10716      19   10707   10713   10710   10719      19
   10707   10713   10710   10722      19   10725   10731   10728   10734      19
   10725   10731   10728   10737      19   10725   10731   10728   10740      19
   10743   10749   10746   10752      19   10743   10749   10746   10755      19
   10743   10749   10746   10758      19   10761   10767   10764   10770      19
   10761   10767   10764   10773      19   10761   10767   10764   10776      19
   10779   10785   10782   10788      19   10779   10785   10782   10791      19
   10779   10785   10782   10794      19   10797   10803   10800   10806      19
   10797   10803   10800   10809      19   10797   10803   10800   10812      19
   10815   10821   10818   10824      19   10815   10821   10818   10827      19
   10815   10821   10818   10830      19   10833   10839   10836   10842      19
   10833   10839   10836   10845      19   10833   10839   10836   10848      19
   10851   10857   10854   10860      19   10851   10857   10854   10863      19
   10851   10857   10854   10866      19   10869   10875   10872   10878      19
   10869   10875   10872   10881      19   10869   10875   10872   10884      19
   10887   10893   10890   10896      19   10887   10893   10890   10899      19
   10887   10893   10890   10902      19   10905   10911   10908   10914      19
   10905   10911   10908   10917      19   10905   10911   10908   10920      19
   10923   10929   10926   10932      19   10923   10929   10926   10935      19
   10923   10929   10926   10938      19   10941   10947   10944   10950      19
   10941   10947   10944   10953      19   10941   10947   10944   10956      19
   10959   10965   10962   10968      19   10959   10965   10962   10971      19
   10959   10965   10962   10974      19   10977   10983   10980   10986      19
   10977   10983   10980   10989      19   10977   10983   10980   10992      19
   10995   11001   10998   11004      19   10995   11001   10998   11007      19
   10995   11001   10998   11010      19   11013   11019   11016   11022      19
   11013   11019   11016   11025      19   11013   11019   11016   11028      19
   11031   11037   11034   11040      19   11031   11037   11034   11043      19
   11031   11037   11034   11046      19   11049   11055   11052   11058      19
   11049   11055   11052   11061      19   11049   11055   11052   11064      19
   11067   11073   11070   11076      19   11067   11073   11070   11079      19
   11067   11073   11070   11082      19   11085   11091   11088   11094      19
   11085   11091   11088   11097      19   11085   11091   11088   11100      19
   11103   11109   11106   11112      19   11103   11109   11106   11115      19
   11103   11109   11106   11118      19   11121   11127   11124   11130      19
   11121   11127   11124   11133      19   11121   11127   11124   11136      19
   11139   11145   11142   11148      19   11139   11145   11142   11151      19
   11139   11145   11142   11154      19   11157   11163   11160   11166      19
   11157   11163   11160   11169      19   11157   11163   11160   11172      19
   11175   11181   11178   11184      19   11175   11181   11178   11187      19
   11175   11181   11178   11190      19   11193   11199   11196   11202      19
   11193   11199   11196   11205      19   11193   11199   11196   11208      19
   11211   11217   11214   11220      19   11211   11217   11214   11223      19
   11211   11217   11214   11226      19   11229   11235   11232   11238      19
   11229   11235   11232   11241      19   11229   11235   11232   11244      19
   11247   11253   11250   11256      19   11247   11253   11250   11259      19
   11247   11253   11250   11262      19   11265   11271   11268   11274      19
   11265   11271   11268   11277      19   11265   11271   11268   11280      19
   11283   11289   11286   11292      19   11283   11289   11286   11295      19
   11283   11289   11286   11298      19   11301   11307   11304   11310      19
   11301   11307   11304   11313      19   11301   11307   11304   11316      19
   11319   11325   11322   11328      19   11319   11325   11322   11331      19
   11319   11325   11322   11334      19   11337   11343   11340   11346      19
   11337   11343   11340   11349      19   11337   11343   11340   11352      19
   11355   11361   11358   11364      19   11355   11361   11358   11367      19
   11355   11361   11358   11370      19   11373   11379   11376   11382      19
   11373   11379   11376   11385      19   11373   11379   11376   11388      19
   11391   11397   11394   11400      19   11391   11397   11394   11403      19
   11391   11397   11394   11406      19   11409   11415   11412   11418      19
   11409   11415   11412   11421      19   11409   11415   11412   11424      19
   11427   11433   11430   11436      19   11427   11433   11430   11439      19
   11427   11433   11430   11442      19   11445   11451   11448   11454      19
   11445   11451   11448   11457      19   11445   11451   11448   11460      19
   11463   11469   11466   11472      19   11463   11469   11466   11475      19
   11463   11469   11466   11478      19   11481   11487   11484   11490      19
   11481   11487   11484   11493      19   11481   11487   11484   11496      19
   11499   11505   11502   11508      19   11499   11505   11502   11511      19
   11499   11505   11502   11514      19   11517   11523   11520   11526      19
   11517   11523   11520   11529      19   11517   11523   11520   11532      19
   11535   11541   11538   11544      19   11535   11541   11538   11547      19
   11535   11541   11538   11550      19   11553   11559   11556   11562      19
   11553   11559   11556   11565      19   11553   11559   11556   11568      19
   11571   11577   11574   11580      19   11571   11577   11574   11583      19
   11571   11577   11574   11586      19   11589   11595   11592   11598      19
   11589   11595   11592   11601      19   11589   11595   11592   11604      19
   11607   11613   11610   11616      19   11607   11613   11610   11619      19
   11607   11613   11610   11622      19   11625   11631   11628   11634      19
   11625   11631   11628   11637      19   11625   11631   11628   11640      19
   11643   11649   11646   11652      19   11643   11649   11646   11655      19
   11643   11649   11646   11658      19   11661   11667   11664   11670      19
   11661   11667   11664   11673      19   11661   11667   11664   11676      19
   11679   11685   11682   11688      19   11679   11685   11682   11691      19
   11679   11685   11682   11694      19   11697   11703   11700   11706      19
   11697   11703   11700   11709      19   11697   11703   11700   11712      19
   11715   11721   11718   11724      19   11715   11721   11718   11727      19
   11715   11721   11718   11730      19   11733   11739   11736   11742      19
   11733   11739   11736   11745      19   11733   11739   11736   11748      19
   11751   11757   11754   11760      19   11751   11757   11754   11763      19
   11751   11757   11754   11766      19   11769   11775   11772   11778      19
   11769   11775   11772   11781      19   11769   11775   11772   11784      19
   11787   11793   11790   11796      19   11787   11793   11790   11799      19
   11787   11793   11790   11802      19   11805   11811   11808   11814      19
   11805   11811   11808   11817      19   11805   11811   11808   11820      19
   11823   11829   11826   11832      19   11823   11829   11826   11835      19
   11823   11829   11826   11838      19   11841   11847   11844   11850      19
   11841   11847   11844   11853      19   11841   11847   11844   11856      19
   11859   11865   11862   11868      19   11859   11865   11862   11871      19
   11859   11865   11862   11874      19   11877   11883   11880   11886      19
   11877   11883   11880   11889      19   11877   11883   11880   11892      19
   11895   11901   11898   11904      19   11895   11901   11898   11907      19
   11895   11901   11898   11910      19   11913   11919   11916   11922      19
   11913   11919   11916   11925      19   11913   11919   11916   11928      19
   11931   11937   11934   11940      19   11931   11937   11934   11943      19
   11931   11937   11934   11946      19   11949   11955   11952   11958      19
   11949   11955   11952   11961      19   11949   11955   11952   11964      19
   11967   11973   11970   11976      19   11967   11973   11970   11979      19
   11967   11973   11970   11982      19   11985   11991   11988   11994      19
   11985   11991   11988   11997      19   11985   11991   11988   12000      19
   12003   12009   12006   12012      19   12003   12009   12006   12015      19
   12003   12009   12006   12018      19   12021   12027   12024   12030      19
   12021   12027   12024   12033      19   12021   12027   12024   12036      19
   12039   12045   12042   12048      19   12039   12045   12042   12051      19
   12039   12045   12042   12054      19   12057   12063   12060   12066      19
   12057   12063   12060   12069      19   12057   12063   12060   12072      19
   12075   12081   12078   12084      19   12075   12081   12078   12087      19
   12075   12081   12078   12090      19   12093   12099   12096   12102      19
   12093   12099   12096   12105      19   12093   12099   12096   12108      19
   12111   12117   12114   12120      19   12111   12117   12114   12123      19
   12111   12117   12114   12126      19   12129   12135   12132   12138      19
   12129   12135   12132   12141      19   12129   12135   12132   12144      19
   12147   12153   12150   12156      19   12147   12153   12150   12159      19
   12147   12153   12150   12162      19   12165   12171   12168   12174      19
   12165   12171   12168   12177      19   12165   12171   12168   12180      19
   12183   12189   12186   12192      19   12183   12189   12186   12195      19
   12183   12189   12186   12198      19   12201   12207   12204   12210      19
   12201   12207   12204   12213      19   12201   12207   12204   12216      19
   12219   12225   12222   12228      19   12219   12225   12222   12231      19
   12219   12225   12222   12234      19   12237   12243   12240   12246      19
   12237   12243   12240   12249      19   12237   12243   12240   12252      19
   12255   12261   12258   12264      19   12255   12261   12258   12267      19
   12255   12261   12258   12270      19   12273   12279   12276   12282      19
   12273   12279   12276   12285      19   12273   12279   12276   12288      19
   12291   12297   12294   12300      19   12291   12297   12294   12303      19
   12291   12297   12294   12306      19   12309   12315   12312   12318      19
   12309   12315   12312   12321      19   12309   12315   12312   12324      19
   12327   12333   12330   12336      19   12327   12333   12330   12339      19
   12327   12333   12330   12342      19   12345   12351   12348   12354      19
   12345   12351   12348   12357      19   12345   12351   12348   12360      19
   12363   12369   12366   12372      19   12363   12369   12366   12375      19
   12363   12369   12366   12378      19   12381   12387   12384   12390      19
   12381   12387   12384   12393      19   12381   12387   12384   12396      19
   12399   12405   12402   12408      19   12399   12405   12402   12411      19
   12399   12405   12402   12414      19   12417   12423   12420   12426      19
   12417   12423   12420   12429      19   12417   12423   12420   12432      19
   12435   12441   12438   12444      19   12435   12441   12438   12447      19
   12435   12441   12438   12450      19   12453   12459   12456   12462      19
   12453   12459   12456   12465      19   12453   12459   12456   12468      19
   12471   12477   12474   12480      19   12471   12477   12474   12483      19
   12471   12477   12474   12486      19   12489   12495   12492   12498      19
   12489   12495   12492   12501      19   12489   12495   12492   12504      19
   12507   12513   12510   12516      19   12507   12513   12510   12519      19
   12507   12513   12510   12522      19   12525   12531   12528   12534      19
   12525   12531   12528   12537      19   12525   12531   12528   12540      19
   12543   12549   12546   12552      19   12543   12549   12546   12555      19
   12543   12549   12546   12558      19   12561   12567   12564   12570      19
   12561   12567   12564   12573      19   12561   12567   12564   12576      19
   12579   12585   12582   12588      19   12579   12585   12582   12591      19
   12579   12585   12582   12594      19   12597   12603   12600   12606      19
   12597   12603   12600   12609      19   12597   12603   12600   12612      19
   12615   12621   12618   12624      19   12615   12621   12618   12627      19
   12615   12621   12618   12630      19   12633   12639   12636   12642      19
   12633   12639   12636   12645      19   12633   12639   12636   12648      19
   12651   12657   12654   12660      19   12651   12657   12654   12663      19
   12651   12657   12654   12666      19   12669   12675   12672   12678      19
   12669   12675   12672   12681      19   12669   12675   12672   12684      19
   12687   12693   12690   12696      19   12687   12693   12690   12699      19
   12687   12693   12690   12702      19   12705   12711   12708   12714      19
   12705   12711   12708   12717      19   12705   12711   12708   12720      19
   12723   12729   12726   12732      19   12723   12729   12726   12735      19
   12723   12729   12726   12738      19   12741   12747   12744   12750      19
   12741   12747   12744   12753      19   12741   12747   12744   12756      19
   12759   12765   12762   12768      19   12759   12765   12762   12771      19
   12759   12765   12762   12774      19   12777   12783   12780   12786      19
   12777   12783   12780   12789      19   12777   12783   12780   12792      19
   12795   12801   12798   12804      19   12795   12801   12798   12807      19
   12795   12801   12798   12810      19   12813   12819   12816   12822      19
   12813   12819   12816   12825      19   12813   12819   12816   12828      19
   12831   12837   12834   12840      19   12831   12837   12834   12843      19
   12831   12837   12834   12846      19   12849   12855   12852   12858      19
   12849   12855   12852   12861      19   12849   12855   12852   12864      19
   12867   12873   12870   12876      19   12867   12873   12870   12879      19
   12867   12873   12870   12882      19   12885   12891   12888   12894      19
   12885   12891   12888   12897      19   12885   12891   12888   12900      19
   12903   12909   12906   12912      19   12903   12909   12906   12915      19
   12903   12909   12906   12918      19   12921   12927   12924   12930      19
   12921   12927   12924   12933      19   12921   12927   12924   12936      19
   12939   12945   12942   12948      19   12939   12945   12942   12951      19
   12939   12945   12942   12954      19   12957   12963   12960   12966      19
   12957   12963   12960   12969      19   12957   12963   12960   12972      19
   12975   12981   12978   12984      19   12975   12981   12978   12987      19
   12975   12981   12978   12990      19   12993   12999   12996   13002      19
   12993   12999   12996   13005      19   12993   12999   12996   13008      19
   13011   13017   13014   13020      19   13011   13017   13014   13023      19
   13011   13017   13014   13026      19   13029   13035   13032   13038      19
   13029   13035   13032   13041      19   13029   13035   13032   13044      19
   13047   13053   13050   13056      19   13047   13053   13050   13059      19
   13047   13053   13050   13062      19   13065   13071   13068   13074      19
   13065   13071   13068   13077      19   13065   13071   13068   13080      19
   13083   13089   13086   13092      19   13083   13089   13086   13095      19
   13083   13089   13086   13098      19   13101   13107   13104   13110      19
   13101   13107   13104   13113      19   13101   13107   13104   13116      19
   13119   13125   13122   13128      19   13119   13125   13122   13131      19
   13119   13125   13122   13134      19   13137   13143   13140   13146      19
   13137   13143   13140   13149      19   13137   13143   13140   13152      19
   13155   13161   13158   13164      19   13155   13161   13158   13167      19
   13155   13161   13158   13170      19   13173   13179   13176   13182      19
   13173   13179   13176   13185      19   13173   13179   13176   13188      19
   13191   13197   13194   13200      19   13191   13197   13194   13203      19
   13191   13197   13194   13206      19   13209   13215   13212   13218      19
   13209   13215   13212   13221      19   13209   13215   13212   13224      19
   13227   13233   13230   13236      19   13227   13233   13230   13239      19
   13227   13233   13230   13242      19   13245   13251   13248   13254      19
   13245   13251   13248   13257      19   13245   13251   13248   13260      19
   13263   13269   13266   13272      19   13263   13269   13266   13275      19
   13263   13269   13266   13278      19   13281   13287   13284   13290      19
   13281   13287   13284   13293      19   13281   13287   13284   13296      19
   13299   13305   13302   13308      19   13299   13305   13302   13311      19
   13299   13305   13302   13314      19   13317   13323   13320   13326      19
   13317   13323   13320   13329      19   13317   13323   13320   13332      19
   13335   13341   13338   13344      19   13335   13341   13338   13347      19
   13335   13341   13338   13350      19   13353   13359   13356   13362      19
   13353   13359   13356   13365      19   13353   13359   13356   13368      19
   13371   13377   13374   13380      19   13371   13377   13374   13383      19
   13371   13377   13374   13386      19   13389   13395   13392   13398      19
   13389   13395   13392   13401      19   13389   13395   13392   13404      19
   13407   13413   13410   13416      19   13407   13413   13410   13419      19
   13407   13413   13410   13422      19   13425   13431   13428   13434      19
   13425   13431   13428   13437      19   13425   13431   13428   13440      19
   13443   13449   13446   13452      19   13443   13449   13446   13455      19
   13443   13449   13446   13458      19   13461   13467   13464   13470      19
   13461   13467   13464   13473      19   13461   13467   13464   13476      19
   13479   13485   13482   13488      19   13479   13485   13482   13491      19
   13479   13485   13482   13494      19   13497   13503   13500   13506      19
   13497   13503   13500   13509      19   13497   13503   13500   13512      19
   13515   13521   13518   13524      19   13515   13521   13518   13527      19
   13515   13521   13518   13530      19   13533   13539   13536   13542      19
   13533   13539   13536   13545      19   13533   13539   13536   13548      19
   13551   13557   13554   13560      19   13551   13557   13554   13563      19
   13551   13557   13554   13566      19   13569   13575   13572   13578      19
   13569   13575   13572   13581      19   13569   13575   13572   13584      19
   13587   13593   13590   13596      19   13587   13593   13590   13599      19
   13587   13593   13590   13602      19   13605   13611   13608   13614      19
   13605   13611   13608   13617      19   13605   13611   13608   13620      19
   13623   13629   13626   13632      19   13623   13629   13626   13635      19
   13623   13629   13626   13638      19   13641   13647   13644   13650      19
   13641   13647   13644   13653      19   13641   13647   13644   13656      19
   13659   13665   13662   13668      19   13659   13665   13662   13671      19
   13659   13665   13662   13674      19   13677   13683   13680   13686      19
   13677   13683   13680   13689      19   13677   13683   13680   13692      19
   13695   13701   13698   13704      19   13695   13701   13698   13707      19
   13695   13701   13698   13710      19   13713   13719   13716   13722      19
   13713   13719   13716   13725      19   13713   13719   13716   13728      19
   13731   13737   13734   13740      19   13731   13737   13734   13743      19
   13731   13737   13734   13746      19   13749   13755   13752   13758      19
   13749   13755   13752   13761      19   13749   13755   13752   13764      19
   13767   13773   13770   13776      19   13767   13773   13770   13779      19
   13767   13773   13770   13782      19   13785   13791   13788   13794      19
   13785   13791   13788   13797      19   13785   13791   13788   13800      19
   13803   13809   13806   13812      19   13803   13809   13806   13815      19
   13803   13809   13806   13818      19   13821   13827   13824   13830      19
   13821   13827   13824   13833      19   13821   13827   13824   13836      19
   13839   13845   13842   13848      19   13839   13845   13842   13851      19
   13839   13845   13842   13854      19   13857   13863   13860   13866      19
   13857   13863   13860   13869      19   13857   13863   13860   13872      19
   13875   13881   13878   13884      19   13875   13881   13878   13887      19
   13875   13881   13878   13890      19   13893   13899   13896   13902      19
   13893   13899   13896   13905      19   13893   13899   13896   13908      19
   13911   13917   13914   13920      19   13911   13917   13914   13923      19
   13911   13917   13914   13926      19   13929   13935   13932   13938      19
   13929   13935   13932   13941      19   13929   13935   13932   13944      19
   13947   13953   13950   13956      19   13947   13953   13950   13959      19
   13947   13953   13950   13962      19   13965   13971   13968   13974      19
   13965   13971   13968   13977      19   13965   13971   13968   13980      19
   13983   13989   13986   13992      19   13983   13989   13986   13995      19
   13983   13989   13986   13998      19   14001   14007   14004   14010      19
   14001   14007   14004   14013      19   14001   14007   14004   14016      19
   14019   14025   14022   14028      19   14019   14025   14022   14031      19
   14019   14025   14022   14034      19   14037   14043   14040   14046      19
   14037   14043   14040   14049      19   14037   14043   14040   14052      19
   14055   14061   14058   14064      19   14055   14061   14058   14067      19
   14055   14061   14058   14070      19   14073   14079   14076   14082      19
   14073   14079   14076   14085      19   14073   14079   14076   14088      19
   14091   14097   14094   14100      19   14091   14097   14094   14103      19
   14091   14097   14094   14106      19   14109   14115   14112   14118      19
   14109   14115   14112   14121      19   14109   14115   14112   14124      19
   14127   14133   14130   14136      19   14127   14133   14130   14139      19
   14127   14133   14130   14142      19   14145   14151   14148   14154      19
   14145   14151   14148   14157      19   14145   14151   14148   14160      19
   14163   14169   14166   14172      19   14163   14169   14166   14175      19
   14163   14169   14166   14178      19   14181   14187   14184   14190      19
   14181   14187   14184   14193      19   14181   14187   14184   14196      19
   14199   14205   14202   14208      19   14199   14205   14202   14211      19
   14199   14205   14202   14214      19   14217   14223   14220   14226      19
   14217   14223   14220   14229      19   14217   14223   14220   14232      19
   14235   14241   14238   14244      19   14235   14241   14238   14247      19
   14235   14241   14238   14250      19   14253   14259   14256   14262      19
   14253   14259   14256   14265      19   14253   14259   14256   14268      19
   14271   14277   14274   14280      19   14271   14277   14274   14283      19
   14271   14277   14274   14286      19   14289   14295   14292   14298      19
   14289   14295   14292   14301      19   14289   14295   14292   14304      19
   14307   14313   14310   14316      19   14307   14313   14310   14319      19
   14307   14313   14310   14322      19   14325   14331   14328   14334      19
   14325   14331   14328   14337      19   14325   14331   14328   14340      19
   14343   14349   14346   14352      19   14343   14349   14346   14355      19
   14343   14349   14346   14358      19   14361   14367   14364   14370      19
   14361   14367   14364   14373      19   14361   14367   14364   14376      19
   14379   14385   14382   14388      19   14379   14385   14382   14391      19
   14379   14385   14382   14394      19   14397   14403   14400   14406      19
   14397   14403   14400   14409      19   14397   14403   14400   14412      19
   14415   14421   14418   14424      19   14415   14421   14418   14427      19
   14415   14421   14418   14430      19   14433   14439   14436   14442      19
   14433   14439   14436   14445      19   14433   14439   14436   14448      19
   14451   14457   14454   14460      19   14451   14457   14454   14463      19
   14451   14457   14454   14466      19   14469   14475   14472   14478      19
   14469   14475   14472   14481      19   14469   14475   14472   14484      19
   14487   14493   14490   14496      19   14487   14493   14490   14499      19
   14487   14493   14490   14502      19   14505   14511   14508   14514      19
   14505   14511   14508   14517      19   14505   14511   14508   14520      19
   14523   14529   14526   14532      19   14523   14529   14526   14535      19
   14523   14529   14526   14538      19   14541   14547   14544   14550      19
   14541   14547   14544   14553      19   14541   14547   14544   14556      19
   14559   14565   14562   14568      19   14559   14565   14562   14571      19
   14559   14565   14562   14574      19   14577   14583   14580   14586      19
   14577   14583   14580   14589      19   14577   14583   14580   14592      19
   14595   14601   14598   14604      19   14595   14601   14598   14607      19
   14595   14601   14598   14610      19   14613   14619   14616   14622      19
   14613   14619   14616   14625      19   14613   14619   14616   14628      19
   14631   14637   14634   14640      19   14631   14637   14634   14643      19
   14631   14637   14634   14646      19   14649   14655   14652   14658      19
   14649   14655   14652   14661      19   14649   14655   14652   14664      19
   14667   14673   14670   14676      19   14667   14673   14670   14679      19
   14667   14673   14670   14682      19   14685   14691   14688   14694      19
   14685   14691   14688   14697      19   14685   14691   14688   14700      19
   14703   14709   14706   14712      19   14703   14709   14706   14715      19
   14703   14709   14706   14718      19   14721   14727   14724   14730      19
   14721   14727   14724   14733      19   14721   14727   14724   14736      19
   14739   14745   14742   14748      19   14739   14745   14742   14751      19
   14739   14745   14742   14754      19   14757   14763   14760   14766      19
   14757   14763   14760   14769      19   14757   14763   14760   14772      19
   14775   14781   14778   14784      19   14775   14781   14778   14787      19
   14775   14781   14778   14790      19   14793   14799   14796   14802      19
   14793   14799   14796   14805      19   14793   14799   14796   14808      19
   14811   14817   14814   14820      19   14811   14817   14814   14823      19
   14811   14817   14814   14826      19   14829   14835   14832   14838      19
   14829   14835   14832   14841      19   14829   14835   14832   14844      19
   14847   14853   14850   14856      19   14847   14853   14850   14859      19
   14847   14853   14850   14862      19   14865   14871   14868   14874      19
   14865   14871   14868   14877      19   14865   14871   14868   14880      19
   14883   14889   14886   14892      19   14883   14889   14886   14895      19
   14883   14889   14886   14898      19   14901   14907   14904   14910      19
   14901   14907   14904   14913      19   14901   14907   14904   14916      19
   14919   14925   14922   14928      19   14919   14925   14922   14931      19
   14919   14925   14922   14934      19   14937   14943   14940   14946      19
   14937   14943   14940   14949      19   14937   14943   14940   14952      19
   14955   14961   14958   14964      19   14955   14961   14958   14967      19
   14955   14961   14958   14970      19   14973   14979   14976   14982      19
   14973   14979   14976   14985      19   14973   14979   14976   14988      19
   14991   14997   14994   15000      19   14991   14997   14994   15003      19
   14991   14997   14994   15006      19   15009   15015   15012   15018      19
   15009   15015   15012   15021      19   15009   15015   15012   15024      19
   15027   15033   15030   15036      19   15027   15033   15030   15039      19
   15027   15033   15030   15042      19   15045   15051   15048   15054      19
   15045   15051   15048   15057      19   15045   15051   15048   15060      19
   15063   15069   15066   15072      19   15063   15069   15066   15075      19
   15063   15069   15066   15078      19   15081   15087   15084   15090      19
   15081   15087   15084   15093      19   15081   15087   15084   15096      19
   15099   15105   15102   15108      19   15099   15105   15102   15111      19
   15099   15105   15102   15114      19   15117   15123   15120   15126      19
   15117   15123   15120   15129      19   15117   15123   15120   15132      19
   15135   15141   15138   15144      19   15135   15141   15138   15147      19
   15135   15141   15138   15150      19   15153   15159   15156   15162      19
   15153   15159   15156   15165      19   15153   15159   15156   15168      19
   15171   15177   15174   15180      19   15171   15177   15174   15183      19
   15171   15177   15174   15186      19   15189   15195   15192   15198      19
   15189   15195   15192   15201      19   15189   15195   15192   15204      19
   15207   15213   15210   15216      19   15207   15213   15210   15219      19
   15207   15213   15210   15222      19   15225   15231   15228   15234      19
   15225   15231   15228   15237      19   15225   15231   15228   15240      19
   15243   15249   15246   15252      19   15243   15249   15246   15255      19
   15243   15249   15246   15258      19   15261   15267   15264   15270      19
   15261   15267   15264   15273      19   15261   15267   15264   15276      19
   15279   15285   15282   15288      19   15279   15285   15282   15291      19
   15279   15285   15282   15294      19   15297   15303   15300   15306      19
   15297   15303   15300   15309      19   15297   15303   15300   15312      19
   15315   15321   15318   15324      19   15315   15321   15318   15327      19
   15315   15321   15318   15330      19   15333   15339   15336   15342      19
   15333   15339   15336   15345      19   15333   15339   15336   15348      19
   15351   15357   15354   15360      19   15351   15357   15354   15363      19
   15351   15357   15354   15366      19   15369   15375   15372   15378      19
   15369   15375   15372   15381      19   15369   15375   15372   15384      19
   15387   15393   15390   15396      19   15387   15393   15390   15399      19
   15387   15393   15390   15402      19   15405   15411   15408   15414      19
   15405   15411   15408   15417      19   15405   15411   15408   15420      19
   15423   15429   15426   15432      19   15423   15429   15426   15435      19
   15423   15429   15426   15438      19   15441   15447   15444   15450      19
   15441   15447   15444   15453      19   15441   15447   15444   15456      19
   15459   15465   15462   15468      19   15459   15465   15462   15471      19
   15459   15465   15462   15474      19   15477   15483   15480   15486      19
   15477   15483   15480   15489      19   15477   15483   15480   15492      19
   15495   15501   15498   15504      19   15495   15501   15498   15507      19
   15495   15501   15498   15510      19   15513   15519   15516   15522      19
   15513   15519   15516   15525      19   15513   15519   15516   15528      19
   15531   15537   15534   15540      19   15531   15537   15534   15543      19
   15531   15537   15534   15546      19   15549   15555   15552   15558      19
   15549   15555   15552   15561      19   15549   15555   15552   15564      19
   15567   15573   15570   15576      19   15567   15573   15570   15579      19
   15567   15573   15570   15582      19   15585   15591   15588   15594      19
   15585   15591   15588   15597      19   15585   15591   15588   15600      19
   15603   15609   15606   15612      19   15603   15609   15606   15615      19
   15603   15609   15606   15618      19   15621   15627   15624   15630      19
   15621   15627   15624   15633      19   15621   15627   15624   15636      19
   15639   15645   15642   15648      19   15639   15645   15642   15651      19
   15639   15645   15642   15654      19   15657   15663   15660   15666      19
   15657   15663   15660   15669      19   15657   15663   15660   15672      19
   15675   15681   15678   15684      19   15675   15681   15678   15687      19
   15675   15681   15678   15690      19   15693   15699   15696   15702      19
   15693   15699   15696   15705      19   15693   15699   15696   15708      19
   15711   15717   15714   15720      19   15711   15717   15714   15723      19
   15711   15717   15714   15726      19   15729   15735   15732   15738      19
   15729   15735   15732   15741      19   15729   15735   15732   15744      19
   15747   15753   15750   15756      19   15747   15753   15750   15759      19
   15747   15753   15750   15762      19   15765   15771   15768   15774      19
   15765   15771   15768   15777      19   15765   15771   15768   15780      19
   15783   15789   15786   15792      19   15783   15789   15786   15795      19
   15783   15789   15786   15798      19   15801   15807   15804   15810      19
   15801   15807   15804   15813      19   15801   15807   15804   15816      19
   15819   15825   15822   15828      19   15819   15825   15822   15831      19
   15819   15825   15822   15834      19   15837   15843   15840   15846      19
   15837   15843   15840   15849      19   15837   15843   15840   15852      19
   15855   15861   15858   15864      19   15855   15861   15858   15867      19
   15855   15861   15858   15870      19   15873   15879   15876   15882      19
   15873   15879   15876   15885      19   15873   15879   15876   15888      19
   15891   15897   15894   15900      19   15891   15897   15894   15903      19
   15891   15897   15894   15906      19   15909   15915   15912   15918      19
   15909   15915   15912   15921      19   15909   15915   15912   15924      19
   15927   15933   15930   15936      19   15927   15933   15930   15939      19
   15927   15933   15930   15942      19   15945   15951   15948   15954      19
   15945   15951   15948   15957      19   15945   15951   15948   15960      19
   15963   15969   15966   15972      19   15963   15969   15966   15975      19
   15963   15969   15966   15978      19   15981   15987   15984   15990      19
   15981   15987   15984   15993      19   15981   15987   15984   15996      19
   15999   16005   16002   16008      19   15999   16005   16002   16011      19
   15999   16005   16002   16014      19   16017   16023   16020   16026      19
   16017   16023   16020   16029      19   16017   16023   16020   16032      19
   16035   16041   16038   16044      19   16035   16041   16038   16047      19
   16035   16041   16038   16050      19   16053   16059   16056   16062      19
   16053   16059   16056   16065      19   16053   16059   16056   16068      19
   16071   16077   16074   16080      19   16071   16077   16074   16083      19
   16071   16077   16074   16086      19   16089   16095   16092   16098      19
   16089   16095   16092   16101      19   16089   16095   16092   16104      19
   16107   16113   16110   16116      19   16107   16113   16110   16119      19
   16107   16113   16110   16122      19   16125   16131   16128   16134      19
   16125   16131   16128   16137      19   16125   16131   16128   16140      19
   16143   16149   16146   16152      19   16143   16149   16146   16155      19
   16143   16149   16146   16158      19   16161   16167   16164   16170      19
   16161   16167   16164   16173      19   16161   16167   16164   16176      19
   16179   16185   16182   16188      19   16179   16185   16182   16191      19
   16179   16185   16182   16194      19   16197   16203   16200   16206      19
   16197   16203   16200   16209      19   16197   16203   16200   16212      19
   16215   16221   16218   16224      19   16215   16221   16218   16227      19
   16215   16221   16218   16230      19   16233   16239   16236   16242      19
   16233   16239   16236   16245      19   16233   16239   16236   16248      19
   16251   16257   16254   16260      19   16251   16257   16254   16263      19
   16251   16257   16254   16266      19   16269   16275   16272   16278      19
   16269   16275   16272   16281      19   16269   16275   16272   16284      19
   16287   16293   16290   16296      19   16287   16293   16290   16299      19
   16287   16293   16290   16302      19   16305   16311   16308   16314      19
   16305   16311   16308   16317      19   16305   16311   16308   16320      19
   16323   16329   16326   16332      19   16323   16329   16326   16335      19
   16323   16329   16326   16338      19   16341   16347   16344   16350      19
   16341   16347   16344   16353      19   16341   16347   16344   16356      19
   16359   16365   16362   16368      19   16359   16365   16362   16371      19
   16359   16365   16362   16374      19   16377   16383   16380   16386      19
   16377   16383   16380   16389      19   16377   16383   16380   16392      19
   16395   16401   16398   16404      19   16395   16401   16398   16407      19
   16395   16401   16398   16410      19   16413   16419   16416   16422      19
   16413   16419   16416   16425      19   16413   16419   16416   16428      19
   16431   16437   16434   16440      19   16431   16437   16434   16443      19
   16431   16437   16434   16446      19   16449   16455   16452   16458      19
   16449   16455   16452   16461      19   16449   16455   16452   16464      19
   16467   16473   16470   16476      19   16467   16473   16470   16479      19
   16467   16473   16470   16482      19   16485   16491   16488   16494      19
   16485   16491   16488   16497      19   16485   16491   16488   16500      19
   16503   16509   16506   16512      19   16503   16509   16506   16515      19
   16503   16509   16506   16518      19   16521   16527   16524   16530      19
   16521   16527   16524   16533      19   16521   16527   16524   16536      19
   16539   16545   16542   16548      19   16539   16545   16542   16551      19
   16539   16545   16542   16554      19   16557   16563   16560   16566      19
   16557   16563   16560   16569      19   16557   16563   16560   16572      19
   16575   16581   16578   16584      19   16575   16581   16578   16587      19
   16575   16581   16578   16590      19   16593   16599   16596   16602      19
   16593   16599   16596   16605      19   16593   16599   16596   16608      19
   16611   16617   16614   16620      19   16611   16617   16614   16623      19
   16611   16617   16614   16626      19   16629   16635   16632   16638      19
   16629   16635   16632   16641      19   16629   16635   16632   16644      19
   16647   16653   16650   16656      19   16647   16653   16650   16659      19
   16647   16653   16650   16662      19   16665   16671   16668   16674      19
   16665   16671   16668   16677      19   16665   16671   16668   16680      19
   16683   16689   16686   16692      19   16683   16689   16686   16695      19
   16683   16689   16686   16698      19   16701   16707   16704   16710      19
   16701   16707   16704   16713      19   16701   16707   16704   16716      19
   16719   16725   16722   16728      19   16719   16725   16722   16731      19
   16719   16725   16722   16734      19   16737   16743   16740   16746      19
   16737   16743   16740   16749      19   16737   16743   16740   16752      19
   16755   16761   16758   16764      19   16755   16761   16758   16767      19
   16755   16761   16758   16770      19   16773   16779   16776   16782      19
   16773   16779   16776   16785      19   16773   16779   16776   16788      19
      66      78     -81    -120      32      72      78     -75     -84      32
      63      75     -72    -114      32      57      51     -54    -132      32
      39      54     -51    -135      32      27      33     -30    -156      32
      21      30     -27    -159      32       0      12     -15    -102      32
       6      12      -9    -171      32     174       0     -15      -3      32
%FLAG DIHEDRALS_WITHOUT_HYDROGEN                                                
%FORMAT(10I8)                                                                   
      81      66      69      90       8      81      66      69     189       8
      81      78     117     201       7      81      78     117     204       9
      75      78     117     201       7      75      78     117     204       9
      72      63      60      87      10      72      63      66      81       3
      72      75     -78      81       3      72      75      78     117       3
      69      57      60      87      11      69      66      63      72       3
      69      66      81      78       3      66      63      60      87      10
      66      63      72      75       3      66      81     -78      75       3
      66      81      78     117       3      63      60     -57      69      13
      63      60     -57      69      14      63      66      69      90       8
      63      66      69     189       8      63      66      81      78       3
      63      72     -75      78       3      60      57     -69      66      16
      60      57      69      90      16      60      57      69     189      16
      60      63     -66      69       3      60      63      66      81       3
      60      63      72      75       3      57      60     -63      66      17
      57      60      63      72      17      57      69     -66      63      19
      57      69      66      81      19      54      57      60      63      20
      54      57      60      87      20      54      57      69      66      16
      54      57      69      90      16      54      57      69     189      16
      51      39      36      93       7      51      54      57      60       5
      51      54      57      69       5      48      33      36      93       5
      45      42      39      51      22      42      39      36      93       7
      42      39      51      54       5      39      36      33      48       5
      39      42     -45      48      12      39      51      54      57       7
      36      33      48      45      23      36      39     -42      45      22
      36      39      51      54       5      33      36      39      42       7
      33      36      39      51       7      33      48     -45      42      12
      30      33      36      39       5      30      33      36      93       5
      30      33      48      45      23      27      21      18      99      22
      27      21      18     210      22      27      21      24      96      24
      27      21     -24      96      25      27      21     -24      96      26
      27      30      33      36       7      27      30      33      48       7
      24      21      18      99      27      24      21      18     210      27
      24      21      27      30       7      21      27      30      33       5
      18       6      -3      24       3      18      21      24      96      11
      18      21      27      30       7      15       0       3      24       3
      15      12     177     222       7      15      12     177     225       9
      12       9       6      18       3       9       6       3      24       3
       9       6      18      21      16       9       6      18      99       8
       9       6      18     210       8       9      12     177     222       7
       9      12     177     225       9      15       0       3       6       3
       6       3     -24      21      28       6       3      24      96      10
       6       9     -12      15       3       6       9      12     177       3
       6      18     -21      24      27       6      18      21      27      29
       3       0      15      12       3       3       6      -9      12       3
       3       6     -18      21      16       3       6      18      99       8
       3       6      18     210       8       3      24     -21      18      13
       3      24     -21      18      14       3      24      21      27      30
       0       3       6       9       3       0       3       6      18       3
       0       3      24      21      28       0       3      24      96      10
       0      15     -12       9       3       0      15      12     177       3
      12     225    -177    -222      31      78     204    -117    -201      31
     117      75     -78     -81      32      69      63     -66     -81      32
      66      72     -63     -60      32      57      87     -60     -63      32
      69      54     -57     -60      32      42      36     -39     -51      32
      39      33     -36     -93      32      48      36     -33     -30      32
      96       3     -24     -21      32      18      27     -21     -24      32
     177       9     -12     -15      32      18       3      -6      -9      32
       0       6      -3     -24      32
%FLAG EXCLUDED_ATOMS_LIST                                                       
%FORMAT(10I8)                                                                   
       2       3       4       5       6       7       8       9      33      35
      59      60       3       4       5       6       7       8       9      10
      33      34      35      58      59      61      62      63      71       4
       5       6       7       8       9      10      33      34      55      56
      57      58      59      60      71      72      73      74       5       6
       7       8       9      34      35      58      60      71      75      76
       6       7      35      58      59      60      75      76      77       9
      35      58      59      60      75      76       8       9      10      11
      33      34      54      55      56      57      58      71      72      73
      74       9      10      11      12      33      34      53      54      55
      56      57      61      62      63      71      72      73      74      10
      11      33      34      54      59      61      62      63      71      11
      12      13      17      33      34      53      54      71      12      13
      14      16      17      32      48      51      53      54      13      14
      15      16      17      18      32      47      48      50      51      53
      54      14      15      16      17      18      19      32      46      48
      49      51      52      53      15      16      17      18      19      20
      32      45      46      47      49      50      52      16      17      18
      19      32      46      47      48      49      50      51      52      17
      18      47      48      49      50      51      52      32      47      48
      49      50      51      52      53      19      20      21      24      32
      45      46      49      52      20      21      22      23      24      30
      31      45      46      64      21      22      23      24      25      28
      30      31      36      37      38      42      43      44      45      46
      64      65      66      67      22      23      24      25      26      28
      30      31      39      42      43      44      45      64      23      24
      25      26      27      28      29      30      31      39      41      42
      43      44      64      24      25      26      27      28      30      31
      36      37      38      39      40      41      64      65      66      67
      25      27      28      30      31      36      37      38      41      45
      64      65      66      67      26      27      28      29      30      39
      40      27      28      29      39      40      41      68      69      28
      29      39      40      41      68      69      70      29      31      40
      41      64      68      69      39      40      42      43      44      36
      37      38      64      65      66      67       0      61      62      63
      55      56      57      71      72      73      74      59      60      37
      38      64      38      64      64       0      41      68      69      70
       0      43      44      44       0      46       0      48      49      50
      51      52      50      51      50      52      51      52       0       0
      54       0      56      57      71      57      71      71      60       0
      75      76      77      62      63      63       0      65      66      67
      66      67      67       0      69      70      70       0      72      73
      74      73      74      74       0      76      77      77       0      79
      80      81      82      83      80      81      82      83      81      82
      83      82      83      83       0      85      86      87      88      89
      86      87      88      89      87      88      89      88      89      89
       0      91      92      93      94      95      92      93      94      95
      93      94      95      94      95      95       0      97      98      99
     100     101      98      99     100     101      99     100     101     100
     101     101       0     103     104     105     106     107     104     105
     106     107     105     106     107     106     107     107       0     109
     110     111     112     113     110     111     112     113     111     112
     113     112     113     113       0     115     116     117     118     119
     116     117     118     119     117     118     119     118     119     119
       0     121     122     123     124     125     122     123     124     125
     123     124     125     124     125     125       0     127     128     129
     130     131     128     129     130     131     129     130     131     130
     131     131       0     133     134     135     136     137     134     135
     136     137     135     136     137     136     137     137       0     139
     140     141     142     143     140     141     142     143     141     142
     143     142     143     143       0     145     146     147     148     149
     146     147     148     149     147     148     149     148     149     149
       0     151     152     153     154     155     152     153     154     155
     153     154     155     154     155     155       0     157     158     159
     160     161     158     159     160     161     159     160     161     160
     161     161       0     163     164     165     166     167     164     165
     166     167     165     166     167     166     167     167       0     169
     170     171     172     173     170     171     172     173     171     172
     173     172     173     173       0     175     176     177     178     179
     176     177     178     179     177     178     179     178     179     179
       0     181     182     183     184     185     182     183     184     185
     183     184     185     184     185     185       0     187     188     189
     190     191     188     189     190     191     189     190     191     190
     191     191       0     193     194     195     196     197     194     195
     196     197     195     196     197     196     197     197       0     199
     200     201     202     203     200     201     202     203     201     202
     203     202     203     203       0     205     206     207     208     209
     206     207     208     209     207     208     209     208     209     209
       0     211     212     213     214     215     212     213     214     215
     213     214     215     214     215     215       0     217     218     219
     220     221     218     219     220     221     219     220     221     220
     221     221       0     223     224     225     226     227     224     225
     226     227     225     226     227     226     227     227       0     229
     230     231     232     233     230     231     232     233     231     232
     233     232     233     233       0     235     236     237     238     239
     236     237     238     239     237     238     239     238     239     239
       0     241     242     243     244     245     242     243     244     245
     243     244     245     244     245     245       0     247     248     249
     250     251     248     249     250     251     249     250     251     250
     251     251       0     253     254     255     256     257     254     255
     256     257     255     256     257     256     257     257       0     259
     260     261     262     263     260     261     262     263     261     262
     263     262     263     263       0     265     266     267     268     269
     266     267     268     269     267     268     269     268     269     269
       0     271     272     273     274     275     272     273     274     275
     273     274     275     274     275     275       0     277     278     279
     280     281     278     279     280     281     279     280     281     280
     281     281       0     283     284     285     286     287     284     285
     286     287     285     286     287     286     287     287       0     289
     290     291     292     293     290     291     292     293     291     292
     293     292     293     293       0     295     296     297     298     299
     296     297     298     299     297     298     299     298     299     299
       0     301     302     303     304     305     302     303     304     305
     303     304     305     304     305     305       0     307     308     309
     310     311     308     309     310     311     309     310     311     310
     311     311       0     313     314     315     316     317     314     315
     316     317     315     316     317     316     317     317       0     319
     320     321     322     323     320     321     322     323     321     322
     323     322     323     323       0     325     326     327     328     329
     326     327     328     329     327     328     329     328     329     329
       0     331     332     333     334     335     332     333     334     335
     333     334     335     334     335     335       0     337     338     339
     340     341     338     339     340     341     339     340     341     340
     341     341       0     343     344     345     346     347     344     345
     346     347     345     346     347     346     347     347       0     349
     350     351     352     353     350     351     352     353     351     352
     353     352     353     353       0     355     356     357     358     359
     356     357     358     359     357     358     359     358     359     359
       0     361     362     363     364     365     362     363     364     365
     363     364     365     364     365     365       0     367     368     369
     370     371     368     369     370     371     369     370     371     370
     371     371       0     373     374     375     376     377     374     375
     376     377     375     376     377     376     377     377       0     379
     380     381     382     383     380     381     382     383     381     382
     383     382     383     383       0     385     386     387     388     389
     386     387     388     389     387     388     389     388     389     389
       0     391     392     393     394     395     392     393     394     395
     393     394     395     394     395     395       0     397     398     399
     400     401     398     399     400     401     399     400     401     400
     401     401       0     403     404     405     406     407     404     405
     406     407     405     406     407     406     407     407       0     409
     410     411     412     413     410     411     412     413     411     412
     413     412     413     413       0     415     416     417     418     419
     416     417     418     419     417     418     419     418     419     419
       0     421     422     423     424     425     422     423     424     425
     423     424     425     424     425     425       0     427     428     429
     430     431     428     429     430     431     429     430     431     430
     431     431       0     433     434     435     436     437     434     435
     436     437     435     436     437     436     437     437       0     439
     440     441     442     443     440     441     442     443     441     442
     443     442     443     443       0     445     446     447     448     449
     446     447     448     449     447     448     449     448     449     449
       0     451     452     453     454     455     452     453     454     455
     453     454     455     454     455     455       0     457     458     459
     460     461     458     459     460     461     459     460     461     460
     461     461       0     463     464     465     466     467     464     465
     466     467     465     466     467     466     467     467       0     469
     470     471     472     473     470     471     472     473     471     472
     473     472     473     473       0     475     476     477     478     479
     476     477     478     479     477     478     479     478     479     479
       0     481     482     483     484     485     482     483     484     485
     483     484     485     484     485     485       0     487     488     489
     490     491     488     489     490     491     489     490     491     490
     491     491       0     493     494     495     496     497     494     495
     496     497     495     496     497     496     497     497       0     499
     500     501     502     503     500     501     502     503     501     502
     503     502     503     503       0     505     506     507     508     509
     506     507     508     509     507     508     509     508     509     509
       0     511     512     513     514     515     512     513     514     515
     513     514     515     514     515     515       0     517     518     519
     520     521     518     519     520     521     519     520     521     520
     521     521       0     523     524     525     526     527     524     525
     526     527     525     526     527     526     527     527       0     529
     530     531     532     533     530     531     532     533     531     532
     533     532     533     533       0     535     536     537     538     539
     536     537     538     539     537     538     539     538     539     539
       0     541     542     543     544     545     542     543     544     545
     543     544     545     544     545     545       0     547     548     549
     550     551     548     549     550     551     549     550     551     550
     551     551       0     553     554     555     556     557     554     555
     556     557     555     556     557     556     557     557       0     559
     560     561     562     563     560     561     562     563     561     562
     563     562     563     563       0     565     566     567     568     569
     566     567     568     569     567     568     569     568     569     569
       0     571     572     573     574     575     572     573     574     575
     573     574     575     574     575     575       0     577     578     579
     580     581     578     579     580     581     579     580     581     580
     581     581       0     583     584     585     586     587     584     585
     586     587     585     586     587     586     587     587       0     589
     590     591     592     593     590     591     592     593     591     592
     593     592     593     593       0     595     596     597     598     599
     596     597     598     599     597     598     599     598     599     599
       0     601     602     603     604     605     602     603     604     605
     603     604     605     604     605     605       0     607     608     609
     610     611     608     609     610     611     609     610     611     610
     611     611       0     613     614     615     616     617     614     615
     616     617     615     616     617     616     617     617       0     619
     620     621     622     623     620     621     622     623     621     622
     623     622     623     623       0     625     626     627     628     629
     626     627     628     629     627     628     629     628     629     629
       0     631     632     633     634     635     632     633     634     635
     633     634     635     634     635     635       0     637     638     639
     640     641     638     639     640     641     639     640     641     640
     641     641       0     643     644     645     646     647     644     645
     646     647     645     646     647     646     647     647       0     649
     650     651     652     653     650     651     652     653     651     652
     653     652     653     653       0     655     656     657     658     659
     656     657     658     659     657     658     659     658     659     659
       0     661     662     663     664     665     662     663     664     665
     663     664     665     664     665     665       0     667     668     669
     670     671     668     669     670     671     669     670     671     670
     671     671       0     673     674     675     676     677     674     675
     676     677     675     676     677     676     677     677       0     679
     680     681     682     683     680     681     682     683     681     682
     683     682     683     683       0     685     686     687     688     689
     686     687     688     689     687     688     689     688     689     689
       0     691     692     693     694     695     692     693     694     695
     693     694     695     694     695     695       0     697     698     699
     700     701     698     699     700     701     699     700     701     700
     701     701       0     703     704     705     706     707     704     705
     706     707     705     706     707     706     707     707       0     709
     710     711     712     713     710     711     712     713     711     712
     713     712     713     713       0     715     716     717     718     719
     716     717     718     719     717     718     719     718     719     719
       0     721     722     723     724     725     722     723     724     725
     723     724     725     724     725     725       0     727     728     729
     730     731     728     729     730     731     729     730     731     730
     731     731       0     733     734     735     736     737     734     735
     736     737     735     736     737     736     737     737       0     739
     740     741     742     743     740     741     742     743     741     742
     743     742     743     743       0     745     746     747     748     749
     746     747     748     749     747     748     749     748     749     749
       0     751     752     753     754     755     752     753     754     755
     753     754     755     754     755     755       0     757     758     759
     760     761     758     759     760     761     759     760     761     760
     761     761       0     763     764     765     766     767     764     765
     766     767     765     766     767     766     767     767       0     769
     770     771     772     773     770     771     772     773     771     772
     773     772     773     773       0     775     776     777     778     779
     776     777     778     779     777     778     779     778     779     779
       0     781     782     783     784     785     782     783     784     785
     783     784     785     784     785     785       0     787     788     789
     790     791     788     789     790     791     789     790     791     790
     791     791       0     793     794     795     796     797     794     795
     796     797     795     796     797     796     797     797       0     799
     800     801     802     803     800     801     802     803     801     802
     803     802     803     803       0     805     806     807     808     809
     806     807     808     809     807     808     809     808     809     809
       0     811     812     813     814     815     812     813     814     815
     813     814     815     814     815     815       0     817     818     819
     820     821     818     819     820     821     819     820     821     820
     821     821       0     823     824     825     826     827     824     825
     826     827     825     826     827     826     827     827       0     829
     830     831     832     833     830     831     832     833     831     832
     833     832     833     833       0     835     836     837     838     839
     836     837     838     839     837     838     839     838     839     839
       0     841     842     843     844     845     842     843     844     845
     843     844     845     844     845     845       0     847     848     849
     850     851     848     849     850     851     849     850     851     850
     851     851       0     853     854     855     856     857     854     855
     856     857     855     856     857     856     857     857       0     859
     860     861     862     863     860     861     862     863     861     862
     863     862     863     863       0     865     866     867     868     869
     866     867     868     869     867     868     869     868     869     869
       0     871     872     873     874     875     872     873     874     875
     873     874     875     874     875     875       0     877     878     879
     880     881     878     879     880     881     879     880     881     880
     881     881       0     883     884     885     886     887     884     885
     886     887     885     886     887     886     887     887       0     889
     890     891     892     893     890     891     892     893     891     892
     893     892     893     893       0     895     896     897     898     899
     896     897     898     899     897     898     899     898     899     899
       0     901     902     903     904     905     902     903     904     905
     903     904     905     904     905     905       0     907     908     909
     910     911     908     909     910     911     909     910     911     910
     911     911       0     913     914     915     916     917     914     915
     916     917     915     916     917     916     917     917       0     919
     920     921     922     923     920     921     922     923     921     922
     923     922     923     923       0     925     926     927     928     929
     926     927     928     929     927     928     929     928     929     929
       0     931     932     933     934     935     932     933     934     935
     933     934     935     934     935     935       0     937     938     939
     940     941     938     939     940     941     939     940     941     940
     941     941       0     943     944     945     946     947     944     945
     946     947     945     946     947     946     947     947       0     949
     950     951     952     953     950     951     952     953     951     952
     953     952     953     953       0     955     956     957     958     959
     956     957     958     959     957     958     959     958     959     959
       0     961     962     963     964     965     962     963     964     965
     963     964     965     964     965     965       0     967     968     969
     970     971     968     969     970     971     969     970     971     970
     971     971       0     973     974     975     976     977     974     975
     976     977     975     976     977     976     977     977       0     979
     980     981     982     983     980     981     982     983     981     982
     983     982     983     983       0     985     986     987     988     989
     986     987     988     989     987     988     989     988     989     989
       0     991     992     993     994     995     992     993     994     995
     993     994     995     994     995     995       0     997     998     999
    1000    1001     998     999    1000    1001     999    1000    1001    1000
    1001    1001       0    1003    1004    1005    1006    1007    1004    1005
    1006    1007    1005    1006    1007    1006    1007    1007       0    1009
    1010    1011    1012    1013    1010    1011    1012    1013    1011    1012
    1013    1012    1013    1013       0    1015    1016    1017    1018    1019
    1016    1017    1018    1019    1017    1018    1019    1018    1019    1019
       0    1021    1022    1023    1024    1025    1022    1023    1024    1025
    1023    1024    1025    1024    1025    1025       0    1027    1028    1029
    1030    1031    1028    1029    1030    1031    1029    1030    1031    1030
    1031    1031       0    1033    1034    1035    1036    1037    1034    1035
    1036    1037    1035    1036    1037    1036    1037    1037       0    1039
    1040    1041    1042    1043    1040    1041    1042    1043    1041    1042
    1043    1042    1043    1043       0    1045    1046    1047    1048    1049
    1046    1047    1048    1049    1047    1048    1049    1048    1049    1049
       0    1051    1052    1053    1054    1055    1052    1053    1054    1055
    1053    1054    1055    1054    1055    1055       0    1057    1058    1059
    1060    1061    1058    1059    1060    1061    1059    1060    1061    1060
    1061    1061       0    1063    1064    1065    1066    1067    1064    1065
    1066    1067    1065    1066    1067    1066    1067    1067       0    1069
    1070    1071    1072    1073    1070    1071    1072    1073    1071    1072
    1073    1072    1073    1073       0    1075    1076    1077    1078    1079
    1076    1077    1078    1079    1077    1078    1079    1078    1079    1079
       0    1081    1082    1083    1084    1085    1082    1083    1084    1085
    1083    1084    1085    1084    1085    1085       0    1087    1088    1089
    1090    1091    1088    1089    1090    1091    1089    1090    1091    1090
    1091    1091       0    1093    1094    1095    1096    1097    1094    1095
    1096    1097    1095    1096    1097    1096    1097    1097       0    1099
    1100    1101    1102    1103    1100    1101    1102    1103    1101    1102
    1103    1102    1103    1103       0    1105    1106    1107    1108    1109
    1106    1107    1108    1109    1107    1108    1109    1108    1109    1109
       0    1111    1112    1113    1114    1115    1112    1113    1114    1115
    1113    1114    1115    1114    1115    1115       0    1117    1118    1119
    1120    1121    1118    1119    1120    1121    1119    1120    1121    1120
    1121    1121       0    1123    1124    1125    1126    1127    1124    1125
    1126    1127    1125    1126    1127    1126    1127    1127       0    1129
    1130    1131    1132    1133    1130    1131    1132    1133    1131    1132
    1133    1132    1133    1133       0    1135    1136    1137    1138    1139
    1136    1137    1138    1139    1137    1138    1139    1138    1139    1139
       0    1141    1142    1143    1144    1145    1142    1143    1144    1145
    1143    1144    1145    1144    1145    1145       0    1147    1148    1149
    1150    1151    1148    1149    1150    1151    1149    1150    1151    1150
    1151    1151       0    1153    1154    1155    1156    1157    1154    1155
    1156    1157    1155    1156    1157    1156    1157    1157       0    1159
    1160    1161    1162    1163    1160    1161    1162    1163    1161    1162
    1163    1162    1163    1163       0    1165    1166    1167    1168    1169
    1166    1167    1168    1169    1167    1168    1169    1168    1169    1169
       0    1171    1172    1173    1174    1175    1172    1173    1174    1175
    1173    1174    1175    1174    1175    1175       0    1177    1178    1179
    1180    1181    1178    1179    1180    1181    1179    1180    1181    1180
    1181    1181       0    1183    1184    1185    1186    1187    1184    1185
    1186    1187    1185    1186    1187    1186    1187    1187       0    1189
    1190    1191    1192    1193    1190    1191    1192    1193    1191    1192
    1193    1192    1193    1193       0    1195    1196    1197    1198    1199
    1196    1197    1198    1199    1197    1198    1199    1198    1199    1199
       0    1201    1202    1203    1204    1205    1202    1203    1204    1205
    1203    1204    1205    1204    1205    1205       0    1207    1208    1209
    1210    1211    1208    1209    1210    1211    1209    1210    1211    1210
    1211    1211       0    1213    1214    1215    1216    1217    1214    1215
    1216    1217    1215    1216    1217    1216    1217    1217       0    1219
    1220    1221    1222    1223    1220    1221    1222    1223    1221    1222
    1223    1222    1223    1223       0    1225    1226    1227    1228    1229
    1226    1227    1228    1229    1227    1228    1229    1228    1229    1229
       0    1231    1232    1233    1234    1235    1232    1233    1234    1235
    1233    1234    1235    1234    1235    1235       0    1237    1238    1239
    1240    1241    1238    1239    1240    1241    1239    1240    1241    1240
    1241    1241       0    1243    1244    1245    1246    1247    1244    1245
    1246    1247    1245    1246    1247    1246    1247    1247       0    1249
    1250    1251    1252    1253    1250    1251    1252    1253    1251    1252
    1253    1252    1253    1253       0    1255    1256    1257    1258    1259
    1256    1257    1258    1259    1257    1258    1259    1258    1259    1259
       0    1261    1262    1263    1264    1265    1262    1263    1264    1265
    1263    1264    1265    1264    1265    1265       0    1267    1268    1269
    1270    1271    1268    1269    1270    1271    1269    1270    1271    1270
    1271    1271       0    1273    1274    1275    1276    1277    1274    1275
    1276    1277    1275    1276    1277    1276    1277    1277       0    1279
    1280    1281    1282    1283    1280    1281    1282    1283    1281    1282
    1283    1282    1283    1283       0    1285    1286    1287    1288    1289
    1286    1287    1288    1289    1287    1288    1289    1288    1289    1289
       0    1291    1292    1293    1294    1295    1292    1293    1294    1295
    1293    1294    1295    1294    1295    1295       0    1297    1298    1299
    1300    1301    1298    1299    1300    1301    1299    1300    1301    1300
    1301    1301       0    1303    1304    1305    1306    1307    1304    1305
    1306    1307    1305    1306    1307    1306    1307    1307       0    1309
    1310    1311    1312    1313    1310    1311    1312    1313    1311    1312
    1313    1312    1313    1313       0    1315    1316    1317    1318    1319
    1316    1317    1318    1319    1317    1318    1319    1318    1319    1319
       0    1321    1322    1323    1324    1325    1322    1323    1324    1325
    1323    1324    1325    1324    1325    1325       0    1327    1328    1329
    1330    1331    1328    1329    1330    1331    1329    1330    1331    1330
    1331    1331       0    1333    1334    1335    1336    1337    1334    1335
    1336    1337    1335    1336    1337    1336    1337    1337       0    1339
    1340    1341    1342    1343    1340    1341    1342    1343    1341    1342
    1343    1342    1343    1343       0    1345    1346    1347    1348    1349
    1346    1347    1348    1349    1347    1348    1349    1348    1349    1349
       0    1351    1352    1353    1354    1355    1352    1353    1354    1355
    1353    1354    1355    1354    1355    1355       0    1357    1358    1359
    1360    1361    1358    1359    1360    1361    1359    1360    1361    1360
    1361    1361       0    1363    1364    1365    1366    1367    1364    1365
    1366    1367    1365    1366    1367    1366    1367    1367       0    1369
    1370    1371    1372    1373    1370    1371    1372    1373    1371    1372
    1373    1372    1373    1373       0    1375    1376    1377    1378    1379
    1376    1377    1378    1379    1377    1378    1379    1378    1379    1379
       0    1381    1382    1383    1384    1385    1382    1383    1384    1385
    1383    1384    1385    1384    1385    1385       0    1387    1388    1389
    1390    1391    1388    1389    1390    1391    1389    1390    1391    1390
    1391    1391       0    1393    1394    1395    1396    1397    1394    1395
    1396    1397    1395    1396    1397    1396    1397    1397       0    1399
    1400    1401    1402    1403    1400    1401    1402    1403    1401    1402
    1403    1402    1403    1403       0    1405    1406    1407    1408    1409
    1406    1407    1408    1409    1407    1408    1409    1408    1409    1409
       0    1411    1412    1413    1414    1415    1412    1413    1414    1415
    1413    1414    1415    1414    1415    1415       0    1417    1418    1419
    1420    1421    1418    1419    1420    1421    1419    1420    1421    1420
    1421    1421       0    1423    1424    1425    1426    1427    1424    1425
    1426    1427    1425    1426    1427    1426    1427    1427       0    1429
    1430    1431    1432    1433    1430    1431    1432    1433    1431    1432
    1433    1432    1433    1433       0    1435    1436    1437    1438    1439
    1436    1437    1438    1439    1437    1438    1439    1438    1439    1439
       0    1441    1442    1443    1444    1445    1442    1443    1444    1445
    1443    1444    1445    1444    1445    1445       0    1447    1448    1449
    1450    1451    1448    1449    1450    1451    1449    1450    1451    1450
    1451    1451       0    1453    1454    1455    1456    1457    1454    1455
    1456    1457    1455    1456    1457    1456    1457    1457       0    1459
    1460    1461    1462    1463    1460    1461    1462    1463    1461    1462
    1463    1462    1463    1463       0    1465    1466    1467    1468    1469
    1466    1467    1468    1469    1467    1468    1469    1468    1469    1469
       0    1471    1472    1473    1474    1475    1472    1473    1474    1475
    1473    1474    1475    1474    1475    1475       0    1477    1478    1479
    1480    1481    1478    1479    1480    1481    1479    1480    1481    1480
    1481    1481       0    1483    1484    1485    1486    1487    1484    1485
    1486    1487    1485    1486    1487    1486    1487    1487       0    1489
    1490    1491    1492    1493    1490    1491    1492    1493    1491    1492
    1493    1492    1493    1493       0    1495    1496    1497    1498    1499
    1496    1497    1498    1499    1497    1498    1499    1498    1499    1499
       0    1501    1502    1503    1504    1505    1502    1503    1504    1505
    1503    1504    1505    1504    1505    1505       0    1507    1508    1509
    1510    1511    1508    1509    1510    1511    1509    1510    1511    1510
    1511    1511       0    1513    1514    1515    1516    1517    1514    1515
    1516    1517    1515    1516    1517    1516    1517    1517       0    1519
    1520    1521    1522    1523    1520    1521    1522    1523    1521    1522
    1523    1522    1523    1523       0    1525    1526    1527    1528    1529
    1526    1527    1528    1529    1527    1528    1529    1528    1529    1529
       0    1531    1532    1533    1534    1535    1532    1533    1534    1535
    1533    1534    1535    1534    1535    1535       0    1537    1538    1539
    1540    1541    1538    1539    1540    1541    1539    1540    1541    1540
    1541    1541       0    1543    1544    1545    1546    1547    1544    1545
    1546    1547    1545    1546    1547    1546    1547    1547       0    1549
    1550    1551    1552    1553    1550    1551    1552    1553    1551    1552
    1553    1552    1553    1553       0    1555    1556    1557    1558    1559
    1556    1557    1558    1559    1557    1558    1559    1558    1559    1559
       0    1561    1562    1563    1564    1565    1562    1563    1564    1565
    1563    1564    1565    1564    1565    1565       0    1567    1568    1569
    1570    1571    1568    1569    1570    1571    1569    1570    1571    1570
    1571    1571       0    1573    1574    1575    1576    1577    1574    1575
    1576    1577    1575    1576    1577    1576    1577    1577       0    1579
    1580    1581    1582    1583    1580    1581    1582    1583    1581    1582
    1583    1582    1583    1583       0    1585    1586    1587    1588    1589
    1586    1587    1588    1589    1587    1588    1589    1588    1589    1589
       0    1591    1592    1593    1594    1595    1592    1593    1594    1595
    1593    1594    1595    1594    1595    1595       0    1597    1598    1599
    1600    1601    1598    1599    1600    1601    1599    1600    1601    1600
    1601    1601       0    1603    1604    1605    1606    1607    1604    1605
    1606    1607    1605    1606    1607    1606    1607    1607       0    1609
    1610    1611    1612    1613    1610    1611    1612    1613    1611    1612
    1613    1612    1613    1613       0    1615    1616    1617    1618    1619
    1616    1617    1618    1619    1617    1618    1619    1618    1619    1619
       0    1621    1622    1623    1624    1625    1622    1623    1624    1625
    1623    1624    1625    1624    1625    1625       0    1627    1628    1629
    1630    1631    1628    1629    1630    1631    1629    1630    1631    1630
    1631    1631       0    1633    1634    1635    1636    1637    1634    1635
    1636    1637    1635    1636    1637    1636    1637    1637       0    1639
    1640    1641    1642    1643    1640    1641    1642    1643    1641    1642
    1643    1642    1643    1643       0    1645    1646    1647    1648    1649
    1646    1647    1648    1649    1647    1648    1649    1648    1649    1649
       0    1651    1652    1653    1654    1655    1652    1653    1654    1655
    1653    1654    1655    1654    1655    1655       0    1657    1658    1659
    1660    1661    1658    1659    1660    1661    1659    1660    1661    1660
    1661    1661       0    1663    1664    1665    1666    1667    1664    1665
    1666    1667    1665    1666    1667    1666    1667    1667       0    1669
    1670    1671    1672    1673    1670    1671    1672    1673    1671    1672
    1673    1672    1673    1673       0    1675    1676    1677    1678    1679
    1676    1677    1678    1679    1677    1678    1679    1678    1679    1679
       0    1681    1682    1683    1684    1685    1682    1683    1684    1685
    1683    1684    1685    1684    1685    1685       0    1687    1688    1689
    1690    1691    1688    1689    1690    1691    1689    1690    1691    1690
    1691    1691       0    1693    1694    1695    1696    1697    1694    1695
    1696    1697    1695    1696    1697    1696    1697    1697       0    1699
    1700    1701    1702    1703    1700    1701    1702    1703    1701    1702
    1703    1702    1703    1703       0    1705    1706    1707    1708    1709
    1706    1707    1708    1709    1707    1708    1709    1708    1709    1709
       0    1711    1712    1713    1714    1715    1712    1713    1714    1715
    1713    1714    1715    1714    1715    1715       0    1717    1718    1719
    1720    1721    1718    1719    1720    1721    1719    1720    1721    1720
    1721    1721       0    1723    1724    1725    1726    1727    1724    1725
    1726    1727    1725    1726    1727    1726    1727    1727       0    1729
    1730    1731    1732    1733    1730    1731    1732    1733    1731    1732
    1733    1732    1733    1733       0    1735    1736    1737    1738    1739
    1736    1737    1738    1739    1737    1738    1739    1738    1739    1739
       0    1741    1742    1743    1744    1745    1742    1743    1744    1745
    1743    1744    1745    1744    1745    1745       0    1747    1748    1749
    1750    1751    1748    1749    1750    1751    1749    1750    1751    1750
    1751    1751       0    1753    1754    1755    1756    1757    1754    1755
    1756    1757    1755    1756    1757    1756    1757    1757       0    1759
    1760    1761    1762    1763    1760    1761    1762    1763    1761    1762
    1763    1762    1763    1763       0    1765    1766    1767    1768    1769
    1766    1767    1768    1769    1767    1768    1769    1768    1769    1769
       0    1771    1772    1773    1774    1775    1772    1773    1774    1775
    1773    1774    1775    1774    1775    1775       0    1777    1778    1779
    1780    1781    1778    1779    1780    1781    1779    1780    1781    1780
    1781    1781       0    1783    1784    1785    1786    1787    1784    1785
    1786    1787    1785    1786    1787    1786    1787    1787       0    1789
    1790    1791    1792    1793    1790    1791    1792    1793    1791    1792
    1793    1792    1793    1793       0    1795    1796    1797    1798    1799
    1796    1797    1798    1799    1797    1798    1799    1798    1799    1799
       0    1801    1802    1803    1804    1805    1802    1803    1804    1805
    1803    1804    1805    1804    1805    1805       0    1807    1808    1809
    1810    1811    1808    1809    1810    1811    1809    1810    1811    1810
    1811    1811       0    1813    1814    1815    1816    1817    1814    1815
    1816    1817    1815    1816    1817    1816    1817    1817       0    1819
    1820    1821    1822    1823    1820    1821    1822    1823    1821    1822
    1823    1822    1823    1823       0    1825    1826    1827    1828    1829
    1826    1827    1828    1829    1827    1828    1829    1828    1829    1829
       0    1831    1832    1833    1834    1835    1832    1833    1834    1835
    1833    1834    1835    1834    1835    1835       0    1837    1838    1839
    1840    1841    1838    1839    1840    1841    1839    1840    1841    1840
    1841    1841       0    1843    1844    1845    1846    1847    1844    1845
    1846    1847    1845    1846    1847    1846    1847    1847       0    1849
    1850    1851    1852    1853    1850    1851    1852    1853    1851    1852
    1853    1852    1853    1853       0    1855    1856    1857    1858    1859
    1856    1857    1858    1859    1857    1858    1859    1858    1859    1859
       0    1861    1862    1863    1864    1865    1862    1863    1864    1865
    1863    1864    1865    1864    1865    1865       0    1867    1868    1869
    1870    1871    1868    1869    1870    1871    1869    1870    1871    1870
    1871    1871       0    1873    1874    1875    1876    1877    1874    1875
    1876    1877    1875    1876    1877    1876    1877    1877       0    1879
    1880    1881    1882    1883    1880    1881    1882    1883    1881    1882
    1883    1882    1883    1883       0    1885    1886    1887    1888    1889
    1886    1887    1888    1889    1887    1888    1889    1888    1889    1889
       0    1891    1892    1893    1894    1895    1892    1893    1894    1895
    1893    1894    1895    1894    1895    1895       0    1897    1898    1899
    1900    1901    1898    1899    1900    1901    1899    1900    1901    1900
    1901    1901       0    1903    1904    1905    1906    1907    1904    1905
    1906    1907    1905    1906    1907    1906    1907    1907       0    1909
    1910    1911    1912    1913    1910    1911    1912    1913    1911    1912
    1913    1912    1913    1913       0    1915    1916    1917    1918    1919
    1916    1917    1918    1919    1917    1918    1919    1918    1919    1919
       0    1921    1922    1923    1924    1925    1922    1923    1924    1925
    1923    1924    1925    1924    1925    1925       0    1927    1928    1929
    1930    1931    1928    1929    1930    1931    1929    1930    1931    1930
    1931    1931       0    1933    1934    1935    1936    1937    1934    1935
    1936    1937    1935    1936    1937    1936    1937    1937       0    1939
    1940    1941    1942    1943    1940    1941    1942    1943    1941    1942
    1943    1942    1943    1943       0    1945    1946    1947    1948    1949
    1946    1947    1948    1949    1947    1948    1949    1948    1949    1949
       0    1951    1952    1953    1954    1955    1952    1953    1954    1955
    1953    1954    1955    1954    1955    1955       0    1957    1958    1959
    1960    1961    1958    1959    1960    1961    1959    1960    1961    1960
    1961    1961       0    1963    1964    1965    1966    1967    1964    1965
    1966    1967    1965    1966    1967    1966    1967    1967       0    1969
    1970    1971    1972    1973    1970    1971    1972    1973    1971    1972
    1973    1972    1973    1973       0    1975    1976    1977    1978    1979
    1976    1977    1978    1979    1977    1978    1979    1978    1979    1979
       0    1981    1982    1983    1984    1985    1982    1983    1984    1985
    1983    1984    1985    1984    1985    1985       0    1987    1988    1989
    1990    1991    1988    1989    1990    1991    1989    1990    1991    1990
    1991    1991       0    1993    1994    1995    1996    1997    1994    1995
    1996    1997    1995    1996    1997    1996    1997    1997       0    1999
    2000    2001    2002    2003    2000    2001    2002    2003    2001    2002
    2003    2002    2003    2003       0    2005    2006    2007    2008    2009
    2006    2007    2008    2009    2007    2008    2009    2008    2009    2009
       0    2011    2012    2013    2014    2015    2012    2013    2014    2015
    2013    2014    2015    2014    2015    2015       0    2017    2018    2019
    2020    2021    2018    2019    2020    2021    2019    2020    2021    2020
    2021    2021       0    2023    2024    2025    2026    2027    2024    2025
    2026    2027    2025    2026    2027    2026    2027    2027       0    2029
    2030    2031    2032    2033    2030    2031    2032    2033    2031    2032
    2033    2032    2033    2033       0    2035    2036    2037    2038    2039
    2036    2037    2038    2039    2037    2038    2039    2038    2039    2039
       0    2041    2042    2043    2044    2045    2042    2043    2044    2045
    2043    2044    2045    2044    2045    2045       0    2047    2048    2049
    2050    2051    2048    2049    2050    2051    2049    2050    2051    2050
    2051    2051       0    2053    2054    2055    2056    2057    2054    2055
    2056    2057    2055    2056    2057    2056    2057    2057       0    2059
    2060    2061    2062    2063    2060    2061    2062    2063    2061    2062
    2063    2062    2063    2063       0    2065    2066    2067    2068    2069
    2066    2067    2068    2069    2067    2068    2069    2068    2069    2069
       0    2071    2072    2073    2074    2075    2072    2073    2074    2075
    2073    2074    2075    2074    2075    2075       0    2077    2078    2079
    2080    2081    2078    2079    2080    2081    2079    2080    2081    2080
    2081    2081       0    2083    2084    2085    2086    2087    2084    2085
    2086    2087    2085    2086    2087    2086    2087    2087       0    2089
    2090    2091    2092    2093    2090    2091    2092    2093    2091    2092
    2093    2092    2093    2093       0    2095    2096    2097    2098    2099
    2096    2097    2098    2099    2097    2098    2099    2098    2099    2099
       0    2101    2102    2103    2104    2105    2102    2103    2104    2105
    2103    2104    2105    2104    2105    2105       0    2107    2108    2109
    2110    2111    2108    2109    2110    2111    2109    2110    2111    2110
    2111    2111       0    2113    2114    2115    2116    2117    2114    2115
    2116    2117    2115    2116    2117    2116    2117    2117       0    2119
    2120    2121    2122    2123    2120    2121    2122    2123    2121    2122
    2123    2122    2123    2123       0    2125    2126    2127    2128    2129
    2126    2127    2128    2129    2127    2128    2129    2128    2129    2129
       0    2131    2132    2133    2134    2135    2132    2133    2134    2135
    2133    2134    2135    2134    2135    2135       0    2137    2138    2139
    2140    2141    2138    2139    2140    2141    2139    2140    2141    2140
    2141    2141       0    2143    2144    2145    2146    2147    2144    2145
    2146    2147    2145    2146    2147    2146    2147    2147       0    2149
    2150    2151    2152    2153    2150    2151    2152    2153    2151    2152
    2153    2152    2153    2153       0    2155    2156    2157    2158    2159
    2156    2157    2158    2159    2157    2158    2159    2158    2159    2159
       0    2161    2162    2163    2164    2165    2162    2163    2164    2165
    2163    2164    2165    2164    2165    2165       0    2167    2168    2169
    2170    2171    2168    2169    2170    2171    2169    2170    2171    2170
    2171    2171       0    2173    2174    2175    2176    2177    2174    2175
    2176    2177    2175    2176    2177    2176    2177    2177       0    2179
    2180    2181    2182    2183    2180    2181    2182    2183    2181    2182
    2183    2182    2183    2183       0    2185    2186    2187    2188    2189
    2186    2187    2188    2189    2187    2188    2189    2188    2189    2189
       0    2191    2192    2193    2194    2195    2192    2193    2194    2195
    2193    2194    2195    2194    2195    2195       0    2197    2198    2199
    2200    2201    2198    2199    2200    2201    2199    2200    2201    2200
    2201    2201       0    2203    2204    2205    2206    2207    2204    2205
    2206    2207    2205    2206    2207    2206    2207    2207       0    2209
    2210    2211    2212    2213    2210    2211    2212    2213    2211    2212
    2213    2212    2213    2213       0    2215    2216    2217    2218    2219
    2216    2217    2218    2219    2217    2218    2219    2218    2219    2219
       0    2221    2222    2223    2224    2225    2222    2223    2224    2225
    2223    2224    2225    2224    2225    2225       0    2227    2228    2229
    2230    2231    2228    2229    2230    2231    2229    2230    2231    2230
    2231    2231       0    2233    2234    2235    2236    2237    2234    2235
    2236    2237    2235    2236    2237    2236    2237    2237       0    2239
    2240    2241    2242    2243    2240    2241    2242    2243    2241    2242
    2243    2242    2243    2243       0    2245    2246    2247    2248    2249
    2246    2247    2248    2249    2247    2248    2249    2248    2249    2249
       0    2251    2252    2253    2254    2255    2252    2253    2254    2255
    2253    2254    2255    2254    2255    2255       0    2257    2258    2259
    2260    2261    2258    2259    2260    2261    2259    2260    2261    2260
    2261    2261       0    2263    2264    2265    2266    2267    2264    2265
    2266    2267    2265    2266    2267    2266    2267    2267       0    2269
    2270    2271    2272    2273    2270    2271    2272    2273    2271    2272
    2273    2272    2273    2273       0    2275    2276    2277    2278    2279
    2276    2277    2278    2279    2277    2278    2279    2278    2279    2279
       0    2281    2282    2283    2284    2285    2282    2283    2284    2285
    2283    2284    2285    2284    2285    2285       0    2287    2288    2289
    2290    2291    2288    2289    2290    2291    2289    2290    2291    2290
    2291    2291       0    2293    2294    2295    2296    2297    2294    2295
    2296    2297    2295    2296    2297    2296    2297    2297       0    2299
    2300    2301    2302    2303    2300    2301    2302    2303    2301    2302
    2303    2302    2303    2303       0    2305    2306    2307    2308    2309
    2306    2307    2308    2309    2307    2308    2309    2308    2309    2309
       0    2311    2312    2313    2314    2315    2312    2313    2314    2315
    2313    2314    2315    2314    2315    2315       0    2317    2318    2319
    2320    2321    2318    2319    2320    2321    2319    2320    2321    2320
    2321    2321       0    2323    2324    2325    2326    2327    2324    2325
    2326    2327    2325    2326    2327    2326    2327    2327       0    2329
    2330    2331    2332    2333    2330    2331    2332    2333    2331    2332
    2333    2332    2333    2333       0    2335    2336    2337    2338    2339
    2336    2337    2338    2339    2337    2338    2339    2338    2339    2339
       0    2341    2342    2343    2344    2345    2342    2343    2344    2345
    2343    2344    2345    2344    2345    2345       0    2347    2348    2349
    2350    2351    2348    2349    2350    2351    2349    2350    2351    2350
    2351    2351       0    2353    2354    2355    2356    2357    2354    2355
    2356    2357    2355    2356    2357    2356    2357    2357       0    2359
    2360    2361    2362    2363    2360    2361    2362    2363    2361    2362
    2363    2362    2363    2363       0    2365    2366    2367    2368    2369
    2366    2367    2368    2369    2367    2368    2369    2368    2369    2369
       0    2371    2372    2373    2374    2375    2372    2373    2374    2375
    2373    2374    2375    2374    2375    2375       0    2377    2378    2379
    2380    2381    2378    2379    2380    2381    2379    2380    2381    2380
    2381    2381       0    2383    2384    2385    2386    2387    2384    2385
    2386    2387    2385    2386    2387    2386    2387    2387       0    2389
    2390    2391    2392    2393    2390    2391    2392    2393    2391    2392
    2393    2392    2393    2393       0    2395    2396    2397    2398    2399
    2396    2397    2398    2399    2397    2398    2399    2398    2399    2399
       0    2401    2402    2403    2404    2405    2402    2403    2404    2405
    2403    2404    2405    2404    2405    2405       0    2407    2408    2409
    2410    2411    2408    2409    2410    2411    2409    2410    2411    2410
    2411    2411       0    2413    2414    2415    2416    2417    2414    2415
    2416    2417    2415    2416    2417    2416    2417    2417       0    2419
    2420    2421    2422    2423    2420    2421    2422    2423    2421    2422
    2423    2422    2423    2423       0    2425    2426    2427    2428    2429
    2426    2427    2428    2429    2427    2428    2429    2428    2429    2429
       0    2431    2432    2433    2434    2435    2432    2433    2434    2435
    2433    2434    2435    2434    2435    2435       0    2437    2438    2439
    2440    2441    2438    2439    2440    2441    2439    2440    2441    2440
    2441    2441       0    2443    2444    2445    2446    2447    2444    2445
    2446    2447    2445    2446    2447    2446    2447    2447       0    2449
    2450    2451    2452    2453    2450    2451    2452    2453    2451    2452
    2453    2452    2453    2453       0    2455    2456    2457    2458    2459
    2456    2457    2458    2459    2457    2458    2459    2458    2459    2459
       0    2461    2462    2463    2464    2465    2462    2463    2464    2465
    2463    2464    2465    2464    2465    2465       0    2467    2468    2469
    2470    2471    2468    2469    2470    2471    2469    2470    2471    2470
    2471    2471       0    2473    2474    2475    2476    2477    2474    2475
    2476    2477    2475    2476    2477    2476    2477    2477       0    2479
    2480    2481    2482    2483    2480    2481    2482    2483    2481    2482
    2483    2482    2483    2483       0    2485    2486    2487    2488    2489
    2486    2487    2488    2489    2487    2488    2489    2488    2489    2489
       0    2491    2492    2493    2494    2495    2492    2493    2494    2495
    2493    2494    2495    2494    2495    2495       0    2497    2498    2499
    2500    2501    2498    2499    2500    2501    2499    2500    2501    2500
    2501    2501       0    2503    2504    2505    2506    2507    2504    2505
    2506    2507    2505    2506    2507    2506    2507    2507       0    2509
    2510    2511    2512    2513    2510    2511    2512    2513    2511    2512
    2513    2512    2513    2513       0    2515    2516    2517    2518    2519
    2516    2517    2518    2519    2517    2518    2519    2518    2519    2519
       0    2521    2522    2523    2524    2525    2522    2523    2524    2525
    2523    2524    2525    2524    2525    2525       0    2527    2528    2529
    2530    2531    2528    2529    2530    2531    2529    2530    2531    2530
    2531    2531       0    2533    2534    2535    2536    2537    2534    2535
    2536    2537    2535    2536    2537    2536    2537    2537       0    2539
    2540    2541    2542    2543    2540    2541    2542    2543    2541    2542
    2543    2542    2543    2543       0    2545    2546    2547    2548    2549
    2546    2547    2548    2549    2547    2548    2549    2548    2549    2549
       0    2551    2552    2553    2554    2555    2552    2553    2554    2555
    2553    2554    2555    2554    2555    2555       0    2557    2558    2559
    2560    2561    2558    2559    2560    2561    2559    2560    2561    2560
    2561    2561       0    2563    2564    2565    2566    2567    2564    2565
    2566    2567    2565    2566    2567    2566    2567    2567       0    2569
    2570    2571    2572    2573    2570    2571    2572    2573    2571    2572
    2573    2572    2573    2573       0    2575    2576    2577    2578    2579
    2576    2577    2578    2579    2577    2578    2579    2578    2579    2579
       0    2581    2582    2583    2584    2585    2582    2583    2584    2585
    2583    2584    2585    2584    2585    2585       0    2587    2588    2589
    2590    2591    2588    2589    2590    2591    2589    2590    2591    2590
    2591    2591       0    2593    2594    2595    2596    2597    2594    2595
    2596    2597    2595    2596    2597    2596    2597    2597       0    2599
    2600    2601    2602    2603    2600    2601    2602    2603    2601    2602
    2603    2602    2603    2603       0    2605    2606    2607    2608    2609
    2606    2607    2608    2609    2607    2608    2609    2608    2609    2609
       0    2611    2612    2613    2614    2615    2612    2613    2614    2615
    2613    2614    2615    2614    2615    2615       0    2617    2618    2619
    2620    2621    2618    2619    2620    2621    2619    2620    2621    2620
    2621    2621       0    2623    2624    2625    2626    2627    2624    2625
    2626    2627    2625    2626    2627    2626    2627    2627       0    2629
    2630    2631    2632    2633    2630    2631    2632    2633    2631    2632
    2633    2632    2633    2633       0    2635    2636    2637    2638    2639
    2636    2637    2638    2639    2637    2638    2639    2638    2639    2639
       0    2641    2642    2643    2644    2645    2642    2643    2644    2645
    2643    2644    2645    2644    2645    2645       0    2647    2648    2649
    2650    2651    2648    2649    2650    2651    2649    2650    2651    2650
    2651    2651       0    2653    2654    2655    2656    2657    2654    2655
    2656    2657    2655    2656    2657    2656    2657    2657       0    2659
    2660    2661    2662    2663    2660    2661    2662    2663    2661    2662
    2663    2662    2663    2663       0    2665    2666    2667    2668    2669
    2666    2667    2668    2669    2667    2668    2669    2668    2669    2669
       0    2671    2672    2673    2674    2675    2672    2673    2674    2675
    2673    2674    2675    2674    2675    2675       0    2677    2678    2679
    2680    2681    2678    2679    2680    2681    2679    2680    2681    2680
    2681    2681       0    2683    2684    2685    2686    2687    2684    2685
    2686    2687    2685    2686    2687    2686    2687    2687       0    2689
    2690    2691    2692    2693    2690    2691    2692    2693    2691    2692
    2693    2692    2693    2693       0    2695    2696    2697    2698    2699
    2696    2697    2698    2699    2697    2698    2699    2698    2699    2699
       0    2701    2702    2703    2704    2705    2702    2703    2704    2705
    2703    2704    2705    2704    2705    2705       0    2707    2708    2709
    2710    2711    2708    2709    2710    2711    2709    2710    2711    2710
    2711    2711       0    2713    2714    2715    2716    2717    2714    2715
    2716    2717    2715    2716    2717    2716    2717    2717       0    2719
    2720    2721    2722    2723    2720    2721    2722    2723    2721    2722
    2723    2722    2723    2723       0    2725    2726    2727    2728    2729
    2726    2727    2728    2729    2727    2728    2729    2728    2729    2729
       0    2731    2732    2733    2734    2735    2732    2733    2734    2735
    2733    2734    2735    2734    2735    2735       0    2737    2738    2739
    2740    2741    2738    2739    2740    2741    2739    2740    2741    2740
    2741    2741       0    2743    2744    2745    2746    2747    2744    2745
    2746    2747    2745    2746    2747    2746    2747    2747       0    2749
    2750    2751    2752    2753    2750    2751    2752    2753    2751    2752
    2753    2752    2753    2753       0    2755    2756    2757    2758    2759
    2756    2757    2758    2759    2757    2758    2759    2758    2759    2759
       0    2761    2762    2763    2764    2765    2762    2763    2764    2765
    2763    2764    2765    2764    2765    2765       0    2767    2768    2769
    2770    2771    2768    2769    2770    2771    2769    2770    2771    2770
    2771    2771       0    2773    2774    2775    2776    2777    2774    2775
    2776    2777    2775    2776    2777    2776    2777    2777       0    2779
    2780    2781    2782    2783    2780    2781    2782    2783    2781    2782
    2783    2782    2783    2783       0    2785    2786    2787    2788    2789
    2786    2787    2788    2789    2787    2788    2789    2788    2789    2789
       0    2791    2792    2793    2794    2795    2792    2793    2794    2795
    2793    2794    2795    2794    2795    2795       0    2797    2798    2799
    2800    2801    2798    2799    2800    2801    2799    2800    2801    2800
    2801    2801       0    2803    2804    2805    2806    2807    2804    2805
    2806    2807    2805    2806    2807    2806    2807    2807       0    2809
    2810    2811    2812    2813    2810    2811    2812    2813    2811    2812
    2813    2812    2813    2813       0    2815    2816    2817    2818    2819
    2816    2817    2818    2819    2817    2818    2819    2818    2819    2819
       0    2821    2822    2823    2824    2825    2822    2823    2824    2825
    2823    2824    2825    2824    2825    2825       0    2827    2828    2829
    2830    2831    2828    2829    2830    2831    2829    2830    2831    2830
    2831    2831       0    2833    2834    2835    2836    2837    2834    2835
    2836    2837    2835    2836    2837    2836    2837    2837       0    2839
    2840    2841    2842    2843    2840    2841    2842    2843    2841    2842
    2843    2842    2843    2843       0    2845    2846    2847    2848    2849
    2846    2847    2848    2849    2847    2848    2849    2848    2849    2849
       0    2851    2852    2853    2854    2855    2852    2853    2854    2855
    2853    2854    2855    2854    2855    2855       0    2857    2858    2859
    2860    2861    2858    2859    2860    2861    2859    2860    2861    2860
    2861    2861       0    2863    2864    2865    2866    2867    2864    2865
    2866    2867    2865    2866    2867    2866    2867    2867       0    2869
    2870    2871    2872    2873    2870    2871    2872    2873    2871    2872
    2873    2872    2873    2873       0    2875    2876    2877    2878    2879
    2876    2877    2878    2879    2877    2878    2879    2878    2879    2879
       0    2881    2882    2883    2884    2885    2882    2883    2884    2885
    2883    2884    2885    2884    2885    2885       0    2887    2888    2889
    2890    2891    2888    2889    2890    2891    2889    2890    2891    2890
    2891    2891       0    2893    2894    2895    2896    2897    2894    2895
    2896    2897    2895    2896    2897    2896    2897    2897       0    2899
    2900    2901    2902    2903    2900    2901    2902    2903    2901    2902
    2903    2902    2903    2903       0    2905    2906    2907    2908    2909
    2906    2907    2908    2909    2907    2908    2909    2908    2909    2909
       0    2911    2912    2913    2914    2915    2912    2913    2914    2915
    2913    2914    2915    2914    2915    2915       0    2917    2918    2919
    2920    2921    2918    2919    2920    2921    2919    2920    2921    2920
    2921    2921       0    2923    2924    2925    2926    2927    2924    2925
    2926    2927    2925    2926    2927    2926    2927    2927       0    2929
    2930    2931    2932    2933    2930    2931    2932    2933    2931    2932
    2933    2932    2933    2933       0    2935    2936    2937    2938    2939
    2936    2937    2938    2939    2937    2938    2939    2938    2939    2939
       0    2941    2942    2943    2944    2945    2942    2943    2944    2945
    2943    2944    2945    2944    2945    2945       0    2947    2948    2949
    2950    2951    2948    2949    2950    2951    2949    2950    2951    2950
    2951    2951       0    2953    2954    2955    2956    2957    2954    2955
    2956    2957    2955    2956    2957    2956    2957    2957       0    2959
    2960    2961    2962    2963    2960    2961    2962    2963    2961    2962
    2963    2962    2963    2963       0    2965    2966    2967    2968    2969
    2966    2967    2968    2969    2967    2968    2969    2968    2969    2969
       0    2971    2972    2973    2974    2975    2972    2973    2974    2975
    2973    2974    2975    2974    2975    2975       0    2977    2978    2979
    2980    2981    2978    2979    2980    2981    2979    2980    2981    2980
    2981    2981       0    2983    2984    2985    2986    2987    2984    2985
    2986    2987    2985    2986    2987    2986    2987    2987       0    2989
    2990    2991    2992    2993    2990    2991    2992    2993    2991    2992
    2993    2992    2993    2993       0    2995    2996    2997    2998    2999
    2996    2997    2998    2999    2997    2998    2999    2998    2999    2999
       0    3001    3002    3003    3004    3005    3002    3003    3004    3005
    3003    3004    3005    3004    3005    3005       0    3007    3008    3009
    3010    3011    3008    3009    3010    3011    3009    3010    3011    3010
    3011    3011       0    3013    3014    3015    3016    3017    3014    3015
    3016    3017    3015    3016    3017    3016    3017    3017       0    3019
    3020    3021    3022    3023    3020    3021    3022    3023    3021    3022
    3023    3022    3023    3023       0    3025    3026    3027    3028    3029
    3026    3027    3028    3029    3027    3028    3029    3028    3029    3029
       0    3031    3032    3033    3034    3035    3032    3033    3034    3035
    3033    3034    3035    3034    3035    3035       0    3037    3038    3039
    3040    3041    3038    3039    3040    3041    3039    3040    3041    3040
    3041    3041       0    3043    3044    3045    3046    3047    3044    3045
    3046    3047    3045    3046    3047    3046    3047    3047       0    3049
    3050    3051    3052    3053    3050    3051    3052    3053    3051    3052
    3053    3052    3053    3053       0    3055    3056    3057    3058    3059
    3056    3057    3058    3059    3057    3058    3059    3058    3059    3059
       0    3061    3062    3063    3064    3065    3062    3063    3064    3065
    3063    3064    3065    3064    3065    3065       0    3067    3068    3069
    3070    3071    3068    3069    3070    3071    3069    3070    3071    3070
    3071    3071       0    3073    3074    3075    3076    3077    3074    3075
    3076    3077    3075    3076    3077    3076    3077    3077       0    3079
    3080    3081    3082    3083    3080    3081    3082    3083    3081    3082
    3083    3082    3083    3083       0    3085    3086    3087    3088    3089
    3086    3087    3088    3089    3087    3088    3089    3088    3089    3089
       0    3091    3092    3093    3094    3095    3092    3093    3094    3095
    3093    3094    3095    3094    3095    3095       0    3097    3098    3099
    3100    3101    3098    3099    3100    3101    3099    3100    3101    3100
    3101    3101       0    3103    3104    3105    3106    3107    3104    3105
    3106    3107    3105    3106    3107    3106    3107    3107       0    3109
    3110    3111    3112    3113    3110    3111    3112    3113    3111    3112
    3113    3112    3113    3113       0    3115    3116    3117    3118    3119
    3116    3117    3118    3119    3117    3118    3119    3118    3119    3119
       0    3121    3122    3123    3124    3125    3122    3123    3124    3125
    3123    3124    3125    3124    3125    3125       0    3127    3128    3129
    3130    3131    3128    3129    3130    3131    3129    3130    3131    3130
    3131    3131       0    3133    3134    3135    3136    3137    3134    3135
    3136    3137    3135    3136    3137    3136    3137    3137       0    3139
    3140    3141    3142    3143    3140    3141    3142    3143    3141    3142
    3143    3142    3143    3143       0    3145    3146    3147    3148    3149
    3146    3147    3148    3149    3147    3148    3149    3148    3149    3149
       0    3151    3152    3153    3154    3155    3152    3153    3154    3155
    3153    3154    3155    3154    3155    3155       0    3157    3158    3159
    3160    3161    3158    3159    3160    3161    3159    3160    3161    3160
    3161    3161       0    3163    3164    3165    3166    3167    3164    3165
    3166    3167    3165    3166    3167    3166    3167    3167       0    3169
    3170    3171    3172    3173    3170    3171    3172    3173    3171    3172
    3173    3172    3173    3173       0    3175    3176    3177    3178    3179
    3176    3177    3178    3179    3177    3178    3179    3178    3179    3179
       0    3181    3182    3183    3184    3185    3182    3183    3184    3185
    3183    3184    3185    3184    3185    3185       0    3187    3188    3189
    3190    3191    3188    3189    3190    3191    3189    3190    3191    3190
    3191    3191       0    3193    3194    3195    3196    3197    3194    3195
    3196    3197    3195    3196    3197    3196    3197    3197       0    3199
    3200    3201    3202    3203    3200    3201    3202    3203    3201    3202
    3203    3202    3203    3203       0    3205    3206    3207    3208    3209
    3206    3207    3208    3209    3207    3208    3209    3208    3209    3209
       0    3211    3212    3213    3214    3215    3212    3213    3214    3215
    3213    3214    3215    3214    3215    3215       0    3217    3218    3219
    3220    3221    3218    3219    3220    3221    3219    3220    3221    3220
    3221    3221       0    3223    3224    3225    3226    3227    3224    3225
    3226    3227    3225    3226    3227    3226    3227    3227       0    3229
    3230    3231    3232    3233    3230    3231    3232    3233    3231    3232
    3233    3232    3233    3233       0    3235    3236    3237    3238    3239
    3236    3237    3238    3239    3237    3238    3239    3238    3239    3239
       0    3241    3242    3243    3244    3245    3242    3243    3244    3245
    3243    3244    3245    3244    3245    3245       0    3247    3248    3249
    3250    3251    3248    3249    3250    3251    3249    3250    3251    3250
    3251    3251       0    3253    3254    3255    3256    3257    3254    3255
    3256    3257    3255    3256    3257    3256    3257    3257       0    3259
    3260    3261    3262    3263    3260    3261    3262    3263    3261    3262
    3263    3262    3263    3263       0    3265    3266    3267    3268    3269
    3266    3267    3268    3269    3267    3268    3269    3268    3269    3269
       0    3271    3272    3273    3274    3275    3272    3273    3274    3275
    3273    3274    3275    3274    3275    3275       0    3277    3278    3279
    3280    3281    3278    3279    3280    3281    3279    3280    3281    3280
    3281    3281       0    3283    3284    3285    3286    3287    3284    3285
    3286    3287    3285    3286    3287    3286    3287    3287       0    3289
    3290    3291    3292    3293    3290    3291    3292    3293    3291    3292
    3293    3292    3293    3293       0    3295    3296    3297    3298    3299
    3296    3297    3298    3299    3297    3298    3299    3298    3299    3299
       0    3301    3302    3303    3304    3305    3302    3303    3304    3305
    3303    3304    3305    3304    3305    3305       0    3307    3308    3309
    3310    3311    3308    3309    3310    3311    3309    3310    3311    3310
    3311    3311       0    3313    3314    3315    3316    3317    3314    3315
    3316    3317    3315    3316    3317    3316    3317    3317       0    3319
    3320    3321    3322    3323    3320    3321    3322    3323    3321    3322
    3323    3322    3323    3323       0    3325    3326    3327    3328    3329
    3326    3327    3328    3329    3327    3328    3329    3328    3329    3329
       0    3331    3332    3333    3334    3335    3332    3333    3334    3335
    3333    3334    3335    3334    3335    3335       0    3337    3338    3339
    3340    3341    3338    3339    3340    3341    3339    3340    3341    3340
    3341    3341       0    3343    3344    3345    3346    3347    3344    3345
    3346    3347    3345    3346    3347    3346    3347    3347       0    3349
    3350    3351    3352    3353    3350    3351    3352    3353    3351    3352
    3353    3352    3353    3353       0    3355    3356    3357    3358    3359
    3356    3357    3358    3359    3357    3358    3359    3358    3359    3359
       0    3361    3362    3363    3364    3365    3362    3363    3364    3365
    3363    3364    3365    3364    3365    3365       0    3367    3368    3369
    3370    3371    3368    3369    3370    3371    3369    3370    3371    3370
    3371    3371       0    3373    3374    3375    3376    3377    3374    3375
    3376    3377    3375    3376    3377    3376    3377    3377       0    3379
    3380    3381    3382    3383    3380    3381    3382    3383    3381    3382
    3383    3382    3383    3383       0    3385    3386    3387    3388    3389
    3386    3387    3388    3389    3387    3388    3389    3388    3389    3389
       0    3391    3392    3393    3394    3395    3392    3393    3394    3395
    3393    3394    3395    3394    3395    3395       0    3397    3398    3399
    3400    3401    3398    3399    3400    3401    3399    3400    3401    3400
    3401    3401       0    3403    3404    3405    3406    3407    3404    3405
    3406    3407    3405    3406    3407    3406    3407    3407       0    3409
    3410    3411    3412    3413    3410    3411    3412    3413    3411    3412
    3413    3412    3413    3413       0    3415    3416    3417    3418    3419
    3416    3417    3418    3419    3417    3418    3419    3418    3419    3419
       0    3421    3422    3423    3424    3425    3422    3423    3424    3425
    3423    3424    3425    3424    3425    3425       0    3427    3428    3429
    3430    3431    3428    3429    3430    3431    3429    3430    3431    3430
    3431    3431       0    3433    3434    3435    3436    3437    3434    3435
    3436    3437    3435    3436    3437    3436    3437    3437       0    3439
    3440    3441    3442    3443    3440    3441    3442    3443    3441    3442
    3443    3442    3443    3443       0    3445    3446    3447    3448    3449
    3446    3447    3448    3449    3447    3448    3449    3448    3449    3449
       0    3451    3452    3453    3454    3455    3452    3453    3454    3455
    3453    3454    3455    3454    3455    3455       0    3457    3458    3459
    3460    3461    3458    3459    3460    3461    3459    3460    3461    3460
    3461    3461       0    3463    3464    3465    3466    3467    3464    3465
    3466    3467    3465    3466    3467    3466    3467    3467       0    3469
    3470    3471    3472    3473    3470    3471    3472    3473    3471    3472
    3473    3472    3473    3473       0    3475    3476    3477    3478    3479
    3476    3477    3478    3479    3477    3478    3479    3478    3479    3479
       0    3481    3482    3483    3484    3485    3482    3483    3484    3485
    3483    3484    3485    3484    3485    3485       0    3487    3488    3489
    3490    3491    3488    3489    3490    3491    3489    3490    3491    3490
    3491    3491       0    3493    3494    3495    3496    3497    3494    3495
    3496    3497    3495    3496    3497    3496    3497    3497       0    3499
    3500    3501    3502    3503    3500    3501    3502    3503    3501    3502
    3503    3502    3503    3503       0    3505    3506    3507    3508    3509
    3506    3507    3508    3509    3507    3508    3509    3508    3509    3509
       0    3511    3512    3513    3514    3515    3512    3513    3514    3515
    3513    3514    3515    3514    3515    3515       0    3517    3518    3519
    3520    3521    3518    3519    3520    3521    3519    3520    3521    3520
    3521    3521       0    3523    3524    3525    3526    3527    3524    3525
    3526    3527    3525    3526    3527    3526    3527    3527       0    3529
    3530    3531    3532    3533    3530    3531    3532    3533    3531    3532
    3533    3532    3533    3533       0    3535    3536    3537    3538    3539
    3536    3537    3538    3539    3537    3538    3539    3538    3539    3539
       0    3541    3542    3543    3544    3545    3542    3543    3544    3545
    3543    3544    3545    3544    3545    3545       0    3547    3548    3549
    3550    3551    3548    3549    3550    3551    3549    3550    3551    3550
    3551    3551       0    3553    3554    3555    3556    3557    3554    3555
    3556    3557    3555    3556    3557    3556    3557    3557       0    3559
    3560    3561    3562    3563    3560    3561    3562    3563    3561    3562
    3563    3562    3563    3563       0    3565    3566    3567    3568    3569
    3566    3567    3568    3569    3567    3568    3569    3568    3569    3569
       0    3571    3572    3573    3574    3575    3572    3573    3574    3575
    3573    3574    3575    3574    3575    3575       0    3577    3578    3579
    3580    3581    3578    3579    3580    3581    3579    3580    3581    3580
    3581    3581       0    3583    3584    3585    3586    3587    3584    3585
    3586    3587    3585    3586    3587    3586    3587    3587       0    3589
    3590    3591    3592    3593    3590    3591    3592    3593    3591    3592
    3593    3592    3593    3593       0    3595    3596    3597    3598    3599
    3596    3597    3598    3599    3597    3598    3599    3598    3599    3599
       0    3601    3602    3603    3604    3605    3602    3603    3604    3605
    3603    3604    3605    3604    3605    3605       0    3607    3608    3609
    3610    3611    3608    3609    3610    3611    3609    3610    3611    3610
    3611    3611       0    3613    3614    3615    3616    3617    3614    3615
    3616    3617    3615    3616    3617    3616    3617    3617       0    3619
    3620    3621    3622    3623    3620    3621    3622    3623    3621    3622
    3623    3622    3623    3623       0    3625    3626    3627    3628    3629
    3626    3627    3628    3629    3627    3628    3629    3628    3629    3629
       0    3631    3632    3633    3634    3635    3632    3633    3634    3635
    3633    3634    3635    3634    3635    3635       0    3637    3638    3639
    3640    3641    3638    3639    3640    3641    3639    3640    3641    3640
    3641    3641       0    3643    3644    3645    3646    3647    3644    3645
    3646    3647    3645    3646    3647    3646    3647    3647       0    3649
    3650    3651    3652    3653    3650    3651    3652    3653    3651    3652
    3653    3652    3653    3653       0    3655    3656    3657    3658    3659
    3656    3657    3658    3659    3657    3658    3659    3658    3659    3659
       0    3661    3662    3663    3664    3665    3662    3663    3664    3665
    3663    3664    3665    3664    3665    3665       0    3667    3668    3669
    3670    3671    3668    3669    3670    3671    3669    3670    3671    3670
    3671    3671       0    3673    3674    3675    3676    3677    3674    3675
    3676    3677    3675    3676    3677    3676    3677    3677       0    3679
    3680    3681    3682    3683    3680    3681    3682    3683    3681    3682
    3683    3682    3683    3683       0    3685    3686    3687    3688    3689
    3686    3687    3688    3689    3687    3688    3689    3688    3689    3689
       0    3691    3692    3693    3694    3695    3692    3693    3694    3695
    3693    3694    3695    3694    3695    3695       0    3697    3698    3699
    3700    3701    3698    3699    3700    3701    3699    3700    3701    3700
    3701    3701       0    3703    3704    3705    3706    3707    3704    3705
    3706    3707    3705    3706    3707    3706    3707    3707       0    3709
    3710    3711    3712    3713    3710    3711    3712    3713    3711    3712
    3713    3712    3713    3713       0    3715    3716    3717    3718    3719
    3716    3717    3718    3719    3717    3718    3719    3718    3719    3719
       0    3721    3722    3723    3724    3725    3722    3723    3724    3725
    3723    3724    3725    3724    3725    3725       0    3727    3728    3729
    3730    3731    3728    3729    3730    3731    3729    3730    3731    3730
    3731    3731       0    3733    3734    3735    3736    3737    3734    3735
    3736    3737    3735    3736    3737    3736    3737    3737       0    3739
    3740    3741    3742    3743    3740    3741    3742    3743    3741    3742
    3743    3742    3743    3743       0    3745    3746    3747    3748    3749
    3746    3747    3748    3749    3747    3748    3749    3748    3749    3749
       0    3751    3752    3753    3754    3755    3752    3753    3754    3755
    3753    3754    3755    3754    3755    3755       0    3757    3758    3759
    3760    3761    3758    3759    3760    3761    3759    3760    3761    3760
    3761    3761       0    3763    3764    3765    3766    3767    3764    3765
    3766    3767    3765    3766    3767    3766    3767    3767       0    3769
    3770    3771    3772    3773    3770    3771    3772    3773    3771    3772
    3773    3772    3773    3773       0    3775    3776    3777    3778    3779
    3776    3777    3778    3779    3777    3778    3779    3778    3779    3779
       0    3781    3782    3783    3784    3785    3782    3783    3784    3785
    3783    3784    3785    3784    3785    3785       0    3787    3788    3789
    3790    3791    3788    3789    3790    3791    3789    3790    3791    3790
    3791    3791       0    3793    3794    3795    3796    3797    3794    3795
    3796    3797    3795    3796    3797    3796    3797    3797       0    3799
    3800    3801    3802    3803    3800    3801    3802    3803    3801    3802
    3803    3802    3803    3803       0    3805    3806    3807    3808    3809
    3806    3807    3808    3809    3807    3808    3809    3808    3809    3809
       0    3811    3812    3813    3814    3815    3812    3813    3814    3815
    3813    3814    3815    3814    3815    3815       0    3817    3818    3819
    3820    3821    3818    3819    3820    3821    3819    3820    3821    3820
    3821    3821       0    3823    3824    3825    3826    3827    3824    3825
    3826    3827    3825    3826    3827    3826    3827    3827       0    3829
    3830    3831    3832    3833    3830    3831    3832    3833    3831    3832
    3833    3832    3833    3833       0    3835    3836    3837    3838    3839
    3836    3837    3838    3839    3837    3838    3839    3838    3839    3839
       0    3841    3842    3843    3844    3845    3842    3843    3844    3845
    3843    3844    3845    3844    3845    3845       0    3847    3848    3849
    3850    3851    3848    3849    3850    3851    3849    3850    3851    3850
    3851    3851       0    3853    3854    3855    3856    3857    3854    3855
    3856    3857    3855    3856    3857    3856    3857    3857       0    3859
    3860    3861    3862    3863    3860    3861    3862    3863    3861    3862
    3863    3862    3863    3863       0    3865    3866    3867    3868    3869
    3866    3867    3868    3869    3867    3868    3869    3868    3869    3869
       0    3871    3872    3873    3874    3875    3872    3873    3874    3875
    3873    3874    3875    3874    3875    3875       0    3877    3878    3879
    3880    3881    3878    3879    3880    3881    3879    3880    3881    3880
    3881    3881       0    3883    3884    3885    3886    3887    3884    3885
    3886    3887    3885    3886    3887    3886    3887    3887       0    3889
    3890    3891    3892    3893    3890    3891    3892    3893    3891    3892
    3893    3892    3893    3893       0    3895    3896    3897    3898    3899
    3896    3897    3898    3899    3897    3898    3899    3898    3899    3899
       0    3901    3902    3903    3904    3905    3902    3903    3904    3905
    3903    3904    3905    3904    3905    3905       0    3907    3908    3909
    3910    3911    3908    3909    3910    3911    3909    3910    3911    3910
    3911    3911       0    3913    3914    3915    3916    3917    3914    3915
    3916    3917    3915    3916    3917    3916    3917    3917       0    3919
    3920    3921    3922    3923    3920    3921    3922    3923    3921    3922
    3923    3922    3923    3923       0    3925    3926    3927    3928    3929
    3926    3927    3928    3929    3927    3928    3929    3928    3929    3929
       0    3931    3932    3933    3934    3935    3932    3933    3934    3935
    3933    3934    3935    3934    3935    3935       0    3937    3938    3939
    3940    3941    3938    3939    3940    3941    3939    3940    3941    3940
    3941    3941       0    3943    3944    3945    3946    3947    3944    3945
    3946    3947    3945    3946    3947    3946    3947    3947       0    3949
    3950    3951    3952    3953    3950    3951    3952    3953    3951    3952
    3953    3952    3953    3953       0    3955    3956    3957    3958    3959
    3956    3957    3958    3959    3957    3958    3959    3958    3959    3959
       0    3961    3962    3963    3964    3965    3962    3963    3964    3965
    3963    3964    3965    3964    3965    3965       0    3967    3968    3969
    3970    3971    3968    3969    3970    3971    3969    3970    3971    3970
    3971    3971       0    3973    3974    3975    3976    3977    3974    3975
    3976    3977    3975    3976    3977    3976    3977    3977       0    3979
    3980    3981    3982    3983    3980    3981    3982    3983    3981    3982
    3983    3982    3983    3983       0    3985    3986    3987    3988    3989
    3986    3987    3988    3989    3987    3988    3989    3988    3989    3989
       0    3991    3992    3993    3994    3995    3992    3993    3994    3995
    3993    3994    3995    3994    3995    3995       0    3997    3998    3999
    4000    4001    3998    3999    4000    4001    3999    4000    4001    4000
    4001    4001       0    4003    4004    4005    4006    4007    4004    4005
    4006    4007    4005    4006    4007    4006    4007    4007       0    4009
    4010    4011    4012    4013    4010    4011    4012    4013    4011    4012
    4013    4012    4013    4013       0    4015    4016    4017    4018    4019
    4016    4017    4018    4019    4017    4018    4019    4018    4019    4019
       0    4021    4022    4023    4024    4025    4022    4023    4024    4025
    4023    4024    4025    4024    4025    4025       0    4027    4028    4029
    4030    4031    4028    4029    4030    4031    4029    4030    4031    4030
    4031    4031       0    4033    4034    4035    4036    4037    4034    4035
    4036    4037    4035    4036    4037    4036    4037    4037       0    4039
    4040    4041    4042    4043    4040    4041    4042    4043    4041    4042
    4043    4042    4043    4043       0    4045    4046    4047    4048    4049
    4046    4047    4048    4049    4047    4048    4049    4048    4049    4049
       0    4051    4052    4053    4054    4055    4052    4053    4054    4055
    4053    4054    4055    4054    4055    4055       0    4057    4058    4059
    4060    4061    4058    4059    4060    4061    4059    4060    4061    4060
    4061    4061       0    4063    4064    4065    4066    4067    4064    4065
    4066    4067    4065    4066    4067    4066    4067    4067       0    4069
    4070    4071    4072    4073    4070    4071    4072    4073    4071    4072
    4073    4072    4073    4073       0    4075    4076    4077    4078    4079
    4076    4077    4078    4079    4077    4078    4079    4078    4079    4079
       0    4081    4082    4083    4084    4085    4082    4083    4084    4085
    4083    4084    4085    4084    4085    4085       0    4087    4088    4089
    4090    4091    4088    4089    4090    4091    4089    4090    4091    4090
    4091    4091       0    4093    4094    4095    4096    4097    4094    4095
    4096    4097    4095    4096    4097    4096    4097    4097       0    4099
    4100    4101    4102    4103    4100    4101    4102    4103    4101    4102
    4103    4102    4103    4103       0    4105    4106    4107    4108    4109
    4106    4107    4108    4109    4107    4108    4109    4108    4109    4109
       0    4111    4112    4113    4114    4115    4112    4113    4114    4115
    4113    4114    4115    4114    4115    4115       0    4117    4118    4119
    4120    4121    4118    4119    4120    4121    4119    4120    4121    4120
    4121    4121       0    4123    4124    4125    4126    4127    4124    4125
    4126    4127    4125    4126    4127    4126    4127    4127       0    4129
    4130    4131    4132    4133    4130    4131    4132    4133    4131    4132
    4133    4132    4133    4133       0    4135    4136    4137    4138    4139
    4136    4137    4138    4139    4137    4138    4139    4138    4139    4139
       0    4141    4142    4143    4144    4145    4142    4143    4144    4145
    4143    4144    4145    4144    4145    4145       0    4147    4148    4149
    4150    4151    4148    4149    4150    4151    4149    4150    4151    4150
    4151    4151       0    4153    4154    4155    4156    4157    4154    4155
    4156    4157    4155    4156    4157    4156    4157    4157       0    4159
    4160    4161    4162    4163    4160    4161    4162    4163    4161    4162
    4163    4162    4163    4163       0    4165    4166    4167    4168    4169
    4166    4167    4168    4169    4167    4168    4169    4168    4169    4169
       0    4171    4172    4173    4174    4175    4172    4173    4174    4175
    4173    4174    4175    4174    4175    4175       0    4177    4178    4179
    4180    4181    4178    4179    4180    4181    4179    4180    4181    4180
    4181    4181       0    4183    4184    4185    4186    4187    4184    4185
    4186    4187    4185    4186    4187    4186    4187    4187       0    4189
    4190    4191    4192    4193    4190    4191    4192    4193    4191    4192
    4193    4192    4193    4193       0    4195    4196    4197    4198    4199
    4196    4197    4198    4199    4197    4198    4199    4198    4199    4199
       0    4201    4202    4203    4204    4205    4202    4203    4204    4205
    4203    4204    4205    4204    4205    4205       0    4207    4208    4209
    4210    4211    4208    4209    4210    4211    4209    4210    4211    4210
    4211    4211       0    4213    4214    4215    4216    4217    4214    4215
    4216    4217    4215    4216    4217    4216    4217    4217       0    4219
    4220    4221    4222    4223    4220    4221    4222    4223    4221    4222
    4223    4222    4223    4223       0    4225    4226    4227    4228    4229
    4226    4227    4228    4229    4227    4228    4229    4228    4229    4229
       0    4231    4232    4233    4234    4235    4232    4233    4234    4235
    4233    4234    4235    4234    4235    4235       0    4237    4238    4239
    4240    4241    4238    4239    4240    4241    4239    4240    4241    4240
    4241    4241       0    4243    4244    4245    4246    4247    4244    4245
    4246    4247    4245    4246    4247    4246    4247    4247       0    4249
    4250    4251    4252    4253    4250    4251    4252    4253    4251    4252
    4253    4252    4253    4253       0    4255    4256    4257    4258    4259
    4256    4257    4258    4259    4257    4258    4259    4258    4259    4259
       0    4261    4262    4263    4264    4265    4262    4263    4264    4265
    4263    4264    4265    4264    4265    4265       0    4267    4268    4269
    4270    4271    4268    4269    4270    4271    4269    4270    4271    4270
    4271    4271       0    4273    4274    4275    4276    4277    4274    4275
    4276    4277    4275    4276    4277    4276    4277    4277       0    4279
    4280    4281    4282    4283    4280    4281    4282    4283    4281    4282
    4283    4282    4283    4283       0    4285    4286    4287    4288    4289
    4286    4287    4288    4289    4287    4288    4289    4288    4289    4289
       0    4291    4292    4293    4294    4295    4292    4293    4294    4295
    4293    4294    4295    4294    4295    4295       0    4297    4298    4299
    4300    4301    4298    4299    4300    4301    4299    4300    4301    4300
    4301    4301       0    4303    4304    4305    4306    4307    4304    4305
    4306    4307    4305    4306    4307    4306    4307    4307       0    4309
    4310    4311    4312    4313    4310    4311    4312    4313    4311    4312
    4313    4312    4313    4313       0    4315    4316    4317    4318    4319
    4316    4317    4318    4319    4317    4318    4319    4318    4319    4319
       0    4321    4322    4323    4324    4325    4322    4323    4324    4325
    4323    4324    4325    4324    4325    4325       0    4327    4328    4329
    4330    4331    4328    4329    4330    4331    4329    4330    4331    4330
    4331    4331       0    4333    4334    4335    4336    4337    4334    4335
    4336    4337    4335    4336    4337    4336    4337    4337       0    4339
    4340    4341    4342    4343    4340    4341    4342    4343    4341    4342
    4343    4342    4343    4343       0    4345    4346    4347    4348    4349
    4346    4347    4348    4349    4347    4348    4349    4348    4349    4349
       0    4351    4352    4353    4354    4355    4352    4353    4354    4355
    4353    4354    4355    4354    4355    4355       0    4357    4358    4359
    4360    4361    4358    4359    4360    4361    4359    4360    4361    4360
    4361    4361       0    4363    4364    4365    4366    4367    4364    4365
    4366    4367    4365    4366    4367    4366    4367    4367       0    4369
    4370    4371    4372    4373    4370    4371    4372    4373    4371    4372
    4373    4372    4373    4373       0    4375    4376    4377    4378    4379
    4376    4377    4378    4379    4377    4378    4379    4378    4379    4379
       0    4381    4382    4383    4384    4385    4382    4383    4384    4385
    4383    4384    4385    4384    4385    4385       0    4387    4388    4389
    4390    4391    4388    4389    4390    4391    4389    4390    4391    4390
    4391    4391       0    4393    4394    4395    4396    4397    4394    4395
    4396    4397    4395    4396    4397    4396    4397    4397       0    4399
    4400    4401    4402    4403    4400    4401    4402    4403    4401    4402
    4403    4402    4403    4403       0    4405    4406    4407    4408    4409
    4406    4407    4408    4409    4407    4408    4409    4408    4409    4409
       0    4411    4412    4413    4414    4415    4412    4413    4414    4415
    4413    4414    4415    4414    4415    4415       0    4417    4418    4419
    4420    4421    4418    4419    4420    4421    4419    4420    4421    4420
    4421    4421       0    4423    4424    4425    4426    4427    4424    4425
    4426    4427    4425    4426    4427    4426    4427    4427       0    4429
    4430    4431    4432    4433    4430    4431    4432    4433    4431    4432
    4433    4432    4433    4433       0    4435    4436    4437    4438    4439
    4436    4437    4438    4439    4437    4438    4439    4438    4439    4439
       0    4441    4442    4443    4444    4445    4442    4443    4444    4445
    4443    4444    4445    4444    4445    4445       0    4447    4448    4449
    4450    4451    4448    4449    4450    4451    4449    4450    4451    4450
    4451    4451       0    4453    4454    4455    4456    4457    4454    4455
    4456    4457    4455    4456    4457    4456    4457    4457       0    4459
    4460    4461    4462    4463    4460    4461    4462    4463    4461    4462
    4463    4462    4463    4463       0    4465    4466    4467    4468    4469
    4466    4467    4468    4469    4467    4468    4469    4468    4469    4469
       0    4471    4472    4473    4474    4475    4472    4473    4474    4475
    4473    4474    4475    4474    4475    4475       0    4477    4478    4479
    4480    4481    4478    4479    4480    4481    4479    4480    4481    4480
    4481    4481       0    4483    4484    4485    4486    4487    4484    4485
    4486    4487    4485    4486    4487    4486    4487    4487       0    4489
    4490    4491    4492    4493    4490    4491    4492    4493    4491    4492
    4493    4492    4493    4493       0    4495    4496    4497    4498    4499
    4496    4497    4498    4499    4497    4498    4499    4498    4499    4499
       0    4501    4502    4503    4504    4505    4502    4503    4504    4505
    4503    4504    4505    4504    4505    4505       0    4507    4508    4509
    4510    4511    4508    4509    4510    4511    4509    4510    4511    4510
    4511    4511       0    4513    4514    4515    4516    4517    4514    4515
    4516    4517    4515    4516    4517    4516    4517    4517       0    4519
    4520    4521    4522    4523    4520    4521    4522    4523    4521    4522
    4523    4522    4523    4523       0    4525    4526    4527    4528    4529
    4526    4527    4528    4529    4527    4528    4529    4528    4529    4529
       0    4531    4532    4533    4534    4535    4532    4533    4534    4535
    4533    4534    4535    4534    4535    4535       0    4537    4538    4539
    4540    4541    4538    4539    4540    4541    4539    4540    4541    4540
    4541    4541       0    4543    4544    4545    4546    4547    4544    4545
    4546    4547    4545    4546    4547    4546    4547    4547       0    4549
    4550    4551    4552    4553    4550    4551    4552    4553    4551    4552
    4553    4552    4553    4553       0    4555    4556    4557    4558    4559
    4556    4557    4558    4559    4557    4558    4559    4558    4559    4559
       0    4561    4562    4563    4564    4565    4562    4563    4564    4565
    4563    4564    4565    4564    4565    4565       0    4567    4568    4569
    4570    4571    4568    4569    4570    4571    4569    4570    4571    4570
    4571    4571       0    4573    4574    4575    4576    4577    4574    4575
    4576    4577    4575    4576    4577    4576    4577    4577       0    4579
    4580    4581    4582    4583    4580    4581    4582    4583    4581    4582
    4583    4582    4583    4583       0    4585    4586    4587    4588    4589
    4586    4587    4588    4589    4587    4588    4589    4588    4589    4589
       0    4591    4592    4593    4594    4595    4592    4593    4594    4595
    4593    4594    4595    4594    4595    4595       0    4597    4598    4599
    4600    4601    4598    4599    4600    4601    4599    4600    4601    4600
    4601    4601       0    4603    4604    4605    4606    4607    4604    4605
    4606    4607    4605    4606    4607    4606    4607    4607       0    4609
    4610    4611    4612    4613    4610    4611    4612    4613    4611    4612
    4613    4612    4613    4613       0    4615    4616    4617    4618    4619
    4616    4617    4618    4619    4617    4618    4619    4618    4619    4619
       0    4621    4622    4623    4624    4625    4622    4623    4624    4625
    4623    4624    4625    4624    4625    4625       0    4627    4628    4629
    4630    4631    4628    4629    4630    4631    4629    4630    4631    4630
    4631    4631       0    4633    4634    4635    4636    4637    4634    4635
    4636    4637    4635    4636    4637    4636    4637    4637       0    4639
    4640    4641    4642    4643    4640    4641    4642    4643    4641    4642
    4643    4642    4643    4643       0    4645    4646    4647    4648    4649
    4646    4647    4648    4649    4647    4648    4649    4648    4649    4649
       0    4651    4652    4653    4654    4655    4652    4653    4654    4655
    4653    4654    4655    4654    4655    4655       0    4657    4658    4659
    4660    4661    4658    4659    4660    4661    4659    4660    4661    4660
    4661    4661       0    4663    4664    4665    4666    4667    4664    4665
    4666    4667    4665    4666    4667    4666    4667    4667       0    4669
    4670    4671    4672    4673    4670    4671    4672    4673    4671    4672
    4673    4672    4673    4673       0    4675    4676    4677    4678    4679
    4676    4677    4678    4679    4677    4678    4679    4678    4679    4679
       0    4681    4682    4683    4684    4685    4682    4683    4684    4685
    4683    4684    4685    4684    4685    4685       0    4687    4688    4689
    4690    4691    4688    4689    4690    4691    4689    4690    4691    4690
    4691    4691       0    4693    4694    4695    4696    4697    4694    4695
    4696    4697    4695    4696    4697    4696    4697    4697       0    4699
    4700    4701    4702    4703    4700    4701    4702    4703    4701    4702
    4703    4702    4703    4703       0    4705    4706    4707    4708    4709
    4706    4707    4708    4709    4707    4708    4709    4708    4709    4709
       0    4711    4712    4713    4714    4715    4712    4713    4714    4715
    4713    4714    4715    4714    4715    4715       0    4717    4718    4719
    4720    4721    4718    4719    4720    4721    4719    4720    4721    4720
    4721    4721       0    4723    4724    4725    4726    4727    4724    4725
    4726    4727    4725    4726    4727    4726    4727    4727       0    4729
    4730    4731    4732    4733    4730    4731    4732    4733    4731    4732
    4733    4732    4733    4733       0    4735    4736    4737    4738    4739
    4736    4737    4738    4739    4737    4738    4739    4738    4739    4739
       0    4741    4742    4743    4744    4745    4742    4743    4744    4745
    4743    4744    4745    4744    4745    4745       0    4747    4748    4749
    4750    4751    4748    4749    4750    4751    4749    4750    4751    4750
    4751    4751       0    4753    4754    4755    4756    4757    4754    4755
    4756    4757    4755    4756    4757    4756    4757    4757       0    4759
    4760    4761    4762    4763    4760    4761    4762    4763    4761    4762
    4763    4762    4763    4763       0    4765    4766    4767    4768    4769
    4766    4767    4768    4769    4767    4768    4769    4768    4769    4769
       0    4771    4772    4773    4774    4775    4772    4773    4774    4775
    4773    4774    4775    4774    4775    4775       0    4777    4778    4779
    4780    4781    4778    4779    4780    4781    4779    4780    4781    4780
    4781    4781       0    4783    4784    4785    4786    4787    4784    4785
    4786    4787    4785    4786    4787    4786    4787    4787       0    4789
    4790    4791    4792    4793    4790    4791    4792    4793    4791    4792
    4793    4792    4793    4793       0    4795    4796    4797    4798    4799
    4796    4797    4798    4799    4797    4798    4799    4798    4799    4799
       0    4801    4802    4803    4804    4805    4802    4803    4804    4805
    4803    4804    4805    4804    4805    4805       0    4807    4808    4809
    4810    4811    4808    4809    4810    4811    4809    4810    4811    4810
    4811    4811       0    4813    4814    4815    4816    4817    4814    4815
    4816    4817    4815    4816    4817    4816    4817    4817       0    4819
    4820    4821    4822    4823    4820    4821    4822    4823    4821    4822
    4823    4822    4823    4823       0    4825    4826    4827    4828    4829
    4826    4827    4828    4829    4827    4828    4829    4828    4829    4829
       0    4831    4832    4833    4834    4835    4832    4833    4834    4835
    4833    4834    4835    4834    4835    4835       0    4837    4838    4839
    4840    4841    4838    4839    4840    4841    4839    4840    4841    4840
    4841    4841       0    4843    4844    4845    4846    4847    4844    4845
    4846    4847    4845    4846    4847    4846    4847    4847       0    4849
    4850    4851    4852    4853    4850    4851    4852    4853    4851    4852
    4853    4852    4853    4853       0    4855    4856    4857    4858    4859
    4856    4857    4858    4859    4857    4858    4859    4858    4859    4859
       0    4861    4862    4863    4864    4865    4862    4863    4864    4865
    4863    4864    4865    4864    4865    4865       0    4867    4868    4869
    4870    4871    4868    4869    4870    4871    4869    4870    4871    4870
    4871    4871       0    4873    4874    4875    4876    4877    4874    4875
    4876    4877    4875    4876    4877    4876    4877    4877       0    4879
    4880    4881    4882    4883    4880    4881    4882    4883    4881    4882
    4883    4882    4883    4883       0    4885    4886    4887    4888    4889
    4886    4887    4888    4889    4887    4888    4889    4888    4889    4889
       0    4891    4892    4893    4894    4895    4892    4893    4894    4895
    4893    4894    4895    4894    4895    4895       0    4897    4898    4899
    4900    4901    4898    4899    4900    4901    4899    4900    4901    4900
    4901    4901       0    4903    4904    4905    4906    4907    4904    4905
    4906    4907    4905    4906    4907    4906    4907    4907       0    4909
    4910    4911    4912    4913    4910    4911    4912    4913    4911    4912
    4913    4912    4913    4913       0    4915    4916    4917    4918    4919
    4916    4917    4918    4919    4917    4918    4919    4918    4919    4919
       0    4921    4922    4923    4924    4925    4922    4923    4924    4925
    4923    4924    4925    4924    4925    4925       0    4927    4928    4929
    4930    4931    4928    4929    4930    4931    4929    4930    4931    4930
    4931    4931       0    4933    4934    4935    4936    4937    4934    4935
    4936    4937    4935    4936    4937    4936    4937    4937       0    4939
    4940    4941    4942    4943    4940    4941    4942    4943    4941    4942
    4943    4942    4943    4943       0    4945    4946    4947    4948    4949
    4946    4947    4948    4949    4947    4948    4949    4948    4949    4949
       0    4951    4952    4953    4954    4955    4952    4953    4954    4955
    4953    4954    4955    4954    4955    4955       0    4957    4958    4959
    4960    4961    4958    4959    4960    4961    4959    4960    4961    4960
    4961    4961       0    4963    4964    4965    4966    4967    4964    4965
    4966    4967    4965    4966    4967    4966    4967    4967       0    4969
    4970    4971    4972    4973    4970    4971    4972    4973    4971    4972
    4973    4972    4973    4973       0    4975    4976    4977    4978    4979
    4976    4977    4978    4979    4977    4978    4979    4978    4979    4979
       0    4981    4982    4983    4984    4985    4982    4983    4984    4985
    4983    4984    4985    4984    4985    4985       0    4987    4988    4989
    4990    4991    4988    4989    4990    4991    4989    4990    4991    4990
    4991    4991       0    4993    4994    4995    4996    4997    4994    4995
    4996    4997    4995    4996    4997    4996    4997    4997       0    4999
    5000    5001    5002    5003    5000    5001    5002    5003    5001    5002
    5003    5002    5003    5003       0    5005    5006    5007    5008    5009
    5006    5007    5008    5009    5007    5008    5009    5008    5009    5009
       0    5011    5012    5013    5014    5015    5012    5013    5014    5015
    5013    5014    5015    5014    5015    5015       0    5017    5018    5019
    5020    5021    5018    5019    5020    5021    5019    5020    5021    5020
    5021    5021       0    5023    5024    5025    5026    5027    5024    5025
    5026    5027    5025    5026    5027    5026    5027    5027       0    5029
    5030    5031    5032    5033    5030    5031    5032    5033    5031    5032
    5033    5032    5033    5033       0    5035    5036    5037    5038    5039
    5036    5037    5038    5039    5037    5038    5039    5038    5039    5039
       0    5041    5042    5043    5044    5045    5042    5043    5044    5045
    5043    5044    5045    5044    5045    5045       0    5047    5048    5049
    5050    5051    5048    5049    5050    5051    5049    5050    5051    5050
    5051    5051       0    5053    5054    5055    5056    5057    5054    5055
    5056    5057    5055    5056    5057    5056    5057    5057       0    5059
    5060    5061    5062    5063    5060    5061    5062    5063    5061    5062
    5063    5062    5063    5063       0    5065    5066    5067    5068    5069
    5066    5067    5068    5069    5067    5068    5069    5068    5069    5069
       0    5071    5072    5073    5074    5075    5072    5073    5074    5075
    5073    5074    5075    5074    5075    5075       0    5077    5078    5079
    5080    5081    5078    5079    5080    5081    5079    5080    5081    5080
    5081    5081       0    5083    5084    5085    5086    5087    5084    5085
    5086    5087    5085    5086    5087    5086    5087    5087       0    5089
    5090    5091    5092    5093    5090    5091    5092    5093    5091    5092
    5093    5092    5093    5093       0    5095    5096    5097    5098    5099
    5096    5097    5098    5099    5097    5098    5099    5098    5099    5099
       0    5101    5102    5103    5104    5105    5102    5103    5104    5105
    5103    5104    5105    5104    5105    5105       0    5107    5108    5109
    5110    5111    5108    5109    5110    5111    5109    5110    5111    5110
    5111    5111       0    5113    5114    5115    5116    5117    5114    5115
    5116    5117    5115    5116    5117    5116    5117    5117       0    5119
    5120    5121    5122    5123    5120    5121    5122    5123    5121    5122
    5123    5122    5123    5123       0    5125    5126    5127    5128    5129
    5126    5127    5128    5129    5127    5128    5129    5128    5129    5129
       0    5131    5132    5133    5134    5135    5132    5133    5134    5135
    5133    5134    5135    5134    5135    5135       0    5137    5138    5139
    5140    5141    5138    5139    5140    5141    5139    5140    5141    5140
    5141    5141       0    5143    5144    5145    5146    5147    5144    5145
    5146    5147    5145    5146    5147    5146    5147    5147       0    5149
    5150    5151    5152    5153    5150    5151    5152    5153    5151    5152
    5153    5152    5153    5153       0    5155    5156    5157    5158    5159
    5156    5157    5158    5159    5157    5158    5159    5158    5159    5159
       0    5161    5162    5163    5164    5165    5162    5163    5164    5165
    5163    5164    5165    5164    5165    5165       0    5167    5168    5169
    5170    5171    5168    5169    5170    5171    5169    5170    5171    5170
    5171    5171       0    5173    5174    5175    5176    5177    5174    5175
    5176    5177    5175    5176    5177    5176    5177    5177       0    5179
    5180    5181    5182    5183    5180    5181    5182    5183    5181    5182
    5183    5182    5183    5183       0    5185    5186    5187    5188    5189
    5186    5187    5188    5189    5187    5188    5189    5188    5189    5189
       0    5191    5192    5193    5194    5195    5192    5193    5194    5195
    5193    5194    5195    5194    5195    5195       0    5197    5198    5199
    5200    5201    5198    5199    5200    5201    5199    5200    5201    5200
    5201    5201       0    5203    5204    5205    5206    5207    5204    5205
    5206    5207    5205    5206    5207    5206    5207    5207       0    5209
    5210    5211    5212    5213    5210    5211    5212    5213    5211    5212
    5213    5212    5213    5213       0    5215    5216    5217    5218    5219
    5216    5217    5218    5219    5217    5218    5219    5218    5219    5219
       0    5221    5222    5223    5224    5225    5222    5223    5224    5225
    5223    5224    5225    5224    5225    5225       0    5227    5228    5229
    5230    5231    5228    5229    5230    5231    5229    5230    5231    5230
    5231    5231       0    5233    5234    5235    5236    5237    5234    5235
    5236    5237    5235    5236    5237    5236    5237    5237       0    5239
    5240    5241    5242    5243    5240    5241    5242    5243    5241    5242
    5243    5242    5243    5243       0    5245    5246    5247    5248    5249
    5246    5247    5248    5249    5247    5248    5249    5248    5249    5249
       0    5251    5252    5253    5254    5255    5252    5253    5254    5255
    5253    5254    5255    5254    5255    5255       0    5257    5258    5259
    5260    5261    5258    5259    5260    5261    5259    5260    5261    5260
    5261    5261       0    5263    5264    5265    5266    5267    5264    5265
    5266    5267    5265    5266    5267    5266    5267    5267       0    5269
    5270    5271    5272    5273    5270    5271    5272    5273    5271    5272
    5273    5272    5273    5273       0    5275    5276    5277    5278    5279
    5276    5277    5278    5279    5277    5278    5279    5278    5279    5279
       0    5281    5282    5283    5284    5285    5282    5283    5284    5285
    5283    5284    5285    5284    5285    5285       0    5287    5288    5289
    5290    5291    5288    5289    5290    5291    5289    5290    5291    5290
    5291    5291       0    5293    5294    5295    5296    5297    5294    5295
    5296    5297    5295    5296    5297    5296    5297    5297       0    5299
    5300    5301    5302    5303    5300    5301    5302    5303    5301    5302
    5303    5302    5303    5303       0    5305    5306    5307    5308    5309
    5306    5307    5308    5309    5307    5308    5309    5308    5309    5309
       0    5311    5312    5313    5314    5315    5312    5313    5314    5315
    5313    5314    5315    5314    5315    5315       0    5317    5318    5319
    5320    5321    5318    5319    5320    5321    5319    5320    5321    5320
    5321    5321       0    5323    5324    5325    5326    5327    5324    5325
    5326    5327    5325    5326    5327    5326    5327    5327       0    5329
    5330    5331    5332    5333    5330    5331    5332    5333    5331    5332
    5333    5332    5333    5333       0    5335    5336    5337    5338    5339
    5336    5337    5338    5339    5337    5338    5339    5338    5339    5339
       0    5341    5342    5343    5344    5345    5342    5343    5344    5345
    5343    5344    5345    5344    5345    5345       0    5347    5348    5349
    5350    5351    5348    5349    5350    5351    5349    5350    5351    5350
    5351    5351       0    5353    5354    5355    5356    5357    5354    5355
    5356    5357    5355    5356    5357    5356    5357    5357       0    5359
    5360    5361    5362    5363    5360    5361    5362    5363    5361    5362
    5363    5362    5363    5363       0    5365    5366    5367    5368    5369
    5366    5367    5368    5369    5367    5368    5369    5368    5369    5369
       0    5371    5372    5373    5374    5375    5372    5373    5374    5375
    5373    5374    5375    5374    5375    5375       0    5377    5378    5379
    5380    5381    5378    5379    5380    5381    5379    5380    5381    5380
    5381    5381       0    5383    5384    5385    5386    5387    5384    5385
    5386    5387    5385    5386    5387    5386    5387    5387       0    5389
    5390    5391    5392    5393    5390    5391    5392    5393    5391    5392
    5393    5392    5393    5393       0    5395    5396    5397    5398    5399
    5396    5397    5398    5399    5397    5398    5399    5398    5399    5399
       0    5401    5402    5403    5404    5405    5402    5403    5404    5405
    5403    5404    5405    5404    5405    5405       0    5407    5408    5409
    5410    5411    5408    5409    5410    5411    5409    5410    5411    5410
    5411    5411       0    5413    5414    5415    5416    5417    5414    5415
    5416    5417    5415    5416    5417    5416    5417    5417       0    5419
    5420    5421    5422    5423    5420    5421    5422    5423    5421    5422
    5423    5422    5423    5423       0    5425    5426    5427    5428    5429
    5426    5427    5428    5429    5427    5428    5429    5428    5429    5429
       0    5431    5432    5433    5434    5435    5432    5433    5434    5435
    5433    5434    5435    5434    5435    5435       0    5437    5438    5439
    5440    5441    5438    5439    5440    5441    5439    5440    5441    5440
    5441    5441       0    5443    5444    5445    5446    5447    5444    5445
    5446    5447    5445    5446    5447    5446    5447    5447       0    5449
    5450    5451    5452    5453    5450    5451    5452    5453    5451    5452
    5453    5452    5453    5453       0    5455    5456    5457    5458    5459
    5456    5457    5458    5459    5457    5458    5459    5458    5459    5459
       0    5461    5462    5463    5464    5465    5462    5463    5464    5465
    5463    5464    5465    5464    5465    5465       0    5467    5468    5469
    5470    5471    5468    5469    5470    5471    5469    5470    5471    5470
    5471    5471       0    5473    5474    5475    5476    5477    5474    5475
    5476    5477    5475    5476    5477    5476    5477    5477       0    5479
    5480    5481    5482    5483    5480    5481    5482    5483    5481    5482
    5483    5482    5483    5483       0    5485    5486    5487    5488    5489
    5486    5487    5488    5489    5487    5488    5489    5488    5489    5489
       0    5491    5492    5493    5494    5495    5492    5493    5494    5495
    5493    5494    5495    5494    5495    5495       0    5497    5498    5499
    5500    5501    5498    5499    5500    5501    5499    5500    5501    5500
    5501    5501       0    5503    5504    5505    5506    5507    5504    5505
    5506    5507    5505    5506    5507    5506    5507    5507       0    5509
    5510    5511    5512    5513    5510    5511    5512    5513    5511    5512
    5513    5512    5513    5513       0    5515    5516    5517    5518    5519
    5516    5517    5518    5519    5517    5518    5519    5518    5519    5519
       0    5521    5522    5523    5524    5525    5522    5523    5524    5525
    5523    5524    5525    5524    5525    5525       0    5527    5528    5529
    5530    5531    5528    5529    5530    5531    5529    5530    5531    5530
    5531    5531       0    5533    5534    5535    5536    5537    5534    5535
    5536    5537    5535    5536    5537    5536    5537    5537       0    5539
    5540    5541    5542    5543    5540    5541    5542    5543    5541    5542
    5543    5542    5543    5543       0    5545    5546    5547    5548    5549
    5546    5547    5548    5549    5547    5548    5549    5548    5549    5549
       0    5551    5552    5553    5554    5555    5552    5553    5554    5555
    5553    5554    5555    5554    5555    5555       0    5557    5558    5559
    5560    5561    5558    5559    5560    5561    5559    5560    5561    5560
    5561    5561       0    5563    5564    5565    5566    5567    5564    5565
    5566    5567    5565    5566    5567    5566    5567    5567       0    5569
    5570    5571    5572    5573    5570    5571    5572    5573    5571    5572
    5573    5572    5573    5573       0    5575    5576    5577    5578    5579
    5576    5577    5578    5579    5577    5578    5579    5578    5579    5579
       0    5581    5582    5583    5584    5585    5582    5583    5584    5585
    5583    5584    5585    5584    5585    5585       0    5587    5588    5589
    5590    5591    5588    5589    5590    5591    5589    5590    5591    5590
    5591    5591       0    5593    5594    5595    5596    5597    5594    5595
    5596    5597    5595    5596    5597    5596    5597    5597       0
%FLAG HBOND_ACOEF                                                               
%FORMAT(5E16.8)                                                                 

%FLAG HBOND_BCOEF                                                               
%FORMAT(5E16.8)                                                                 

%FLAG HBCUT                                                                     
%FORMAT(5E16.8)                                                                 

%FLAG AMBER_ATOM_TYPE                                                           
%FORMAT(20a4)                                                                   
ca  ca  ca  ca  ca  ca  c5  ce  nh  ce  cf  cf  ce  ce  c6  c6  c6  cf  cf  c2  
nh  ca  ca  c5  ca  ca  ca  ca  ha  c3  c3  cl  c3  c3  ha  hc  hc  hc  ha  c   
ha  h1  h1  h1  ha  ha  hc  hc  hc  hc  hc  hc  ha  ha  hc  hc  hc  ha  ha  c   
h1  h1  h1  c3  hc  hc  hc  oh  o   ho  c3  hc  hc  hc  oh  o   ho  n1  c3  c1  
hc  hc  hc  n1  c3  c1  hc  hc  hc  n1  c3  c1  hc  hc  hc  n1  c3  c1  hc  hc  
hc  n1  c3  c1  hc  hc  hc  n1  c3  c1  hc  hc  hc  n1  c3  c1  hc  hc  hc  n1  
c3  c1  hc  hc  hc  n1  c3  c1  hc  hc  hc  n1  c3  c1  hc  hc  hc  n1  c3  c1  
hc  hc  hc  n1  c3  c1  hc  hc  hc  n1  c3  c1  hc  hc  hc  n1  c3  c1  hc  hc  
hc  n1  c3  c1  hc  hc  hc  n1  c3  c1  hc  hc  hc  n1  c3  c1  hc  hc  hc  n1  
c3  c1  hc  hc  hc  n1  c3  c1  hc  hc  hc  n1  c3  c1  hc  hc  hc  n1  c3  c1  
hc  hc  hc  n1  c3  c1  hc  hc  hc  n1  c3  c1  hc  hc  hc  n1  c3  c1  hc  hc  
hc  n1  c3  c1  hc  hc  hc  n1  c3  c1  hc  hc  hc  n1  c3  c1  hc  hc  hc  n1  
c3  c1  hc  hc  hc  n1  c3  c1  hc  hc  hc  n1  c3  c1  hc  hc  hc  n1  c3  c1  
hc  hc  hc  n1  c3  c1  hc  hc  hc  n1  c3  c1  hc  hc  hc  n1  c3  c1  hc  hc  
hc  n1  c3  c1  hc  hc  hc  n1  c3  c1  hc  hc  hc  n1  c3  c1  hc  hc  hc  n1  
c3  c1  hc  hc  hc  n1  c3  c1  hc  hc  hc  n1  c3  c1  hc  hc  hc  n1  c3  c1  
hc  hc  hc  n1  c3  c1  hc  hc  hc  n1  c3  c1  hc  hc  hc  n1  c3  c1  hc  hc  
hc  n1  c3  c1  hc  hc  hc  n1  c3  c1  hc  hc  hc  n1  c3  c1  hc  hc  hc  n1  
c3  c1  hc  hc  hc  n1  c3  c1  hc  hc  hc  n1  c3  c1  hc  hc  hc  n1  c3  c1  
hc  hc  hc  n1  c3  c1  hc  hc  hc  n1  c3  c1  hc  hc  hc  n1  c3  c1  hc  hc  
hc  n1  c3  c1  hc  hc  hc  n1  c3  c1  hc  hc  hc  n1  c3  c1  hc  hc  hc  n1  
c3  c1  hc  hc  hc  n1  c3  c1  hc  hc  hc  n1  c3  c1  hc  hc  hc  n1  c3  c1  
hc  hc  hc  n1  c3  c1  hc  hc  hc  n1  c3  c1  hc  hc  hc  n1  c3  c1  hc  hc  
hc  n1  c3  c1  hc  hc  hc  n1  c3  c1  hc  hc  hc  n1  c3  c1  hc  hc  hc  n1  
c3  c1  hc  hc  hc  n1  c3  c1  hc  hc  hc  n1  c3  c1  hc  hc  hc  n1  c3  c1  
hc  hc  hc  n1  c3  c1  hc  hc  hc  n1  c3  c1  hc  hc  hc  n1  c3  c1  hc  hc  
hc  n1  c3  c1  hc  hc  hc  n1  c3  c1  hc  hc  hc  n1  c3  c1  hc  hc  hc  n1  
c3  c1  hc  hc  hc  n1  c3  c1  hc  hc  hc  n1  c3  c1  hc  hc  hc  n1  c3  c1  
hc  hc  hc  n1  c3  c1  hc  hc  hc  n1  c3  c1  hc  hc  hc  n1  c3  c1  hc  hc  
hc  n1  c3  c1  hc  hc  hc  n1  c3  c1  hc  hc  hc  n1  c3  c1  hc  hc  hc  n1  
c3  c1  hc  hc  hc  n1  c3  c1  hc  hc  hc  n1  c3  c1  hc  hc  hc  n1  c3  c1  
hc  hc  hc  n1  c3  c1  hc  hc  hc  n1  c3  c1  hc  hc  hc  n1  c3  c1  hc  hc  
hc  n1  c3  c1  hc  hc  hc  n1  c3  c1  hc  hc  hc  n1  c3  c1  hc  hc  hc  n1  
c3  c1  hc  hc  hc  n1  c3  c1  hc  hc  hc  n1  c3  c1  hc  hc  hc  n1  c3  c1  
hc  hc  hc  n1  c3  c1  hc  hc  hc  n1  c3  c1  hc  hc  hc  n1  c3  c1  hc  hc  
hc  n1  c3  c1  hc  hc  hc  n1  c3  c1  hc  hc  hc  n1  c3  c1  hc  hc  hc  n1  
c3  c1  hc  hc  hc  n1  c3  c1  hc  hc  hc  n1  c3  c1  hc  hc  hc  n1  c3  c1  
hc  hc  hc  n1  c3  c1  hc  hc  hc  n1  c3  c1  hc  hc  hc  n1  c3  c1  hc  hc  
hc  n1  c3  c1  hc  hc  hc  n1  c3  c1  hc  hc  hc  n1  c3  c1  hc  hc  hc  n1  
c3  c1  hc  hc  hc  n1  c3  c1  hc  hc  hc  n1  c3  c1  hc  hc  hc  n1  c3  c1  
hc  hc  hc  n1  c3  c1  hc  hc  hc  n1  c3  c1  hc  hc  hc  n1  c3  c1  hc  hc  
hc  n1  c3  c1  hc  hc  hc  n1  c3  c1  hc  hc  hc  n1  c3  c1  hc  hc  hc  n1  
c3  c1  hc  hc  hc  n1  c3  c1  hc  hc  hc  n1  c3  c1  hc  hc  hc  n1  c3  c1  
hc  hc  hc  n1  c3  c1  hc  hc  hc  n1  c3  c1  hc  hc  hc  n1  c3  c1  hc  hc  
hc  n1  c3  c1  hc  hc  hc  n1  c3  c1  hc  hc  hc  n1  c3  c1  hc  hc  hc  n1  
c3  c1  hc  hc  hc  n1  c3  c1  hc  hc  hc  n1  c3  c1  hc  hc  hc  n1  c3  c1  
hc  hc  hc  n1  c3  c1  hc  hc  hc  n1  c3  c1  hc  hc  hc  n1  c3  c1  hc  hc  
hc  n1  c3  c1  hc  hc  hc  n1  c3  c1  hc  hc  hc  n1  c3  c1  hc  hc  hc  n1  
c3  c1  hc  hc  hc  n1  c3  c1  hc  hc  hc  n1  c3  c1  hc  hc  hc  n1  c3  c1  
hc  hc  hc  n1  c3  c1  hc  hc  hc  n1  c3  c1  hc  hc  hc  n1  c3  c1  hc  hc  
hc  n1  c3  c1  hc  hc  hc  n1  c3  c1  hc  hc  hc  n1  c3  c1  hc  hc  hc  n1  
c3  c1  hc  hc  hc  n1  c3  c1  hc  hc  hc  n1  c3  c1  hc  hc  hc  n1  c3  c1  
hc  hc  hc  n1  c3  c1  hc  hc  hc  n1  c3  c1  hc  hc  hc  n1  c3  c1  hc  hc  
hc  n1  c3  c1  hc  hc  hc  n1  c3  c1  hc  hc  hc  n1  c3  c1  hc  hc  hc  n1  
c3  c1  hc  hc  hc  n1  c3  c1  hc  hc  hc  n1  c3  c1  hc  hc  hc  n1  c3  c1  
hc  hc  hc  n1  c3  c1  hc  hc  hc  n1  c3  c1  hc  hc  hc  n1  c3  c1  hc  hc  
hc  n1  c3  c1  hc  hc  hc  n1  c3  c1  hc  hc  hc  n1  c3  c1  hc  hc  hc  n1  
c3  c1  hc  hc  hc  n1  c3  c1  hc  hc  hc  n1  c3  c1  hc  hc  hc  n1  c3  c1  
hc  hc  hc  n1  c3  c1  hc  hc  hc  n1  c3  c1  hc  hc  hc  n1  c3  c1  hc  hc  
hc  n1  c3  c1  hc  hc  hc  n1  c3  c1  hc  hc  hc  n1  c3  c1  hc  hc  hc  n1  
c3  c1  hc  hc  hc  n1  c3  c1  hc  hc  hc  n1  c3  c1  hc  hc  hc  n1  c3  c1  
hc  hc  hc  n1  c3  c1  hc  hc  hc  n1  c3  c1  hc  hc  hc  n1  c3  c1  hc  hc  
hc  n1  c3  c1  hc  hc  hc  n1  c3  c1  hc  hc  hc  n1  c3  c1  hc  hc  hc  n1  
c3  c1  hc  hc  hc  n1  c3  c1  hc  hc  hc  n1  c3  c1  hc  hc  hc  n1  c3  c1  
hc  hc  hc  n1  c3  c1  hc  hc  hc  n1  c3  c1  hc  hc  hc  n1  c3  c1  hc  hc  
hc  n1  c3  c1  hc  hc  hc  n1  c3  c1  hc  hc  hc  n1  c3  c1  hc  hc  hc  n1  
c3  c1  hc  hc  hc  n1  c3  c1  hc  hc  hc  n1  c3  c1  hc  hc  hc  n1  c3  c1  
hc  hc  hc  n1  c3  c1  hc  hc  hc  n1  c3  c1  hc  hc  hc  n1  c3  c1  hc  hc  
hc  n1  c3  c1  hc  hc  hc  n1  c3  c1  hc  hc  hc  n1  c3  c1  hc  hc  hc  n1  
c3  c1  hc  hc  hc  n1  c3  c1  hc  hc  hc  n1  c3  c1  hc  hc  hc  n1  c3  c1  
hc  hc  hc  n1  c3  c1  hc  hc  hc  n1  c3  c1  hc  hc  hc  n1  c3  c1  hc  hc  
hc  n1  c3  c1  hc  hc  hc  n1  c3  c1  hc  hc  hc  n1  c3  c1  hc  hc  hc  n1  
c3  c1  hc  hc  hc  n1  c3  c1  hc  hc  hc  n1  c3  c1  hc  hc  hc  n1  c3  c1  
hc  hc  hc  n1  c3  c1  hc  hc  hc  n1  c3  c1  hc  hc  hc  n1  c3  c1  hc  hc  
hc  n1  c3  c1  hc  hc  hc  n1  c3  c1  hc  hc  hc  n1  c3  c1  hc  hc  hc  n1  
c3  c1  hc  hc  hc  n1  c3  c1  hc  hc  hc  n1  c3  c1  hc  hc  hc  n1  c3  c1  
hc  hc  hc  n1  c3  c1  hc  hc  hc  n1  c3  c1  hc  hc  hc  n1  c3  c1  hc  hc  
hc  n1  c3  c1  hc  hc  hc  n1  c3  c1  hc  hc  hc  n1  c3  c1  hc  hc  hc  n1  
c3  c1  hc  hc  hc  n1  c3  c1  hc  hc  hc  n1  c3  c1  hc  hc  hc  n1  c3  c1  
hc  hc  hc  n1  c3  c1  hc  hc  hc  n1  c3  c1  hc  hc  hc  n1  c3  c1  hc  hc  
hc  n1  c3  c1  hc  hc  hc  n1  c3  c1  hc  hc  hc  n1  c3  c1  hc  hc  hc  n1  
c3  c1  hc  hc  hc  n1  c3  c1  hc  hc  hc  n1  c3  c1  hc  hc  hc  n1  c3  c1  
hc  hc  hc  n1  c3  c1  hc  hc  hc  n1  c3  c1  hc  hc  hc  n1  c3  c1  hc  hc  
hc  n1  c3  c1  hc  hc  hc  n1  c3  c1  hc  hc  hc  n1  c3  c1  hc  hc  hc  n1  
c3  c1  hc  hc  hc  n1  c3  c1  hc  hc  hc  n1  c3  c1  hc  hc  hc  n1  c3  c1  
hc  hc  hc  n1  c3  c1  hc  hc  hc  n1  c3  c1  hc  hc  hc  n1  c3  c1  hc  hc  
hc  n1  c3  c1  hc  hc  hc  n1  c3  c1  hc  hc  hc  n1  c3  c1  hc  hc  hc  n1  
c3  c1  hc  hc  hc  n1  c3  c1  hc  hc  hc  n1  c3  c1  hc  hc  hc  n1  c3  c1  
hc  hc  hc  n1  c3  c1  hc  hc  hc  n1  c3  c1  hc  hc  hc  n1  c3  c1  hc  hc  
hc  n1  c3  c1  hc  hc  hc  n1  c3  c1  hc  hc  hc  n1  c3  c1  hc  hc  hc  n1  
c3  c1  hc  hc  hc  n1  c3  c1  hc  hc  hc  n1  c3  c1  hc  hc  hc  n1  c3  c1  
hc  hc  hc  n1  c3  c1  hc  hc  hc  n1  c3  c1  hc  hc  hc  n1  c3  c1  hc  hc  
hc  n1  c3  c1  hc  hc  hc  n1  c3  c1  hc  hc  hc  n1  c3  c1  hc  hc  hc  n1  
c3  c1  hc  hc  hc  n1  c3  c1  hc  hc  hc  n1  c3  c1  hc  hc  hc  n1  c3  c1  
hc  hc  hc  n1  c3  c1  hc  hc  hc  n1  c3  c1  hc  hc  hc  n1  c3  c1  hc  hc  
hc  n1  c3  c1  hc  hc  hc  n1  c3  c1  hc  hc  hc  n1  c3  c1  hc  hc  hc  n1  
c3  c1  hc  hc  hc  n1  c3  c1  hc  hc  hc  n1  c3  c1  hc  hc  hc  n1  c3  c1  
hc  hc  hc  n1  c3  c1  hc  hc  hc  n1  c3  c1  hc  hc  hc  n1  c3  c1  hc  hc  
hc  n1  c3  c1  hc  hc  hc  n1  c3  c1  hc  hc  hc  n1  c3  c1  hc  hc  hc  n1  
c3  c1  hc  hc  hc  n1  c3  c1  hc  hc  hc  n1  c3  c1  hc  hc  hc  n1  c3  c1  
hc  hc  hc  n1  c3  c1  hc  hc  hc  n1  c3  c1  hc  hc  hc  n1  c3  c1  hc  hc  
hc  n1  c3  c1  hc  hc  hc  n1  c3  c1  hc  hc  hc  n1  c3  c1  hc  hc  hc  n1  
c3  c1  hc  hc  hc  n1  c3  c1  hc  hc  hc  n1  c3  c1  hc  hc  hc  n1  c3  c1  
hc  hc  hc  n1  c3  c1  hc  hc  hc  n1  c3  c1  hc  hc  hc  n1  c3  c1  hc  hc  
hc  n1  c3  c1  hc  hc  hc  n1  c3  c1  hc  hc  hc  n1  c3  c1  hc  hc  hc  n1  
c3  c1  hc  hc  hc  n1  c3  c1  hc  hc  hc  n1  c3  c1  hc  hc  hc  n1  c3  c1  
hc  hc  hc  n1  c3  c1  hc  hc  hc  n1  c3  c1  hc  hc  hc  n1  c3  c1  hc  hc  
hc  n1  c3  c1  hc  hc  hc  n1  c3  c1  hc  hc  hc  n1  c3  c1  hc  hc  hc  n1  
c3  c1  hc  hc  hc  n1  c3  c1  hc  hc  hc  n1  c3  c1  hc  hc  hc  n1  c3  c1  
hc  hc  hc  n1  c3  c1  hc  hc  hc  n1  c3  c1  hc  hc  hc  n1  c3  c1  hc  hc  
hc  n1  c3  c1  hc  hc  hc  n1  c3  c1  hc  hc  hc  n1  c3  c1  hc  hc  hc  n1  
c3  c1  hc  hc  hc  n1  c3  c1  hc  hc  hc  n1  c3  c1  hc  hc  hc  n1  c3  c1  
hc  hc  hc  n1  c3  c1  hc  hc  hc  n1  c3  c1  hc  hc  hc  n1  c3  c1  hc  hc  
hc  n1  c3  c1  hc  hc  hc  n1  c3  c1  hc  hc  hc  n1  c3  c1  hc  hc  hc  n1  
c3  c1  hc  hc  hc  n1  c3  c1  hc  hc  hc  n1  c3  c1  hc  hc  hc  n1  c3  c1  
hc  hc  hc  n1  c3  c1  hc  hc  hc  n1  c3  c1  hc  hc  hc  n1  c3  c1  hc  hc  
hc  n1  c3  c1  hc  hc  hc  n1  c3  c1  hc  hc  hc  n1  c3  c1  hc  hc  hc  n1  
c3  c1  hc  hc  hc  n1  c3  c1  hc  hc  hc  n1  c3  c1  hc  hc  hc  n1  c3  c1  
hc  hc  hc  n1  c3  c1  hc  hc  hc  n1  c3  c1  hc  hc  hc  n1  c3  c1  hc  hc  
hc  n1  c3  c1  hc  hc  hc  n1  c3  c1  hc  hc  hc  n1  c3  c1  hc  hc  hc  n1  
c3  c1  hc  hc  hc  n1  c3  c1  hc  hc  hc  n1  c3  c1  hc  hc  hc  n1  c3  c1  
hc  hc  hc  n1  c3  c1  hc  hc  hc  n1  c3  c1  hc  hc  hc  n1  c3  c1  hc  hc  
hc  n1  c3  c1  hc  hc  hc  n1  c3  c1  hc  hc  hc  n1  c3  c1  hc  hc  hc  n1  
c3  c1  hc  hc  hc  n1  c3  c1  hc  hc  hc  n1  c3  c1  hc  hc  hc  n1  c3  c1  
hc  hc  hc  n1  c3  c1  hc  hc  hc  n1  c3  c1  hc  hc  hc  n1  c3  c1  hc  hc  
hc  n1  c3  c1  hc  hc  hc  n1  c3  c1  hc  hc  hc  n1  c3  c1  hc  hc  hc  n1  
c3  c1  hc  hc  hc  n1  c3  c1  hc  hc  hc  n1  c3  c1  hc  hc  hc  n1  c3  c1  
hc  hc  hc  n1  c3  c1  hc  hc  hc  n1  c3  c1  hc  hc  hc  n1  c3  c1  hc  hc  
hc  n1  c3  c1  hc  hc  hc  n1  c3  c1  hc  hc  hc  n1  c3  c1  hc  hc  hc  n1  
c3  c1  hc  hc  hc  n1  c3  c1  hc  hc  hc  n1  c3  c1  hc  hc  hc  n1  c3  c1  
hc  hc  hc  n1  c3  c1  hc  hc  hc  n1  c3  c1  hc  hc  hc  n1  c3  c1  hc  hc  
hc  n1  c3  c1  hc  hc  hc  n1  c3  c1  hc  hc  hc  n1  c3  c1  hc  hc  hc  n1  
c3  c1  hc  hc  hc  n1  c3  c1  hc  hc  hc  n1  c3  c1  hc  hc  hc  n1  c3  c1  
hc  hc  hc  n1  c3  c1  hc  hc  hc  n1  c3  c1  hc  hc  hc  n1  c3  c1  hc  hc  
hc  n1  c3  c1  hc  hc  hc  n1  c3  c1  hc  hc  hc  n1  c3  c1  hc  hc  hc  n1  
c3  c1  hc  hc  hc  n1  c3  c1  hc  hc  hc  n1  c3  c1  hc  hc  hc  n1  c3  c1  
hc  hc  hc  n1  c3  c1  hc  hc  hc  n1  c3  c1  hc  hc  hc  n1  c3  c1  hc  hc  
hc  n1  c3  c1  hc  hc  hc  n1  c3  c1  hc  hc  hc  n1  c3  c1  hc  hc  hc  n1  
c3  c1  hc  hc  hc  n1  c3  c1  hc  hc  hc  n1  c3  c1  hc  hc  hc  n1  c3  c1  
hc  hc  hc  n1  c3  c1  hc  hc  hc  n1  c3  c1  hc  hc  hc  n1  c3  c1  hc  hc  
hc  n1  c3  c1  hc  hc  hc  n1  c3  c1  hc  hc  hc  n1  c3  c1  hc  hc  hc  n1  
c3  c1  hc  hc  hc  n1  c3  c1  hc  hc  hc  n1  c3  c1  hc  hc  hc  n1  c3  c1  
hc  hc  hc  n1  c3  c1  hc  hc  hc  n1  c3  c1  hc  hc  hc  n1  c3  c1  hc  hc  
hc  n1  c3  c1  hc  hc  hc  n1  c3  c1  hc  hc  hc  n1  c3  c1  hc  hc  hc  n1  
c3  c1  hc  hc  hc  n1  c3  c1  hc  hc  hc  n1  c3  c1  hc  hc  hc  n1  c3  c1  
hc  hc  hc  n1  c3  c1  hc  hc  hc  n1  c3  c1  hc  hc  hc  n1  c3  c1  hc  hc  
hc  n1  c3  c1  hc  hc  hc  n1  c3  c1  hc  hc  hc  n1  c3  c1  hc  hc  hc  n1  
c3  c1  hc  hc  hc  n1  c3  c1  hc  hc  hc  n1  c3  c1  hc  hc  hc  n1  c3  c1  
hc  hc  hc  n1  c3  c1  hc  hc  hc  n1  c3  c1  hc  hc  hc  n1  c3  c1  hc  hc  
hc  n1  c3  c1  hc  hc  hc  n1  c3  c1  hc  hc  hc  n1  c3  c1  hc  hc  hc  n1  
c3  c1  hc  hc  hc  n1  c3  c1  hc  hc  hc  n1  c3  c1  hc  hc  hc  n1  c3  c1  
hc  hc  hc  n1  c3  c1  hc  hc  hc  n1  c3  c1  hc  hc  hc  n1  c3  c1  hc  hc  
hc  n1  c3  c1  hc  hc  hc  n1  c3  c1  hc  hc  hc  n1  c3  c1  hc  hc  hc  n1  
c3  c1  hc  hc  hc  n1  c3  c1  hc  hc  hc  n1  c3  c1  hc  hc  hc  n1  c3  c1  
hc  hc  hc  n1  c3  c1  hc  hc  hc  n1  c3  c1  hc  hc  hc  n1  c3  c1  hc  hc  
hc  n1  c3  c1  hc  hc  hc  n1  c3  c1  hc  hc  hc  n1  c3  c1  hc  hc  hc  n1  
c3  c1  hc  hc  hc  n1  c3  c1  hc  hc  hc  n1  c3  c1  hc  hc  hc  n1  c3  c1  
hc  hc  hc  n1  c3  c1  hc  hc  hc  n1  c3  c1  hc  hc  hc  n1  c3  c1  hc  hc  
hc  n1  c3  c1  hc  hc  hc  n1  c3  c1  hc  hc  hc  n1  c3  c1  hc  hc  hc  n1  
c3  c1  hc  hc  hc  n1  c3  c1  hc  hc  hc  n1  c3  c1  hc  hc  hc  n1  c3  c1  
hc  hc  hc  n1  c3  c1  hc  hc  hc  n1  c3  c1  hc  hc  hc  n1  c3  c1  hc  hc  
hc  n1  c3  c1  hc  hc  hc  n1  c3  c1  hc  hc  hc  n1  c3  c1  hc  hc  hc  n1  
c3  c1  hc  hc  hc  n1  c3  c1  hc  hc  hc  n1  c3  c1  hc  hc  hc  n1  c3  c1  
hc  hc  hc  n1  c3  c1  hc  hc  hc  n1  c3  c1  hc  hc  hc  n1  c3  c1  hc  hc  
hc  n1  c3  c1  hc  hc  hc  n1  c3  c1  hc  hc  hc  n1  c3  c1  hc  hc  hc  n1  
c3  c1  hc  hc  hc  n1  c3  c1  hc  hc  hc  n1  c3  c1  hc  hc  hc  n1  c3  c1  
hc  hc  hc  n1  c3  c1  hc  hc  hc  n1  c3  c1  hc  hc  hc  n1  c3  c1  hc  hc  
hc  n1  c3  c1  hc  hc  hc  n1  c3  c1  hc  hc  hc  n1  c3  c1  hc  hc  hc  n1  
c3  c1  hc  hc  hc  n1  c3  c1  hc  hc  hc  n1  c3  c1  hc  hc  hc  n1  c3  c1  
hc  hc  hc  n1  c3  c1  hc  hc  hc  n1  c3  c1  hc  hc  hc  n1  c3  c1  hc  hc  
hc  n1  c3  c1  hc  hc  hc  n1  c3  c1  hc  hc  hc  n1  c3  c1  hc  hc  hc  n1  
c3  c1  hc  hc  hc  n1  c3  c1  hc  hc  hc  n1  c3  c1  hc  hc  hc  n1  c3  c1  
hc  hc  hc  n1  c3  c1  hc  hc  hc  n1  c3  c1  hc  hc  hc  n1  c3  c1  hc  hc  
hc  n1  c3  c1  hc  hc  hc  n1  c3  c1  hc  hc  hc  n1  c3  c1  hc  hc  hc  n1  
c3  c1  hc  hc  hc  n1  c3  c1  hc  hc  hc  n1  c3  c1  hc  hc  hc  n1  c3  c1  
hc  hc  hc  n1  c3  c1  hc  hc  hc  n1  c3  c1  hc  hc  hc  n1  c3  c1  hc  hc  
hc  n1  c3  c1  hc  hc  hc  n1  c3  c1  hc  hc  hc  n1  c3  c1  hc  hc  hc  n1  
c3  c1  hc  hc  hc  n1  c3  c1  hc  hc  hc  n1  c3  c1  hc  hc  hc  n1  c3  c1  
hc  hc  hc  n1  c3  c1  hc  hc  hc  n1  c3  c1  hc  hc  hc  n1  c3  c1  hc  hc  
hc  n1  c3  c1  hc  hc  hc  n1  c3  c1  hc  hc  hc  n1  c3  c1  hc  hc  hc  n1  
c3  c1  hc  hc  hc  n1  c3  c1  hc  hc  hc  n1  c3  c1  hc  hc  hc  n1  c3  c1  
hc  hc  hc  n1  c3  c1  hc  hc  hc  n1  c3  c1  hc  hc  hc  n1  c3  c1  hc  hc  
hc  n1  c3  c1  hc  hc  hc  n1  c3  c1  hc  hc  hc  n1  c3  c1  hc  hc  hc  n1  
c3  c1  hc  hc  hc  n1  c3  c1  hc  hc  hc  n1  c3  c1  hc  hc  hc  n1  c3  c1  
hc  hc  hc  n1  c3  c1  hc  hc  hc  n1  c3  c1  hc  hc  hc  n1  c3  c1  hc  hc  
hc  n1  c3  c1  hc  hc  hc  n1  c3  c1  hc  hc  hc  n1  c3  c1  hc  hc  hc  n1  
c3  c1  hc  hc  hc  n1  c3  c1  hc  hc  hc  n1  c3  c1  hc  hc  hc  n1  c3  c1  
hc  hc  hc  n1  c3  c1  hc  hc  hc  n1  c3  c1  hc  hc  hc  n1  c3  c1  hc  hc  
hc  n1  c3  c1  hc  hc  hc  n1  c3  c1  hc  hc  hc  n1  c3  c1  hc  hc  hc  n1  
c3  c1  hc  hc  hc  n1  c3  c1  hc  hc  hc  n1  c3  c1  hc  hc  hc  n1  c3  c1  
hc  hc  hc  n1  c3  c1  hc  hc  hc  n1  c3  c1  hc  hc  hc  n1  c3  c1  hc  hc  
hc  n1  c3  c1  hc  hc  hc  n1  c3  c1  hc  hc  hc  n1  c3  c1  hc  hc  hc  n1  
c3  c1  hc  hc  hc  n1  c3  c1  hc  hc  hc  n1  c3  c1  hc  hc  hc  n1  c3  c1  
hc  hc  hc  n1  c3  c1  hc  hc  hc  n1  c3  c1  hc  hc  hc  n1  c3  c1  hc  hc  
hc  n1  c3  c1  hc  hc  hc  n1  c3  c1  hc  hc  hc  n1  c3  c1  hc  hc  hc  n1  
c3  c1  hc  hc  hc  n1  c3  c1  hc  hc  hc  n1  c3  c1  hc  hc  hc  n1  c3  c1  
hc  hc  hc  n1  c3  c1  hc  hc  hc  n1  c3  c1  hc  hc  hc  n1  c3  c1  hc  hc  
hc  n1  c3  c1  hc  hc  hc  n1  c3  c1  hc  hc  hc  n1  c3  c1  hc  hc  hc  n1  
c3  c1  hc  hc  hc  n1  c3  c1  hc  hc  hc  n1  c3  c1  hc  hc  hc  n1  c3  c1  
hc  hc  hc  n1  c3  c1  hc  hc  hc  n1  c3  c1  hc  hc  hc  n1  c3  c1  hc  hc  
hc  n1  c3  c1  hc  hc  hc  n1  c3  c1  hc  hc  hc  n1  c3  c1  hc  hc  hc  n1  
c3  c1  hc  hc  hc  n1  c3  c1  hc  hc  hc  n1  c3  c1  hc  hc  hc  n1  c3  c1  
hc  hc  hc  n1  c3  c1  hc  hc  hc  n1  c3  c1  hc  hc  hc  n1  c3  c1  hc  hc  
hc  n1  c3  c1  hc  hc  hc  n1  c3  c1  hc  hc  hc  n1  c3  c1  hc  hc  hc  n1  
c3  c1  hc  hc  hc  n1  c3  c1  hc  hc  hc  n1  c3  c1  hc  hc  hc  n1  c3  c1  
hc  hc  hc  n1  c3  c1  hc  hc  hc  n1  c3  c1  hc  hc  hc  n1  c3  c1  hc  hc  
hc  n1  c3  c1  hc  hc  hc  n1  c3  c1  hc  hc  hc  n1  c3  c1  hc  hc  hc  n1  
c3  c1  hc  hc  hc  n1  c3  c1  hc  hc  hc  n1  c3  c1  hc  hc  hc  n1  c3  c1  
hc  hc  hc  n1  c3  c1  hc  hc  hc  n1  c3  c1  hc  hc  hc  n1  c3  c1  hc  hc  
hc  n1  c3  c1  hc  hc  hc  n1  c3  c1  hc  hc  hc  n1  c3  c1  hc  hc  hc  n1  
c3  c1  hc  hc  hc  n1  c3  c1  hc  hc  hc  n1  c3  c1  hc  hc  hc  n1  c3  c1  
hc  hc  hc  n1  c3  c1  hc  hc  hc  n1  c3  c1  hc  hc  hc  n1  c3  c1  hc  hc  
hc  n1  c3  c1  hc  hc  hc  n1  c3  c1  hc  hc  hc  n1  c3  c1  hc  hc  hc  n1  
c3  c1  hc  hc  hc  n1  c3  c1  hc  hc  hc  n1  c3  c1  hc  hc  hc  n1  c3  c1  
hc  hc  hc  n1  c3  c1  hc  hc  hc  n1  c3  c1  hc  hc  hc  n1  c3  c1  hc  hc  
hc  n1  c3  c1  hc  hc  hc  n1  c3  c1  hc  hc  hc  n1  c3  c1  hc  hc  hc  n1  
c3  c1  hc  hc  hc  n1  c3  c1  hc  hc  hc  n1  c3  c1  hc  hc  hc  n1  c3  c1  
hc  hc  hc  n1  c3  c1  hc  hc  hc  n1  c3  c1  hc  hc  hc  n1  c3  c1  hc  hc  
hc  n1  c3  c1  hc  hc  hc  n1  c3  c1  hc  hc  hc  n1  c3  c1  hc  hc  hc  n1  
c3  c1  hc  hc  hc  n1  c3  c1  hc  hc  hc  n1  c3  c1  hc  hc  hc  n1  c3  c1  
hc  hc  hc  n1  c3  c1  hc  hc  hc  n1  c3  c1  hc  hc  hc  n1  c3  c1  hc  hc  
hc  n1  c3  c1  hc  hc  hc  n1  c3  c1  hc  hc  hc  n1  c3  c1  hc  hc  hc  n1  
c3  c1  hc  hc  hc  n1  c3  c1  hc  hc  hc  n1  c3  c1  hc  hc  hc  n1  c3  c1  
hc  hc  hc  n1  c3  c1  hc  hc  hc  n1  c3  c1  hc  hc  hc  n1  c3  c1  hc  hc  
hc  n1  c3  c1  hc  hc  hc  n1  c3  c1  hc  hc  hc  n1  c3  c1  hc  hc  hc  n1  
c3  c1  hc  hc  hc  n1  c3  c1  hc  hc  hc  n1  c3  c1  hc  hc  hc  n1  c3  c1  
hc  hc  hc  n1  c3  c1  hc  hc  hc  n1  c3  c1  hc  hc  hc  n1  c3  c1  hc  hc  
hc  n1  c3  c1  hc  hc  hc  n1  c3  c1  hc  hc  hc  n1  c3  c1  hc  hc  hc  n1  
c3  c1  hc  hc  hc  n1  c3  c1  hc  hc  hc  n1  c3  c1  hc  hc  hc  n1  c3  c1  
hc  hc  hc  n1  c3  c1  hc  hc  hc  n1  c3  c1  hc  hc  hc  n1  c3  c1  hc  hc  
hc  n1  c3  c1  hc  hc  hc  n1  c3  c1  hc  hc  hc  n1  c3  c1  hc  hc  hc  n1  
c3  c1  hc  hc  hc  n1  c3  c1  hc  hc  hc  n1  c3  c1  hc  hc  hc  n1  c3  c1  
hc  hc  hc  n1  c3  c1  hc  hc  hc  n1  c3  c1  hc  hc  hc  n1  c3  c1  hc  hc  
hc  n1  c3  c1  hc  hc  hc  n1  c3  c1  hc  hc  hc  n1  c3  c1  hc  hc  hc  n1  
c3  c1  hc  hc  hc  n1  c3  c1  hc  hc  hc  n1  c3  c1  hc  hc  hc  n1  c3  c1  
hc  hc  hc  n1  c3  c1  hc  hc  hc  n1  c3  c1  hc  hc  hc  n1  c3  c1  hc  hc  
hc  n1  c3  c1  hc  hc  hc  n1  c3  c1  hc  hc  hc  n1  c3  c1  hc  hc  hc  n1  
c3  c1  hc  hc  hc  n1  c3  c1  hc  hc  hc  n1  c3  c1  hc  hc  hc  n1  c3  c1  
hc  hc  hc  n1  c3  c1  hc  hc  hc  n1  c3  c1  hc  hc  hc  n1  c3  c1  hc  hc  
hc  n1  c3  c1  hc  hc  hc  n1  c3  c1  hc  hc  hc  n1  c3  c1  hc  hc  hc  n1  
c3  c1  hc  hc  hc  n1  c3  c1  hc  hc  hc  n1  c3  c1  hc  hc  hc  n1  c3  c1  
hc  hc  hc  n1  c3  c1  hc  hc  hc  n1  c3  c1  hc  hc  hc  n1  c3  c1  hc  hc  
hc  n1  c3  c1  hc  hc  hc  n1  c3  c1  hc  hc  hc  n1  c3  c1  hc  hc  hc  n1  
c3  c1  hc  hc  hc  n1  c3  c1  hc  hc  hc  n1  c3  c1  hc  hc  hc  n1  c3  c1  
hc  hc  hc  n1  c3  c1  hc  hc  hc  n1  c3  c1  hc  hc  hc  n1  c3  c1  hc  hc  
hc  n1  c3  c1  hc  hc  hc  n1  c3  c1  hc  hc  hc  n1  c3  c1  hc  hc  hc  n1  
c3  c1  hc  hc  hc  n1  c3  c1  hc  hc  hc  n1  c3  c1  hc  hc  hc  n1  c3  c1  
hc  hc  hc  n1  c3  c1  hc  hc  hc  n1  c3  c1  hc  hc  hc  n1  c3  c1  hc  hc  
hc  n1  c3  c1  hc  hc  hc  n1  c3  c1  hc  hc  hc  n1  c3  c1  hc  hc  hc  n1  
c3  c1  hc  hc  hc  n1  c3  c1  hc  hc  hc  n1  c3  c1  hc  hc  hc  n1  c3  c1  
hc  hc  hc  n1  c3  c1  hc  hc  hc  n1  c3  c1  hc  hc  hc  n1  c3  c1  hc  hc  
hc  n1  c3  c1  hc  hc  hc  n1  c3  c1  hc  hc  hc  n1  c3  c1  hc  hc  hc  n1  
c3  c1  hc  hc  hc  n1  c3  c1  hc  hc  hc  n1  c3  c1  hc  hc  hc  n1  c3  c1  
hc  hc  hc  n1  c3  c1  hc  hc  hc  n1  c3  c1  hc  hc  hc  n1  c3  c1  hc  hc  
hc  n1  c3  c1  hc  hc  hc  n1  c3  c1  hc  hc  hc  n1  c3  c1  hc  hc  hc  n1  
c3  c1  hc  hc  hc  n1  c3  c1  hc  hc  hc  n1  c3  c1  hc  hc  hc  n1  c3  c1  
hc  hc  hc  n1  c3  c1  hc  hc  hc  n1  c3  c1  hc  hc  hc  n1  c3  c1  hc  hc  
hc  n1  c3  c1  hc  hc  hc  n1  c3  c1  hc  hc  hc  n1  c3  c1  hc  hc  hc  n1  
c3  c1  hc  hc  hc  n1  c3  c1  hc  hc  hc  n1  c3  c1  hc  hc  hc  n1  c3  c1  
hc  hc  hc  n1  c3  c1  hc  hc  hc  n1  c3  c1  hc  hc  hc  n1  c3  c1  hc  hc  
hc  n1  c3  c1  hc  hc  hc  n1  c3  c1  hc  hc  hc  n1  c3  c1  hc  hc  hc  n1  
c3  c1  hc  hc  hc  n1  c3  c1  hc  hc  hc  n1  c3  c1  hc  hc  hc  n1  c3  c1  
hc  hc  hc  n1  c3  c1  hc  hc  hc  n1  c3  c1  hc  hc  hc  n1  c3  c1  hc  hc  
hc  n1  c3  c1  hc  hc  hc  n1  c3  c1  hc  hc  hc  n1  c3  c1  hc  hc  hc  n1  
c3  c1  hc  hc  hc  n1  c3  c1  hc  hc  hc  n1  c3  c1  hc  hc  hc  n1  c3  c1  
hc  hc  hc  n1  c3  c1  hc  hc  hc  n1  c3  c1  hc  hc  hc  n1  c3  c1  hc  hc  
hc  n1  c3  c1  hc  hc  hc  n1  c3  c1  hc  hc  hc  n1  c3  c1  hc  hc  hc  n1  
c3  c1  hc  hc  hc  n1  c3  c1  hc  hc  hc  n1  c3  c1  hc  hc  hc  n1  c3  c1  
hc  hc  hc  n1  c3  c1  hc  hc  hc  n1  c3  c1  hc  hc  hc  n1  c3  c1  hc  hc  
hc  n1  c3  c1  hc  hc  hc  n1  c3  c1  hc  hc  hc  n1  c3  c1  hc  hc  hc  n1  
c3  c1  hc  hc  hc  n1  c3  c1  hc  hc  hc  n1  c3  c1  hc  hc  hc  n1  c3  c1  
hc  hc  hc  n1  c3  c1  hc  hc  hc  n1  c3  c1  hc  hc  hc  n1  c3  c1  hc  hc  
hc  n1  c3  c1  hc  hc  hc  n1  c3  c1  hc  hc  hc  n1  c3  c1  hc  hc  hc  n1  
c3  c1  hc  hc  hc  n1  c3  c1  hc  hc  hc  n1  c3  c1  hc  hc  hc  n1  c3  c1  
hc  hc  hc  n1  c3  c1  hc  hc  hc  n1  c3  c1  hc  hc  hc  n1  c3  c1  hc  hc  
hc  n1  c3  c1  hc  hc  hc  n1  c3  c1  hc  hc  hc  n1  c3  c1  hc  hc  hc  n1  
c3  c1  hc  hc  hc  n1  c3  c1  hc  hc  hc  n1  c3  c1  hc  hc  hc  n1  c3  c1  
hc  hc  hc  n1  c3  c1  hc  hc  hc  n1  c3  c1  hc  hc  hc  n1  c3  c1  hc  hc  
hc  n1  c3  c1  hc  hc  hc  n1  c3  c1  hc  hc  hc  n1  c3  c1  hc  hc  hc  n1  
c3  c1  hc  hc  hc  n1  c3  c1  hc  hc  hc  n1  c3  c1  hc  hc  hc  
%FLAG TREE_CHAIN_CLASSIFICATION                                                 
%FORMAT(20a4)                                                                   
BLA BLA BLA BLA BLA BLA BLA BLA BLA BLA BLA BLA BLA BLA BLA BLA BLA BLA BLA BLA 
BLA BLA BLA BLA BLA BLA BLA BLA BLA BLA BLA BLA BLA BLA BLA BLA BLA BLA BLA BLA 
BLA BLA BLA BLA BLA BLA BLA BLA BLA BLA BLA BLA BLA BLA BLA BLA BLA BLA BLA BLA 
BLA BLA BLA BLA BLA BLA BLA BLA BLA BLA BLA BLA BLA BLA BLA BLA BLA BLA BLA BLA 
BLA BLA BLA BLA BLA BLA BLA BLA BLA BLA BLA BLA BLA BLA BLA BLA BLA BLA BLA BLA 
BLA BLA BLA BLA BLA BLA BLA BLA BLA BLA BLA BLA BLA BLA BLA BLA BLA BLA BLA BLA 
BLA BLA BLA BLA BLA BLA BLA BLA BLA BLA BLA BLA BLA BLA BLA BLA BLA BLA BLA BLA 
BLA BLA BLA BLA BLA BLA BLA BLA BLA BLA BLA BLA BLA BLA BLA BLA BLA BLA BLA BLA 
BLA BLA BLA BLA BLA BLA BLA BLA BLA BLA BLA BLA BLA BLA BLA BLA BLA BLA BLA BLA 
BLA BLA BLA BLA BLA BLA BLA BLA BLA BLA BLA BLA BLA BLA BLA BLA BLA BLA BLA BLA 
BLA BLA BLA BLA BLA BLA BLA BLA BLA BLA BLA BLA BLA BLA BLA BLA BLA BLA BLA BLA 
BLA BLA BLA BLA BLA BLA BLA BLA BLA BLA BLA BLA BLA BLA BLA BLA BLA BLA BLA BLA 
BLA BLA BLA BLA BLA BLA BLA BLA BLA BLA BLA BLA BLA BLA BLA BLA BLA BLA BLA BLA 
BLA BLA BLA BLA BLA BLA BLA BLA BLA BLA BLA BLA BLA BLA BLA BLA BLA BLA BLA BLA 
BLA BLA BLA BLA BLA BLA BLA BLA BLA BLA BLA BLA BLA BLA BLA BLA BLA BLA BLA BLA 
BLA BLA BLA BLA BLA BLA BLA BLA BLA BLA BLA BLA BLA BLA BLA BLA BLA BLA BLA BLA 
BLA BLA BLA BLA BLA BLA BLA BLA BLA BLA BLA BLA BLA BLA BLA BLA BLA BLA BLA BLA 
BLA BLA BLA BLA BLA BLA BLA BLA BLA BLA BLA BLA BLA BLA BLA BLA BLA BLA BLA BLA 
BLA BLA BLA BLA BLA BLA BLA BLA BLA BLA BLA BLA BLA BLA BLA BLA BLA BLA BLA BLA 
BLA BLA BLA BLA BLA BLA BLA BLA BLA BLA BLA BLA BLA BLA BLA BLA BLA BLA BLA BLA 
BLA BLA BLA BLA BLA BLA BLA BLA BLA BLA BLA BLA BLA BLA BLA BLA BLA BLA BLA BLA 
BLA BLA BLA BLA BLA BLA BLA BLA BLA BLA BLA BLA BLA BLA BLA BLA BLA BLA BLA BLA 
BLA BLA BLA BLA BLA BLA BLA BLA BLA BLA BLA BLA BLA BLA BLA BLA BLA BLA BLA BLA 
BLA BLA BLA BLA BLA BLA BLA BLA BLA BLA BLA BLA BLA BLA BLA BLA BLA BLA BLA BLA 
BLA BLA BLA BLA BLA BLA BLA BLA BLA BLA BLA BLA BLA BLA BLA BLA BLA BLA BLA BLA 
BLA BLA BLA BLA BLA BLA BLA BLA BLA BLA BLA BLA BLA BLA BLA BLA BLA BLA BLA BLA 
BLA BLA BLA BLA BLA BLA BLA BLA BLA BLA BLA BLA BLA BLA BLA BLA BLA BLA BLA BLA 
BLA BLA BLA BLA BLA BLA BLA BLA BLA BLA BLA BLA BLA BLA BLA BLA BLA BLA BLA BLA 
BLA BLA BLA BLA BLA BLA BLA BLA BLA BLA BLA BLA BLA BLA BLA BLA BLA BLA BLA BLA 
BLA BLA BLA BLA BLA BLA BLA BLA BLA BLA BLA BLA BLA BLA BLA BLA BLA BLA BLA BLA 
BLA BLA BLA BLA BLA BLA BLA BLA BLA BLA BLA BLA BLA BLA BLA BLA BLA BLA BLA BLA 
BLA BLA BLA BLA BLA BLA BLA BLA BLA BLA BLA BLA BLA BLA BLA BLA BLA BLA BLA BLA 
BLA BLA BLA BLA BLA BLA BLA BLA BLA BLA BLA BLA BLA BLA BLA BLA BLA BLA BLA BLA 
BLA BLA BLA BLA BLA BLA BLA BLA BLA BLA BLA BLA BLA BLA BLA BLA BLA BLA BLA BLA 
BLA BLA BLA BLA BLA BLA BLA BLA BLA BLA BLA BLA BLA BLA BLA BLA BLA BLA BLA BLA 
BLA BLA BLA BLA BLA BLA BLA BLA BLA BLA BLA BLA BLA BLA BLA BLA BLA BLA BLA BLA 
BLA BLA BLA BLA BLA BLA BLA BLA BLA BLA BLA BLA BLA BLA BLA BLA BLA BLA BLA BLA 
BLA BLA BLA BLA BLA BLA BLA BLA BLA BLA BLA BLA BLA BLA BLA BLA BLA BLA BLA BLA 
BLA BLA BLA BLA BLA BLA BLA BLA BLA BLA BLA BLA BLA BLA BLA BLA BLA BLA BLA BLA 
BLA BLA BLA BLA BLA BLA BLA BLA BLA BLA BLA BLA BLA BLA BLA BLA BLA BLA BLA BLA 
BLA BLA BLA BLA BLA BLA BLA BLA BLA BLA BLA BLA BLA BLA BLA BLA BLA BLA BLA BLA 
BLA BLA BLA BLA BLA BLA BLA BLA BLA BLA BLA BLA BLA BLA BLA BLA BLA BLA BLA BLA 
BLA BLA BLA BLA BLA BLA BLA BLA BLA BLA BLA BLA BLA BLA BLA BLA BLA BLA BLA BLA 
BLA BLA BLA BLA BLA BLA BLA BLA BLA BLA BLA BLA BLA BLA BLA BLA BLA BLA BLA BLA 
BLA BLA BLA BLA BLA BLA BLA BLA BLA BLA BLA BLA BLA BLA BLA BLA BLA BLA BLA BLA 
BLA BLA BLA BLA BLA BLA BLA BLA BLA BLA BLA BLA BLA BLA BLA BLA BLA BLA BLA BLA 
BLA BLA BLA BLA BLA BLA BLA BLA BLA BLA BLA BLA BLA BLA BLA BLA BLA BLA BLA BLA 
BLA BLA BLA BLA BLA BLA BLA BLA BLA BLA BLA BLA BLA BLA BLA BLA BLA BLA BLA BLA 
BLA BLA BLA BLA BLA BLA BLA BLA BLA BLA BLA BLA BLA BLA BLA BLA BLA BLA BLA BLA 
BLA BLA BLA BLA BLA BLA BLA BLA BLA BLA BLA BLA BLA BLA BLA BLA BLA BLA BLA BLA 
BLA BLA BLA BLA BLA BLA BLA BLA BLA BLA BLA BLA BLA BLA BLA BLA BLA BLA BLA BLA 
BLA BLA BLA BLA BLA BLA BLA BLA BLA BLA BLA BLA BLA BLA BLA BLA BLA BLA BLA BLA 
BLA BLA BLA BLA BLA BLA BLA BLA BLA BLA BLA BLA BLA BLA BLA BLA BLA BLA BLA BLA 
BLA BLA BLA BLA BLA BLA BLA BLA BLA BLA BLA BLA BLA BLA BLA BLA BLA BLA BLA BLA 
BLA BLA BLA BLA BLA BLA BLA BLA BLA BLA BLA BLA BLA BLA BLA BLA BLA BLA BLA BLA 
BLA BLA BLA BLA BLA BLA BLA BLA BLA BLA BLA BLA BLA BLA BLA BLA BLA BLA BLA BLA 
BLA BLA BLA BLA BLA BLA BLA BLA BLA BLA BLA BLA BLA BLA BLA BLA BLA BLA BLA BLA 
BLA BLA BLA BLA BLA BLA BLA BLA BLA BLA BLA BLA BLA BLA BLA BLA BLA BLA BLA BLA 
BLA BLA BLA BLA BLA BLA BLA BLA BLA BLA BLA BLA BLA BLA BLA BLA BLA BLA BLA BLA 
BLA BLA BLA BLA BLA BLA BLA BLA BLA BLA BLA BLA BLA BLA BLA BLA BLA BLA BLA BLA 
BLA BLA BLA BLA BLA BLA BLA BLA BLA BLA BLA BLA BLA BLA BLA BLA BLA BLA BLA BLA 
BLA BLA BLA BLA BLA BLA BLA BLA BLA BLA BLA BLA BLA BLA BLA BLA BLA BLA BLA BLA 
BLA BLA BLA BLA BLA BLA BLA BLA BLA BLA BLA BLA BLA BLA BLA BLA BLA BLA BLA BLA 
BLA BLA BLA BLA BLA BLA BLA BLA BLA BLA BLA BLA BLA BLA BLA BLA BLA BLA BLA BLA 
BLA BLA BLA BLA BLA BLA BLA BLA BLA BLA BLA BLA BLA BLA BLA BLA BLA BLA BLA BLA 
BLA BLA BLA BLA BLA BLA BLA BLA BLA BLA BLA BLA BLA BLA BLA BLA BLA BLA BLA BLA 
BLA BLA BLA BLA BLA BLA BLA BLA BLA BLA BLA BLA BLA BLA BLA BLA BLA BLA BLA BLA 
BLA BLA BLA BLA BLA BLA BLA BLA BLA BLA BLA BLA BLA BLA BLA BLA BLA BLA BLA BLA 
BLA BLA BLA BLA BLA BLA BLA BLA BLA BLA BLA BLA BLA BLA BLA BLA BLA BLA BLA BLA 
BLA BLA BLA BLA BLA BLA BLA BLA BLA BLA BLA BLA BLA BLA BLA BLA BLA BLA BLA BLA 
BLA BLA BLA BLA BLA BLA BLA BLA BLA BLA BLA BLA BLA BLA BLA BLA BLA BLA BLA BLA 
BLA BLA BLA BLA BLA BLA BLA BLA BLA BLA BLA BLA BLA BLA BLA BLA BLA BLA BLA BLA 
BLA BLA BLA BLA BLA BLA BLA BLA BLA BLA BLA BLA BLA BLA BLA BLA BLA BLA BLA BLA 
BLA BLA BLA BLA BLA BLA BLA BLA BLA BLA BLA BLA BLA BLA BLA BLA BLA BLA BLA BLA 
BLA BLA BLA BLA BLA BLA BLA BLA BLA BLA BLA BLA BLA BLA BLA BLA BLA BLA BLA BLA 
BLA BLA BLA BLA BLA BLA BLA BLA BLA BLA BLA BLA BLA BLA BLA BLA BLA BLA BLA BLA 
BLA BLA BLA BLA BLA BLA BLA BLA BLA BLA BLA BLA BLA BLA BLA BLA BLA BLA BLA BLA 
BLA BLA BLA BLA BLA BLA BLA BLA BLA BLA BLA BLA BLA BLA BLA BLA BLA BLA BLA BLA 
BLA BLA BLA BLA BLA BLA BLA BLA BLA BLA BLA BLA BLA BLA BLA BLA BLA BLA BLA BLA 
BLA BLA BLA BLA BLA BLA BLA BLA BLA BLA BLA BLA BLA BLA BLA BLA BLA BLA BLA BLA 
BLA BLA BLA BLA BLA BLA BLA BLA BLA BLA BLA BLA BLA BLA BLA BLA BLA BLA BLA BLA 
BLA BLA BLA BLA BLA BLA BLA BLA BLA BLA BLA BLA BLA BLA BLA BLA BLA BLA BLA BLA 
BLA BLA BLA BLA BLA BLA BLA BLA BLA BLA BLA BLA BLA BLA BLA BLA BLA BLA BLA BLA 
BLA BLA BLA BLA BLA BLA BLA BLA BLA BLA BLA BLA BLA BLA BLA BLA BLA BLA BLA BLA 
BLA BLA BLA BLA BLA BLA BLA BLA BLA BLA BLA BLA BLA BLA BLA BLA BLA BLA BLA BLA 
BLA BLA BLA BLA BLA BLA BLA BLA BLA BLA BLA BLA BLA BLA BLA BLA BLA BLA BLA BLA 
BLA BLA BLA BLA BLA BLA BLA BLA BLA BLA BLA BLA BLA BLA BLA BLA BLA BLA BLA BLA 
BLA BLA BLA BLA BLA BLA BLA BLA BLA BLA BLA BLA BLA BLA BLA BLA BLA BLA BLA BLA 
BLA BLA BLA BLA BLA BLA BLA BLA BLA BLA BLA BLA BLA BLA BLA BLA BLA BLA BLA BLA 
BLA BLA BLA BLA BLA BLA BLA BLA BLA BLA BLA BLA BLA BLA BLA BLA BLA BLA BLA BLA 
BLA BLA BLA BLA BLA BLA BLA BLA BLA BLA BLA BLA BLA BLA BLA BLA BLA BLA BLA BLA 
BLA BLA BLA BLA BLA BLA BLA BLA BLA BLA BLA BLA BLA BLA BLA BLA BLA BLA BLA BLA 
BLA BLA BLA BLA BLA BLA BLA BLA BLA BLA BLA BLA BLA BLA BLA BLA BLA BLA BLA BLA 
BLA BLA BLA BLA BLA BLA BLA BLA BLA BLA BLA BLA BLA BLA BLA BLA BLA BLA BLA BLA 
BLA BLA BLA BLA BLA BLA BLA BLA BLA BLA BLA BLA BLA BLA BLA BLA BLA BLA BLA BLA 
BLA BLA BLA BLA BLA BLA BLA BLA BLA BLA BLA BLA BLA BLA BLA BLA BLA BLA BLA BLA 
BLA BLA BLA BLA BLA BLA BLA BLA BLA BLA BLA BLA BLA BLA BLA BLA BLA BLA BLA BLA 
BLA BLA BLA BLA BLA BLA BLA BLA BLA BLA BLA BLA BLA BLA BLA BLA BLA BLA BLA BLA 
BLA BLA BLA BLA BLA BLA BLA BLA BLA BLA BLA BLA BLA BLA BLA BLA BLA BLA BLA BLA 
BLA BLA BLA BLA BLA BLA BLA BLA BLA BLA BLA BLA BLA BLA BLA BLA BLA BLA BLA BLA 
BLA BLA BLA BLA BLA BLA BLA BLA BLA BLA BLA BLA BLA BLA BLA BLA BLA BLA BLA BLA 
BLA BLA BLA BLA BLA BLA BLA BLA BLA BLA BLA BLA BLA BLA BLA BLA BLA BLA BLA BLA 
BLA BLA BLA BLA BLA BLA BLA BLA BLA BLA BLA BLA BLA BLA BLA BLA BLA BLA BLA BLA 
BLA BLA BLA BLA BLA BLA BLA BLA BLA BLA BLA BLA BLA BLA BLA BLA BLA BLA BLA BLA 
BLA BLA BLA BLA BLA BLA BLA BLA BLA BLA BLA BLA BLA BLA BLA BLA BLA BLA BLA BLA 
BLA BLA BLA BLA BLA BLA BLA BLA BLA BLA BLA BLA BLA BLA BLA BLA BLA BLA BLA BLA 
BLA BLA BLA BLA BLA BLA BLA BLA BLA BLA BLA BLA BLA BLA BLA BLA BLA BLA BLA BLA 
BLA BLA BLA BLA BLA BLA BLA BLA BLA BLA BLA BLA BLA BLA BLA BLA BLA BLA BLA BLA 
BLA BLA BLA BLA BLA BLA BLA BLA BLA BLA BLA BLA BLA BLA BLA BLA BLA BLA BLA BLA 
BLA BLA BLA BLA BLA BLA BLA BLA BLA BLA BLA BLA BLA BLA BLA BLA BLA BLA BLA BLA 
BLA BLA BLA BLA BLA BLA BLA BLA BLA BLA BLA BLA BLA BLA BLA BLA BLA BLA BLA BLA 
BLA BLA BLA BLA BLA BLA BLA BLA BLA BLA BLA BLA BLA BLA BLA BLA BLA BLA BLA BLA 
BLA BLA BLA BLA BLA BLA BLA BLA BLA BLA BLA BLA BLA BLA BLA BLA BLA BLA BLA BLA 
BLA BLA BLA BLA BLA BLA BLA BLA BLA BLA BLA BLA BLA BLA BLA BLA BLA BLA BLA BLA 
BLA BLA BLA BLA BLA BLA BLA BLA BLA BLA BLA BLA BLA BLA BLA BLA BLA BLA BLA BLA 
BLA BLA BLA BLA BLA BLA BLA BLA BLA BLA BLA BLA BLA BLA BLA BLA BLA BLA BLA BLA 
BLA BLA BLA BLA BLA BLA BLA BLA BLA BLA BLA BLA BLA BLA BLA BLA BLA BLA BLA BLA 
BLA BLA BLA BLA BLA BLA BLA BLA BLA BLA BLA BLA BLA BLA BLA BLA BLA BLA BLA BLA 
BLA BLA BLA BLA BLA BLA BLA BLA BLA BLA BLA BLA BLA BLA BLA BLA BLA BLA BLA BLA 
BLA BLA BLA BLA BLA BLA BLA BLA BLA BLA BLA BLA BLA BLA BLA BLA BLA BLA BLA BLA 
BLA BLA BLA BLA BLA BLA BLA BLA BLA BLA BLA BLA BLA BLA BLA BLA BLA BLA BLA BLA 
BLA BLA BLA BLA BLA BLA BLA BLA BLA BLA BLA BLA BLA BLA BLA BLA BLA BLA BLA BLA 
BLA BLA BLA BLA BLA BLA BLA BLA BLA BLA BLA BLA BLA BLA BLA BLA BLA BLA BLA BLA 
BLA BLA BLA BLA BLA BLA BLA BLA BLA BLA BLA BLA BLA BLA BLA BLA BLA BLA BLA BLA 
BLA BLA BLA BLA BLA BLA BLA BLA BLA BLA BLA BLA BLA BLA BLA BLA BLA BLA BLA BLA 
BLA BLA BLA BLA BLA BLA BLA BLA BLA BLA BLA BLA BLA BLA BLA BLA BLA BLA BLA BLA 
BLA BLA BLA BLA BLA BLA BLA BLA BLA BLA BLA BLA BLA BLA BLA BLA BLA BLA BLA BLA 
BLA BLA BLA BLA BLA BLA BLA BLA BLA BLA BLA BLA BLA BLA BLA BLA BLA BLA BLA BLA 
BLA BLA BLA BLA BLA BLA BLA BLA BLA BLA BLA BLA BLA BLA BLA BLA BLA BLA BLA BLA 
BLA BLA BLA BLA BLA BLA BLA BLA BLA BLA BLA BLA BLA BLA BLA BLA BLA BLA BLA BLA 
BLA BLA BLA BLA BLA BLA BLA BLA BLA BLA BLA BLA BLA BLA BLA BLA BLA BLA BLA BLA 
BLA BLA BLA BLA BLA BLA BLA BLA BLA BLA BLA BLA BLA BLA BLA BLA BLA BLA BLA BLA 
BLA BLA BLA BLA BLA BLA BLA BLA BLA BLA BLA BLA BLA BLA BLA BLA BLA BLA BLA BLA 
BLA BLA BLA BLA BLA BLA BLA BLA BLA BLA BLA BLA BLA BLA BLA BLA BLA BLA BLA BLA 
BLA BLA BLA BLA BLA BLA BLA BLA BLA BLA BLA BLA BLA BLA BLA BLA BLA BLA BLA BLA 
BLA BLA BLA BLA BLA BLA BLA BLA BLA BLA BLA BLA BLA BLA BLA BLA BLA BLA BLA BLA 
BLA BLA BLA BLA BLA BLA BLA BLA BLA BLA BLA BLA BLA BLA BLA BLA BLA BLA BLA BLA 
BLA BLA BLA BLA BLA BLA BLA BLA BLA BLA BLA BLA BLA BLA BLA BLA BLA BLA BLA BLA 
BLA BLA BLA BLA BLA BLA BLA BLA BLA BLA BLA BLA BLA BLA BLA BLA BLA BLA BLA BLA 
BLA BLA BLA BLA BLA BLA BLA BLA BLA BLA BLA BLA BLA BLA BLA BLA BLA BLA BLA BLA 
BLA BLA BLA BLA BLA BLA BLA BLA BLA BLA BLA BLA BLA BLA BLA BLA BLA BLA BLA BLA 
BLA BLA BLA BLA BLA BLA BLA BLA BLA BLA BLA BLA BLA BLA BLA BLA BLA BLA BLA BLA 
BLA BLA BLA BLA BLA BLA BLA BLA BLA BLA BLA BLA BLA BLA BLA BLA BLA BLA BLA BLA 
BLA BLA BLA BLA BLA BLA BLA BLA BLA BLA BLA BLA BLA BLA BLA BLA BLA BLA BLA BLA 
BLA BLA BLA BLA BLA BLA BLA BLA BLA BLA BLA BLA BLA BLA BLA BLA BLA BLA BLA BLA 
BLA BLA BLA BLA BLA BLA BLA BLA BLA BLA BLA BLA BLA BLA BLA BLA BLA BLA BLA BLA 
BLA BLA BLA BLA BLA BLA BLA BLA BLA BLA BLA BLA BLA BLA BLA BLA BLA BLA BLA BLA 
BLA BLA BLA BLA BLA BLA BLA BLA BLA BLA BLA BLA BLA BLA BLA BLA BLA BLA BLA BLA 
BLA BLA BLA BLA BLA BLA BLA BLA BLA BLA BLA BLA BLA BLA BLA BLA BLA BLA BLA BLA 
BLA BLA BLA BLA BLA BLA BLA BLA BLA BLA BLA BLA BLA BLA BLA BLA BLA BLA BLA BLA 
BLA BLA BLA BLA BLA BLA BLA BLA BLA BLA BLA BLA BLA BLA BLA BLA BLA BLA BLA BLA 
BLA BLA BLA BLA BLA BLA BLA BLA BLA BLA BLA BLA BLA BLA BLA BLA BLA BLA BLA BLA 
BLA BLA BLA BLA BLA BLA BLA BLA BLA BLA BLA BLA BLA BLA BLA BLA BLA BLA BLA BLA 
BLA BLA BLA BLA BLA BLA BLA BLA BLA BLA BLA BLA BLA BLA BLA BLA BLA BLA BLA BLA 
BLA BLA BLA BLA BLA BLA BLA BLA BLA BLA BLA BLA BLA BLA BLA BLA BLA BLA BLA BLA 
BLA BLA BLA BLA BLA BLA BLA BLA BLA BLA BLA BLA BLA BLA BLA BLA BLA BLA BLA BLA 
BLA BLA BLA BLA BLA BLA BLA BLA BLA BLA BLA BLA BLA BLA BLA BLA BLA BLA BLA BLA 
BLA BLA BLA BLA BLA BLA BLA BLA BLA BLA BLA BLA BLA BLA BLA BLA BLA BLA BLA BLA 
BLA BLA BLA BLA BLA BLA BLA BLA BLA BLA BLA BLA BLA BLA BLA BLA BLA BLA BLA BLA 
BLA BLA BLA BLA BLA BLA BLA BLA BLA BLA BLA BLA BLA BLA BLA BLA BLA BLA BLA BLA 
BLA BLA BLA BLA BLA BLA BLA BLA BLA BLA BLA BLA BLA BLA BLA BLA BLA BLA BLA BLA 
BLA BLA BLA BLA BLA BLA BLA BLA BLA BLA BLA BLA BLA BLA BLA BLA BLA BLA BLA BLA 
BLA BLA BLA BLA BLA BLA BLA BLA BLA BLA BLA BLA BLA BLA BLA BLA BLA BLA BLA BLA 
BLA BLA BLA BLA BLA BLA BLA BLA BLA BLA BLA BLA BLA BLA BLA BLA BLA BLA BLA BLA 
BLA BLA BLA BLA BLA BLA BLA BLA BLA BLA BLA BLA BLA BLA BLA BLA BLA BLA BLA BLA 
BLA BLA BLA BLA BLA BLA BLA BLA BLA BLA BLA BLA BLA BLA BLA BLA BLA BLA BLA BLA 
BLA BLA BLA BLA BLA BLA BLA BLA BLA BLA BLA BLA BLA BLA BLA BLA BLA BLA BLA BLA 
BLA BLA BLA BLA BLA BLA BLA BLA BLA BLA BLA BLA BLA BLA BLA BLA BLA BLA BLA BLA 
BLA BLA BLA BLA BLA BLA BLA BLA BLA BLA BLA BLA BLA BLA BLA BLA BLA BLA BLA BLA 
BLA BLA BLA BLA BLA BLA BLA BLA BLA BLA BLA BLA BLA BLA BLA BLA BLA BLA BLA BLA 
BLA BLA BLA BLA BLA BLA BLA BLA BLA BLA BLA BLA BLA BLA BLA BLA BLA BLA BLA BLA 
BLA BLA BLA BLA BLA BLA BLA BLA BLA BLA BLA BLA BLA BLA BLA BLA BLA BLA BLA BLA 
BLA BLA BLA BLA BLA BLA BLA BLA BLA BLA BLA BLA BLA BLA BLA BLA BLA BLA BLA BLA 
BLA BLA BLA BLA BLA BLA BLA BLA BLA BLA BLA BLA BLA BLA BLA BLA BLA BLA BLA BLA 
BLA BLA BLA BLA BLA BLA BLA BLA BLA BLA BLA BLA BLA BLA BLA BLA BLA BLA BLA BLA 
BLA BLA BLA BLA BLA BLA BLA BLA BLA BLA BLA BLA BLA BLA BLA BLA BLA BLA BLA BLA 
BLA BLA BLA BLA BLA BLA BLA BLA BLA BLA BLA BLA BLA BLA BLA BLA BLA BLA BLA BLA 
BLA BLA BLA BLA BLA BLA BLA BLA BLA BLA BLA BLA BLA BLA BLA BLA BLA BLA BLA BLA 
BLA BLA BLA BLA BLA BLA BLA BLA BLA BLA BLA BLA BLA BLA BLA BLA BLA BLA BLA BLA 
BLA BLA BLA BLA BLA BLA BLA BLA BLA BLA BLA BLA BLA BLA BLA BLA BLA BLA BLA BLA 
BLA BLA BLA BLA BLA BLA BLA BLA BLA BLA BLA BLA BLA BLA BLA BLA BLA BLA BLA BLA 
BLA BLA BLA BLA BLA BLA BLA BLA BLA BLA BLA BLA BLA BLA BLA BLA BLA BLA BLA BLA 
BLA BLA BLA BLA BLA BLA BLA BLA BLA BLA BLA BLA BLA BLA BLA BLA BLA BLA BLA BLA 
BLA BLA BLA BLA BLA BLA BLA BLA BLA BLA BLA BLA BLA BLA BLA BLA BLA BLA BLA BLA 
BLA BLA BLA BLA BLA BLA BLA BLA BLA BLA BLA BLA BLA BLA BLA BLA BLA BLA BLA BLA 
BLA BLA BLA BLA BLA BLA BLA BLA BLA BLA BLA BLA BLA BLA BLA BLA BLA BLA BLA BLA 
BLA BLA BLA BLA BLA BLA BLA BLA BLA BLA BLA BLA BLA BLA BLA BLA BLA BLA BLA BLA 
BLA BLA BLA BLA BLA BLA BLA BLA BLA BLA BLA BLA BLA BLA BLA BLA BLA BLA BLA BLA 
BLA BLA BLA BLA BLA BLA BLA BLA BLA BLA BLA BLA BLA BLA BLA BLA BLA BLA BLA BLA 
BLA BLA BLA BLA BLA BLA BLA BLA BLA BLA BLA BLA BLA BLA BLA BLA BLA BLA BLA BLA 
BLA BLA BLA BLA BLA BLA BLA BLA BLA BLA BLA BLA BLA BLA BLA BLA BLA BLA BLA BLA 
BLA BLA BLA BLA BLA BLA BLA BLA BLA BLA BLA BLA BLA BLA BLA BLA BLA BLA BLA BLA 
BLA BLA BLA BLA BLA BLA BLA BLA BLA BLA BLA BLA BLA BLA BLA BLA BLA BLA BLA BLA 
BLA BLA BLA BLA BLA BLA BLA BLA BLA BLA BLA BLA BLA BLA BLA BLA BLA BLA BLA BLA 
BLA BLA BLA BLA BLA BLA BLA BLA BLA BLA BLA BLA BLA BLA BLA BLA BLA BLA BLA BLA 
BLA BLA BLA BLA BLA BLA BLA BLA BLA BLA BLA BLA BLA BLA BLA BLA BLA BLA BLA BLA 
BLA BLA BLA BLA BLA BLA BLA BLA BLA BLA BLA BLA BLA BLA BLA BLA BLA BLA BLA BLA 
BLA BLA BLA BLA BLA BLA BLA BLA BLA BLA BLA BLA BLA BLA BLA BLA BLA BLA BLA BLA 
BLA BLA BLA BLA BLA BLA BLA BLA BLA BLA BLA BLA BLA BLA BLA BLA BLA BLA BLA BLA 
BLA BLA BLA BLA BLA BLA BLA BLA BLA BLA BLA BLA BLA BLA BLA BLA BLA BLA BLA BLA 
BLA BLA BLA BLA BLA BLA BLA BLA BLA BLA BLA BLA BLA BLA BLA BLA BLA BLA BLA BLA 
BLA BLA BLA BLA BLA BLA BLA BLA BLA BLA BLA BLA BLA BLA BLA BLA BLA BLA BLA BLA 
BLA BLA BLA BLA BLA BLA BLA BLA BLA BLA BLA BLA BLA BLA BLA BLA BLA BLA BLA BLA 
BLA BLA BLA BLA BLA BLA BLA BLA BLA BLA BLA BLA BLA BLA BLA BLA BLA BLA BLA BLA 
BLA BLA BLA BLA BLA BLA BLA BLA BLA BLA BLA BLA BLA BLA BLA BLA BLA BLA BLA BLA 
BLA BLA BLA BLA BLA BLA BLA BLA BLA BLA BLA BLA BLA BLA BLA BLA BLA BLA BLA BLA 
BLA BLA BLA BLA BLA BLA BLA BLA BLA BLA BLA BLA BLA BLA BLA BLA BLA BLA BLA BLA 
BLA BLA BLA BLA BLA BLA BLA BLA BLA BLA BLA BLA BLA BLA BLA BLA BLA BLA BLA BLA 
BLA BLA BLA BLA BLA BLA BLA BLA BLA BLA BLA BLA BLA BLA BLA BLA BLA BLA BLA BLA 
BLA BLA BLA BLA BLA BLA BLA BLA BLA BLA BLA BLA BLA BLA BLA BLA BLA BLA BLA BLA 
BLA BLA BLA BLA BLA BLA BLA BLA BLA BLA BLA BLA BLA BLA BLA BLA BLA BLA BLA BLA 
BLA BLA BLA BLA BLA BLA BLA BLA BLA BLA BLA BLA BLA BLA BLA BLA BLA BLA BLA BLA 
BLA BLA BLA BLA BLA BLA BLA BLA BLA BLA BLA BLA BLA BLA BLA BLA BLA BLA BLA BLA 
BLA BLA BLA BLA BLA BLA BLA BLA BLA BLA BLA BLA BLA BLA BLA BLA BLA BLA BLA BLA 
BLA BLA BLA BLA BLA BLA BLA BLA BLA BLA BLA BLA BLA BLA BLA BLA BLA BLA BLA BLA 
BLA BLA BLA BLA BLA BLA BLA BLA BLA BLA BLA BLA BLA BLA BLA BLA BLA BLA BLA BLA 
BLA BLA BLA BLA BLA BLA BLA BLA BLA BLA BLA BLA BLA BLA BLA BLA BLA BLA BLA BLA 
BLA BLA BLA BLA BLA BLA BLA BLA BLA BLA BLA BLA BLA BLA BLA BLA BLA BLA BLA BLA 
BLA BLA BLA BLA BLA BLA BLA BLA BLA BLA BLA BLA BLA BLA BLA BLA BLA BLA BLA BLA 
BLA BLA BLA BLA BLA BLA BLA BLA BLA BLA BLA BLA BLA BLA BLA BLA BLA BLA BLA BLA 
BLA BLA BLA BLA BLA BLA BLA BLA BLA BLA BLA BLA BLA BLA BLA BLA BLA BLA BLA BLA 
BLA BLA BLA BLA BLA BLA BLA BLA BLA BLA BLA BLA BLA BLA BLA BLA BLA BLA BLA BLA 
BLA BLA BLA BLA BLA BLA BLA BLA BLA BLA BLA BLA BLA BLA BLA BLA BLA BLA BLA BLA 
BLA BLA BLA BLA BLA BLA BLA BLA BLA BLA BLA BLA BLA BLA BLA BLA BLA BLA BLA BLA 
BLA BLA BLA BLA BLA BLA BLA BLA BLA BLA BLA BLA BLA BLA BLA BLA BLA BLA BLA BLA 
BLA BLA BLA BLA BLA BLA BLA BLA BLA BLA BLA BLA BLA BLA BLA BLA BLA BLA BLA BLA 
BLA BLA BLA BLA BLA BLA BLA BLA BLA BLA BLA BLA BLA BLA BLA BLA BLA BLA BLA BLA 
BLA BLA BLA BLA BLA BLA BLA BLA BLA BLA BLA BLA BLA BLA BLA BLA BLA BLA BLA BLA 
BLA BLA BLA BLA BLA BLA BLA BLA BLA BLA BLA BLA BLA BLA BLA BLA BLA BLA BLA BLA 
BLA BLA BLA BLA BLA BLA BLA BLA BLA BLA BLA BLA BLA BLA BLA BLA BLA BLA BLA BLA 
BLA BLA BLA BLA BLA BLA BLA BLA BLA BLA BLA BLA BLA BLA BLA BLA BLA BLA BLA BLA 
BLA BLA BLA BLA BLA BLA BLA BLA BLA BLA BLA BLA BLA BLA BLA BLA BLA BLA BLA BLA 
BLA BLA BLA BLA BLA BLA BLA BLA BLA BLA BLA BLA BLA BLA BLA BLA BLA BLA BLA BLA 
BLA BLA BLA BLA BLA BLA BLA BLA BLA BLA BLA BLA BLA BLA BLA BLA BLA BLA BLA BLA 
BLA BLA BLA BLA BLA BLA BLA BLA BLA BLA BLA BLA BLA BLA BLA BLA BLA BLA BLA BLA 
BLA BLA BLA BLA BLA BLA BLA BLA BLA BLA BLA BLA BLA BLA BLA BLA BLA BLA BLA BLA 
BLA BLA BLA BLA BLA BLA BLA BLA BLA BLA BLA BLA BLA BLA BLA BLA BLA BLA BLA BLA 
BLA BLA BLA BLA BLA BLA BLA BLA BLA BLA BLA BLA BLA BLA BLA BLA BLA BLA BLA BLA 
BLA BLA BLA BLA BLA BLA BLA BLA BLA BLA BLA BLA BLA BLA BLA BLA BLA BLA BLA BLA 
BLA BLA BLA BLA BLA BLA BLA BLA BLA BLA BLA BLA BLA BLA BLA BLA BLA BLA BLA BLA 
BLA BLA BLA BLA BLA BLA BLA BLA BLA BLA BLA BLA BLA BLA BLA BLA BLA BLA BLA BLA 
BLA BLA BLA BLA BLA BLA BLA BLA BLA BLA BLA BLA BLA BLA BLA BLA BLA BLA BLA BLA 
BLA BLA BLA BLA BLA BLA BLA BLA BLA BLA BLA BLA BLA BLA BLA BLA BLA BLA BLA BLA 
BLA BLA BLA BLA BLA BLA BLA BLA BLA BLA BLA BLA BLA BLA BLA BLA BLA BLA BLA BLA 
BLA BLA BLA BLA BLA BLA BLA BLA BLA BLA BLA BLA BLA BLA BLA BLA BLA BLA BLA BLA 
BLA BLA BLA BLA BLA BLA BLA BLA BLA BLA BLA BLA BLA BLA BLA BLA BLA BLA BLA BLA 
BLA BLA BLA BLA BLA BLA BLA BLA BLA BLA BLA BLA BLA BLA BLA BLA BLA BLA BLA BLA 
BLA BLA BLA BLA BLA BLA BLA BLA BLA BLA BLA BLA BLA BLA BLA BLA BLA BLA BLA BLA 
BLA BLA BLA BLA BLA BLA BLA BLA BLA BLA BLA BLA BLA BLA BLA BLA BLA BLA BLA BLA 
BLA BLA BLA BLA BLA BLA BLA BLA BLA BLA BLA BLA BLA BLA BLA BLA BLA BLA BLA BLA 
BLA BLA BLA BLA BLA BLA BLA BLA BLA BLA BLA BLA BLA BLA BLA BLA BLA BLA BLA BLA 
BLA BLA BLA BLA BLA BLA BLA BLA BLA BLA BLA BLA BLA BLA BLA BLA BLA BLA BLA BLA 
BLA BLA BLA BLA BLA BLA BLA BLA BLA BLA BLA BLA BLA BLA BLA BLA BLA BLA BLA BLA 
BLA BLA BLA BLA BLA BLA BLA BLA BLA BLA BLA BLA BLA BLA BLA BLA BLA BLA BLA BLA 
BLA BLA BLA BLA BLA BLA BLA BLA BLA BLA BLA BLA BLA BLA BLA BLA BLA BLA BLA BLA 
BLA BLA BLA BLA BLA BLA BLA BLA BLA BLA BLA BLA BLA BLA BLA BLA BLA BLA BLA BLA 
BLA BLA BLA BLA BLA BLA BLA BLA BLA BLA BLA BLA BLA BLA BLA BLA BLA BLA BLA BLA 
BLA BLA BLA BLA BLA BLA BLA BLA BLA BLA BLA BLA BLA BLA BLA BLA BLA BLA BLA BLA 
BLA BLA BLA BLA BLA BLA BLA BLA BLA BLA BLA BLA BLA BLA BLA BLA BLA BLA BLA BLA 
BLA BLA BLA BLA BLA BLA BLA BLA BLA BLA BLA BLA BLA BLA BLA BLA BLA BLA BLA BLA 
BLA BLA BLA BLA BLA BLA BLA BLA BLA BLA BLA BLA BLA BLA BLA BLA BLA BLA BLA BLA 
BLA BLA BLA BLA BLA BLA BLA BLA BLA BLA BLA BLA BLA BLA BLA BLA BLA BLA BLA BLA 
BLA BLA BLA BLA BLA BLA BLA BLA BLA BLA BLA BLA BLA BLA BLA BLA BLA BLA BLA BLA 
BLA BLA BLA BLA BLA BLA BLA BLA BLA BLA BLA BLA BLA BLA BLA BLA BLA BLA BLA BLA 
BLA BLA BLA BLA BLA BLA BLA BLA BLA BLA BLA BLA BLA BLA BLA BLA BLA BLA BLA BLA 
BLA BLA BLA BLA BLA BLA BLA BLA BLA BLA BLA BLA BLA BLA BLA BLA BLA BLA BLA BLA 
BLA BLA BLA BLA BLA BLA BLA BLA BLA BLA BLA BLA BLA BLA BLA BLA BLA BLA BLA BLA 
BLA BLA BLA BLA BLA BLA BLA BLA BLA BLA BLA BLA BLA BLA BLA BLA BLA BLA BLA BLA 
BLA BLA BLA BLA BLA BLA BLA BLA BLA BLA BLA BLA BLA BLA BLA BLA BLA BLA BLA BLA 
BLA BLA BLA BLA BLA BLA BLA BLA BLA BLA BLA BLA BLA BLA BLA BLA BLA BLA BLA BLA 
BLA BLA BLA BLA BLA BLA BLA BLA BLA BLA BLA BLA BLA BLA BLA BLA BLA BLA BLA BLA 
BLA BLA BLA BLA BLA BLA BLA BLA BLA BLA BLA BLA BLA BLA BLA BLA BLA BLA BLA BLA 
BLA BLA BLA BLA BLA BLA BLA BLA BLA BLA BLA BLA BLA BLA BLA BLA BLA BLA BLA BLA 
BLA BLA BLA BLA BLA BLA BLA BLA BLA BLA BLA BLA BLA BLA BLA BLA BLA BLA BLA BLA 
BLA BLA BLA BLA BLA BLA BLA BLA BLA BLA BLA BLA BLA BLA BLA BLA BLA BLA BLA BLA 
BLA BLA BLA BLA BLA BLA BLA BLA BLA BLA BLA BLA BLA BLA BLA BLA BLA BLA BLA BLA 
BLA BLA BLA BLA BLA BLA BLA BLA BLA BLA BLA BLA BLA BLA BLA BLA BLA BLA BLA BLA 
BLA BLA BLA BLA BLA BLA BLA BLA BLA BLA BLA BLA BLA BLA BLA BLA BLA BLA BLA BLA 
BLA BLA BLA BLA BLA BLA BLA BLA BLA BLA BLA BLA BLA BLA BLA BLA BLA BLA BLA BLA 
BLA BLA BLA BLA BLA BLA BLA BLA BLA BLA BLA BLA BLA BLA BLA BLA BLA 
%FLAG JOIN_ARRAY                                                                
%FORMAT(10I8)                                                                   
       0       0       0       0       0       0       0       0       0       0
       0       0       0       0       0       0       0       0       0       0
       0       0       0       0       0       0       0       0       0       0
       0       0       0       0       0       0       0       0       0       0
       0       0       0       0       0       0       0       0       0       0
       0       0       0       0       0       0       0       0       0       0
       0       0       0       0       0       0       0       0       0       0
       0       0       0       0       0       0       0       0       0       0
       0       0       0       0       0       0       0       0       0       0
       0       0       0       0       0       0       0       0       0       0
       0       0       0       0       0       0       0       0       0       0
       0       0       0       0       0       0       0       0       0       0
       0       0       0       0       0       0       0       0       0       0
       0       0       0       0       0       0       0       0       0       0
       0       0       0       0       0       0       0       0       0       0
       0       0       0       0       0       0       0       0       0       0
       0       0       0       0       0       0       0       0       0       0
       0       0       0       0       0       0       0       0       0       0
       0       0       0       0       0       0       0       0       0       0
       0       0       0       0       0       0       0       0       0       0
       0       0       0       0       0       0       0       0       0       0
       0       0       0       0       0       0       0       0       0       0
       0       0       0       0       0       0       0       0       0       0
       0       0       0       0       0       0       0       0       0       0
       0       0       0       0       0       0       0       0       0       0
       0       0       0       0       0       0       0       0       0       0
       0       0       0       0       0       0       0       0       0       0
       0       0       0       0       0       0       0       0       0       0
       0       0       0       0       0       0       0       0       0       0
       0       0       0       0       0       0       0       0       0       0
       0       0       0       0       0       0       0       0       0       0
       0       0       0       0       0       0       0       0       0       0
       0       0       0       0       0       0       0       0       0       0
       0       0       0       0       0       0       0       0       0       0
       0       0       0       0       0       0       0       0       0       0
       0       0       0       0       0       0       0       0       0       0
       0       0       0       0       0       0       0       0       0       0
       0       0       0       0       0       0       0       0       0       0
       0       0       0       0       0       0       0       0       0       0
       0       0       0       0       0       0       0       0       0       0
       0       0       0       0       0       0       0       0       0       0
       0       0       0       0       0       0       0       0       0       0
       0       0       0       0       0       0       0       0       0       0
       0       0       0       0       0       0       0       0       0       0
       0       0       0       0       0       0       0       0       0       0
       0       0       0       0       0       0       0       0       0       0
       0       0       0       0       0       0       0       0       0       0
       0       0       0       0       0       0       0       0       0       0
       0       0       0       0       0       0       0       0       0       0
       0       0       0       0       0       0       0       0       0       0
       0       0       0       0       0       0       0       0       0       0
       0       0       0       0       0       0       0       0       0       0
       0       0       0       0       0       0       0       0       0       0
       0       0       0       0       0       0       0       0       0       0
       0       0       0       0       0       0       0       0       0       0
       0       0       0       0       0       0       0       0       0       0
       0       0       0       0       0       0       0       0       0       0
       0       0       0       0       0       0       0       0       0       0
       0       0       0       0       0       0       0       0       0       0
       0       0       0       0       0       0       0       0       0       0
       0       0       0       0       0       0       0       0       0       0
       0       0       0       0       0       0       0       0       0       0
       0       0       0       0       0       0       0       0       0       0
       0       0       0       0       0       0       0       0       0       0
       0       0       0       0       0       0       0       0       0       0
       0       0       0       0       0       0       0       0       0       0
       0       0       0       0       0       0       0       0       0       0
       0       0       0       0       0       0       0       0       0       0
       0       0       0       0       0       0       0       0       0       0
       0       0       0       0       0       0       0       0       0       0
       0       0       0       0       0       0       0       0       0       0
       0       0       0       0       0       0       0       0       0       0
       0       0       0       0       0       0       0       0       0       0
       0       0       0       0       0       0       0       0       0       0
       0       0       0       0       0       0       0       0       0       0
       0       0       0       0       0       0       0       0       0       0
       0       0       0       0       0       0       0       0       0       0
       0       0       0       0       0       0       0       0       0       0
       0       0       0       0       0       0       0       0       0       0
       0       0       0       0       0       0       0       0       0       0
       0       0       0       0       0       0       0       0       0       0
       0       0       0       0       0       0       0       0       0       0
       0       0       0       0       0       0       0       0       0       0
       0       0       0       0       0       0       0       0       0       0
       0       0       0       0       0       0       0       0       0       0
       0       0       0       0       0       0       0       0       0       0
       0       0       0       0       0       0       0       0       0       0
       0       0       0       0       0       0       0       0       0       0
       0       0       0       0       0       0       0       0       0       0
       0       0       0       0       0       0       0       0       0       0
       0       0       0       0       0       0       0       0       0       0
       0       0       0       0       0       0       0       0       0       0
       0       0       0       0       0       0       0       0       0       0
       0       0       0       0       0       0       0       0       0       0
       0       0       0       0       0       0       0       0       0       0
       0       0       0       0       0       0       0       0       0       0
       0       0       0       0       0       0       0       0       0       0
       0       0       0       0       0       0       0       0       0       0
       0       0       0       0       0       0       0       0       0       0
       0       0       0       0       0       0       0       0       0       0
       0       0       0       0       0       0       0       0       0       0
       0       0       0       0       0       0       0       0       0       0
       0       0       0       0       0       0       0       0       0       0
       0       0       0       0       0       0       0       0       0       0
       0       0       0       0       0       0       0       0       0       0
       0       0       0       0       0       0       0       0       0       0
       0       0       0       0       0       0       0       0       0       0
       0       0       0       0       0       0       0       0       0       0
       0       0       0       0       0       0       0       0       0       0
       0       0       0       0       0       0       0       0       0       0
       0       0       0       0       0       0       0       0       0       0
       0       0       0       0       0       0       0       0       0       0
       0       0       0       0       0       0       0       0       0       0
       0       0       0       0       0       0       0       0       0       0
       0       0       0       0       0       0       0       0       0       0
       0       0       0       0       0       0       0       0       0       0
       0       0       0       0       0       0       0       0       0       0
       0       0       0       0       0       0       0       0       0       0
       0       0       0       0       0       0       0       0       0       0
       0       0       0       0       0       0       0       0       0       0
       0       0       0       0       0       0       0       0       0       0
       0       0       0       0       0       0       0       0       0       0
       0       0       0       0       0       0       0       0       0       0
       0       0       0       0       0       0       0       0       0       0
       0       0       0       0       0       0       0       0       0       0
       0       0       0       0       0       0       0       0       0       0
       0       0       0       0       0       0       0       0       0       0
       0       0       0       0       0       0       0       0       0       0
       0       0       0       0       0       0       0       0       0       0
       0       0       0       0       0       0       0       0       0       0
       0       0       0       0       0       0       0       0       0       0
       0       0       0       0       0       0       0       0       0       0
       0       0       0       0       0       0       0       0       0       0
       0       0       0       0       0       0       0       0       0       0
       0       0       0       0       0       0       0       0       0       0
       0       0       0       0       0       0       0       0       0       0
       0       0       0       0       0       0       0       0       0       0
       0       0       0       0       0       0       0       0       0       0
       0       0       0       0       0       0       0       0       0       0
       0       0       0       0       0       0       0       0       0       0
       0       0       0       0       0       0       0       0       0       0
       0       0       0       0       0       0       0       0       0       0
       0       0       0       0       0       0       0       0       0       0
       0       0       0       0       0       0       0       0       0       0
       0       0       0       0       0       0       0       0       0       0
       0       0       0       0       0       0       0       0       0       0
       0       0       0       0       0       0       0       0       0       0
       0       0       0       0       0       0       0       0       0       0
       0       0       0       0       0       0       0       0       0       0
       0       0       0       0       0       0       0       0       0       0
       0       0       0       0       0       0       0       0       0       0
       0       0       0       0       0       0       0       0       0       0
       0       0       0       0       0       0       0       0       0       0
       0       0       0       0       0       0       0       0       0       0
       0       0       0       0       0       0       0       0       0       0
       0       0       0       0       0       0       0       0       0       0
       0       0       0       0       0       0       0       0       0       0
       0       0       0       0       0       0       0       0       0       0
       0       0       0       0       0       0       0       0       0       0
       0       0       0       0       0       0       0       0       0       0
       0       0       0       0       0       0       0       0       0       0
       0       0       0       0       0       0       0       0       0       0
       0       0       0       0       0       0       0       0       0       0
       0       0       0       0       0       0       0       0       0       0
       0       0       0       0       0       0       0       0       0       0
       0       0       0       0       0       0       0       0       0       0
       0       0       0       0       0       0       0       0       0       0
       0       0       0       0       0       0       0       0       0       0
       0       0       0       0       0       0       0       0       0       0
       0       0       0       0       0       0       0       0       0       0
       0       0       0       0       0       0       0       0       0       0
       0       0       0       0       0       0       0       0       0       0
       0       0       0       0       0       0       0       0       0       0
       0       0       0       0       0       0       0       0       0       0
       0       0       0       0       0       0       0       0       0       0
       0       0       0       0       0       0       0       0       0       0
       0       0       0       0       0       0       0       0       0       0
       0       0       0       0       0       0       0       0       0       0
       0       0       0       0       0       0       0       0       0       0
       0       0       0       0       0       0       0       0       0       0
       0       0       0       0       0       0       0       0       0       0
       0       0       0       0       0       0       0       0       0       0
       0       0       0       0       0       0       0       0       0       0
       0       0       0       0       0       0       0       0       0       0
       0       0       0       0       0       0       0       0       0       0
       0       0       0       0       0       0       0       0       0       0
       0       0       0       0       0       0       0       0       0       0
       0       0       0       0       0       0       0       0       0       0
       0       0       0       0       0       0       0       0       0       0
       0       0       0       0       0       0       0       0       0       0
       0       0       0       0       0       0       0       0       0       0
       0       0       0       0       0       0       0       0       0       0
       0       0       0       0       0       0       0       0       0       0
       0       0       0       0       0       0       0       0       0       0
       0       0       0       0       0       0       0       0       0       0
       0       0       0       0       0       0       0       0       0       0
       0       0       0       0       0       0       0       0       0       0
       0       0       0       0       0       0       0       0       0       0
       0       0       0       0       0       0       0       0       0       0
       0       0       0       0       0       0       0       0       0       0
       0       0       0       0       0       0       0       0       0       0
       0       0       0       0       0       0       0       0       0       0
       0       0       0       0       0       0       0       0       0       0
       0       0       0       0       0       0       0       0       0       0
       0       0       0       0       0       0       0       0       0       0
       0       0       0       0       0       0       0       0       0       0
       0       0       0       0       0       0       0       0       0       0
       0       0       0       0       0       0       0       0       0       0
       0       0       0       0       0       0       0       0       0       0
       0       0       0       0       0       0       0       0       0       0
       0       0       0       0       0       0       0       0       0       0
       0       0       0       0       0       0       0       0       0       0
       0       0       0       0       0       0       0       0       0       0
       0       0       0       0       0       0       0       0       0       0
       0       0       0       0       0       0       0       0       0       0
       0       0       0       0       0       0       0       0       0       0
       0       0       0       0       0       0       0       0       0       0
       0       0       0       0       0       0       0       0       0       0
       0       0       0       0       0       0       0       0       0       0
       0       0       0       0       0       0       0       0       0       0
       0       0       0       0       0       0       0       0       0       0
       0       0       0       0       0       0       0       0       0       0
       0       0       0       0       0       0       0       0       0       0
       0       0       0       0       0       0       0       0       0       0
       0       0       0       0       0       0       0       0       0       0
       0       0       0       0       0       0       0       0       0       0
       0       0       0       0       0       0       0       0       0       0
       0       0       0       0       0       0       0       0       0       0
       0       0       0       0       0       0       0       0       0       0
       0       0       0       0       0       0       0       0       0       0
       0       0       0       0       0       0       0       0       0       0
       0       0       0       0       0       0       0       0       0       0
       0       0       0       0       0       0       0       0       0       0
       0       0       0       0       0       0       0       0       0       0
       0       0       0       0       0       0       0       0       0       0
       0       0       0       0       0       0       0       0       0       0
       0       0       0       0       0       0       0       0       0       0
       0       0       0       0       0       0       0       0       0       0
       0       0       0       0       0       0       0       0       0       0
       0       0       0       0       0       0       0       0       0       0
       0       0       0       0       0       0       0       0       0       0
       0       0       0       0       0       0       0       0       0       0
       0       0       0       0       0       0       0       0       0       0
       0       0       0       0       0       0       0       0       0       0
       0       0       0       0       0       0       0       0       0       0
       0       0       0       0       0       0       0       0       0       0
       0       0       0       0       0       0       0       0       0       0
       0       0       0       0       0       0       0       0       0       0
       0       0       0       0       0       0       0       0       0       0
       0       0       0       0       0       0       0       0       0       0
       0       0       0       0       0       0       0       0       0       0
       0       0       0       0       0       0       0       0       0       0
       0       0       0       0       0       0       0       0       0       0
       0       0       0       0       0       0       0       0       0       0
       0       0       0       0       0       0       0       0       0       0
       0       0       0       0       0       0       0       0       0       0
       0       0       0       0       0       0       0       0       0       0
       0       0       0       0       0       0       0       0       0       0
       0       0       0       0       0       0       0       0       0       0
       0       0       0       0       0       0       0       0       0       0
       0       0       0       0       0       0       0       0       0       0
       0       0       0       0       0       0       0       0       0       0
       0       0       0       0       0       0       0       0       0       0
       0       0       0       0       0       0       0       0       0       0
       0       0       0       0       0       0       0       0       0       0
       0       0       0       0       0       0       0       0       0       0
       0       0       0       0       0       0       0       0       0       0
       0       0       0       0       0       0       0       0       0       0
       0       0       0       0       0       0       0       0       0       0
       0       0       0       0       0       0       0       0       0       0
       0       0       0       0       0       0       0       0       0       0
       0       0       0       0       0       0       0       0       0       0
       0       0       0       0       0       0       0       0       0       0
       0       0       0       0       0       0       0       0       0       0
       0       0       0       0       0       0       0       0       0       0
       0       0       0       0       0       0       0       0       0       0
       0       0       0       0       0       0       0       0       0       0
       0       0       0       0       0       0       0       0       0       0
       0       0       0       0       0       0       0       0       0       0
       0       0       0       0       0       0       0       0       0       0
       0       0       0       0       0       0       0       0       0       0
       0       0       0       0       0       0       0       0       0       0
       0       0       0       0       0       0       0       0       0       0
       0       0       0       0       0       0       0       0       0       0
       0       0       0       0       0       0       0       0       0       0
       0       0       0       0       0       0       0       0       0       0
       0       0       0       0       0       0       0       0       0       0
       0       0       0       0       0       0       0       0       0       0
       0       0       0       0       0       0       0       0       0       0
       0       0       0       0       0       0       0       0       0       0
       0       0       0       0       0       0       0       0       0       0
       0       0       0       0       0       0       0       0       0       0
       0       0       0       0       0       0       0       0       0       0
       0       0       0       0       0       0       0       0       0       0
       0       0       0       0       0       0       0       0       0       0
       0       0       0       0       0       0       0       0       0       0
       0       0       0       0       0       0       0       0       0       0
       0       0       0       0       0       0       0       0       0       0
       0       0       0       0       0       0       0       0       0       0
       0       0       0       0       0       0       0       0       0       0
       0       0       0       0       0       0       0       0       0       0
       0       0       0       0       0       0       0       0       0       0
       0       0       0       0       0       0       0       0       0       0
       0       0       0       0       0       0       0       0       0       0
       0       0       0       0       0       0       0       0       0       0
       0       0       0       0       0       0       0       0       0       0
       0       0       0       0       0       0       0       0       0       0
       0       0       0       0       0       0       0       0       0       0
       0       0       0       0       0       0       0       0       0       0
       0       0       0       0       0       0       0       0       0       0
       0       0       0       0       0       0       0       0       0       0
       0       0       0       0       0       0       0       0       0       0
       0       0       0       0       0       0       0       0       0       0
       0       0       0       0       0       0       0       0       0       0
       0       0       0       0       0       0       0       0       0       0
       0       0       0       0       0       0       0       0       0       0
       0       0       0       0       0       0       0       0       0       0
       0       0       0       0       0       0       0       0       0       0
       0       0       0       0       0       0       0       0       0       0
       0       0       0       0       0       0       0       0       0       0
       0       0       0       0       0       0       0       0       0       0
       0       0       0       0       0       0       0       0       0       0
       0       0       0       0       0       0       0       0       0       0
       0       0       0       0       0       0       0       0       0       0
       0       0       0       0       0       0       0       0       0       0
       0       0       0       0       0       0       0       0       0       0
       0       0       0       0       0       0       0       0       0       0
       0       0       0       0       0       0       0       0       0       0
       0       0       0       0       0       0       0       0       0       0
       0       0       0       0       0       0       0       0       0       0
       0       0       0       0       0       0       0       0       0       0
       0       0       0       0       0       0       0       0       0       0
       0       0       0       0       0       0       0       0       0       0
       0       0       0       0       0       0       0       0       0       0
       0       0       0       0       0       0       0       0       0       0
       0       0       0       0       0       0       0       0       0       0
       0       0       0       0       0       0       0       0       0       0
       0       0       0       0       0       0       0       0       0       0
       0       0       0       0       0       0       0       0       0       0
       0       0       0       0       0       0       0       0       0       0
       0       0       0       0       0       0       0       0       0       0
       0       0       0       0       0       0       0       0       0       0
       0       0       0       0       0       0       0       0       0       0
       0       0       0       0       0       0       0       0       0       0
       0       0       0       0       0       0       0       0       0       0
       0       0       0       0       0       0       0       0       0       0
       0       0       0       0       0       0       0       0       0       0
       0       0       0       0       0       0       0       0       0       0
       0       0       0       0       0       0       0       0       0       0
       0       0       0       0       0       0       0       0       0       0
       0       0       0       0       0       0       0       0       0       0
       0       0       0       0       0       0       0       0       0       0
       0       0       0       0       0       0       0       0       0       0
       0       0       0       0       0       0       0       0       0       0
       0       0       0       0       0       0       0       0       0       0
       0       0       0       0       0       0       0       0       0       0
       0       0       0       0       0       0       0       0       0       0
       0       0       0       0       0       0       0       0       0       0
       0       0       0       0       0       0       0       0       0       0
       0       0       0       0       0       0       0       0       0       0
       0       0       0       0       0       0       0       0       0       0
       0       0       0       0       0       0       0       0       0       0
       0       0       0       0       0       0       0       0       0       0
       0       0       0       0       0       0       0       0       0       0
       0       0       0       0       0       0       0       0       0       0
       0       0       0       0       0       0       0       0       0       0
       0       0       0       0       0       0       0       0       0       0
       0       0       0       0       0       0       0       0       0       0
       0       0       0       0       0       0       0       0       0       0
       0       0       0       0       0       0       0       0       0       0
       0       0       0       0       0       0       0       0       0       0
       0       0       0       0       0       0       0       0       0       0
       0       0       0       0       0       0       0       0       0       0
       0       0       0       0       0       0       0       0       0       0
       0       0       0       0       0       0       0       0       0       0
       0       0       0       0       0       0       0       0       0       0
       0       0       0       0       0       0       0       0       0       0
       0       0       0       0       0       0       0       0       0       0
       0       0       0       0       0       0       0       0       0       0
       0       0       0       0       0       0       0       0       0       0
       0       0       0       0       0       0       0       0       0       0
       0       0       0       0       0       0       0       0       0       0
       0       0       0       0       0       0       0       0       0       0
       0       0       0       0       0       0       0       0       0       0
       0       0       0       0       0       0       0       0       0       0
       0       0       0       0       0       0       0       0       0       0
       0       0       0       0       0       0       0       0       0       0
       0       0       0       0       0       0       0       0       0       0
       0       0       0       0       0       0       0       0       0       0
       0       0       0       0       0       0       0       0       0       0
       0       0       0       0       0       0       0       0       0       0
       0       0       0       0       0       0       0       0       0       0
       0       0       0       0       0       0       0       0       0       0
       0       0       0       0       0       0       0       0       0       0
       0       0       0       0       0       0       0       0       0       0
       0       0       0       0       0       0       0       0       0       0
       0       0       0       0       0       0       0       0       0       0
       0       0       0       0       0       0       0       0       0       0
       0       0       0       0       0       0       0       0       0       0
       0       0       0       0       0       0       0       0       0       0
       0       0       0       0       0       0       0       0       0       0
       0       0       0       0       0       0       0       0       0       0
       0       0       0       0       0       0       0       0       0       0
       0       0       0       0       0       0       0       0       0       0
       0       0       0       0       0       0       0       0       0       0
       0       0       0       0       0       0       0       0       0       0
       0       0       0       0       0       0       0       0       0       0
       0       0       0       0       0       0       0       0       0       0
       0       0       0       0       0       0       0       0       0       0
       0       0       0       0       0       0       0       0       0       0
       0       0       0       0       0       0       0       0       0       0
       0       0       0       0       0       0       0       0       0       0
       0       0       0       0       0       0       0       0       0       0
       0       0       0       0       0       0       0       0       0       0
       0       0       0       0       0       0       0       0       0       0
       0       0       0       0       0       0       0       0       0       0
       0       0       0       0       0       0       0       0       0       0
       0       0       0       0       0       0       0       0       0       0
       0       0       0       0       0       0       0       0       0       0
       0       0       0       0       0       0       0       0       0       0
       0       0       0       0       0       0       0       0       0       0
       0       0       0       0       0       0       0       0       0       0
       0       0       0       0       0       0       0       0       0       0
       0       0       0       0       0       0       0       0       0       0
       0       0       0       0       0       0       0       0       0       0
       0       0       0       0       0       0       0       0       0       0
       0       0       0       0       0       0       0       0       0       0
       0       0       0       0       0       0       0       0       0       0
       0       0       0       0       0       0       0       0       0       0
       0       0       0       0       0       0       0       0       0       0
       0       0       0       0       0       0       0       0       0       0
       0       0       0       0       0       0       0       0       0       0
       0       0       0       0       0       0       0       0       0       0
       0       0       0       0       0       0       0       0       0       0
       0       0       0       0       0       0       0       0       0       0
       0       0       0       0       0       0       0       0       0       0
       0       0       0       0       0       0       0       0       0       0
       0       0       0       0       0       0       0       0       0       0
       0       0       0       0       0       0       0       0       0       0
       0       0       0       0       0       0       0       0       0       0
       0       0       0       0       0       0       0       0       0       0
       0       0       0       0       0       0       0       0       0       0
       0       0       0       0       0       0       0       0       0       0
       0       0       0       0       0       0       0       0       0       0
       0       0       0       0       0       0       0       0       0       0
       0       0       0       0       0       0       0       0       0       0
       0       0       0       0       0       0       0       0       0       0
       0       0       0       0       0       0       0       0       0       0
       0       0       0       0       0       0       0       0       0       0
       0       0       0       0       0       0       0       0       0       0
       0       0       0       0       0       0       0       0       0       0
       0       0       0       0       0       0       0       0       0       0
       0       0       0       0       0       0       0       0       0       0
       0       0       0       0       0       0       0       0       0       0
       0       0       0       0       0       0       0       0       0       0
       0       0       0       0       0       0       0       0       0       0
       0       0       0       0       0       0       0       0       0       0
       0       0       0       0       0       0       0       0       0       0
       0       0       0       0       0       0       0       0       0       0
       0       0       0       0       0       0       0       0       0       0
       0       0       0       0       0       0       0       0       0       0
       0       0       0       0       0       0       0       0       0       0
       0       0       0       0       0       0       0       0       0       0
       0       0       0       0       0       0       0       0       0       0
       0       0       0       0       0       0       0       0       0       0
       0       0       0       0       0       0       0       0       0       0
       0       0       0       0       0       0       0       0       0       0
       0       0       0       0       0       0       0       0       0       0
       0       0       0       0       0       0       0       0       0       0
       0       0       0       0       0       0       0       0       0       0
       0       0       0       0       0       0       0       0       0       0
       0       0       0       0       0       0       0       0       0       0
       0       0       0       0       0       0       0       0       0       0
       0       0       0       0       0       0       0       0       0       0
       0       0       0       0       0       0       0       0       0       0
       0       0       0       0       0       0       0       0       0       0
       0       0       0       0       0       0       0       0       0       0
       0       0       0       0       0       0       0       0       0       0
       0       0       0       0       0       0       0       0       0       0
       0       0       0       0       0       0       0       0       0       0
       0       0       0       0       0       0       0       0       0       0
       0       0       0       0       0       0       0       0       0       0
       0       0       0       0       0       0       0       0       0       0
       0       0       0       0       0       0       0       0       0       0
       0       0       0       0       0       0       0       0       0       0
       0       0       0       0       0       0       0       0       0       0
       0       0       0       0       0       0       0       0       0       0
       0       0       0       0       0       0       0       0       0       0
       0       0       0       0       0       0       0       0       0       0
       0       0       0       0       0       0       0       0       0       0
       0       0       0       0       0       0       0       0       0       0
       0       0       0       0       0       0       0       0       0       0
       0       0       0       0       0       0       0       0       0       0
       0       0       0       0       0       0       0       0       0       0
       0       0       0       0       0       0       0       0       0       0
       0       0       0       0       0       0       0       0       0       0
       0       0       0       0       0       0       0       0       0       0
       0       0       0       0       0       0       0       0       0       0
       0       0       0       0       0       0       0       0       0       0
       0       0       0       0       0       0       0       0       0       0
       0       0       0       0       0       0       0       0       0       0
       0       0       0       0       0       0       0       0       0       0
       0       0       0       0       0       0       0       0       0       0
       0       0       0       0       0       0       0       0       0       0
       0       0       0       0       0       0       0       0       0       0
       0       0       0       0       0       0       0       0       0       0
       0       0       0       0       0       0       0       0       0       0
       0       0       0       0       0       0       0       0       0       0
       0       0       0       0       0       0       0       0       0       0
       0       0       0       0       0       0       0       0       0       0
       0       0       0       0       0       0       0       0       0       0
       0       0       0       0       0       0       0       0       0       0
       0       0       0       0       0       0       0       0       0       0
       0       0       0       0       0       0       0       0       0       0
       0       0       0       0       0       0       0       0       0       0
       0       0       0       0       0       0       0       0       0       0
       0       0       0       0       0       0       0       0       0       0
       0       0       0       0       0       0       0       0       0       0
       0       0       0       0       0       0       0       0       0       0
       0       0       0       0       0       0       0       0       0       0
       0       0       0       0       0       0       0       0       0       0
       0       0       0       0       0       0       0       0       0       0
       0       0       0       0       0       0       0       0       0       0
       0       0       0       0       0       0       0       0       0       0
       0       0       0       0       0       0       0       0       0       0
       0       0       0       0       0       0       0       0       0       0
       0       0       0       0       0       0       0       0       0       0
       0       0       0       0       0       0       0       0       0       0
       0       0       0       0       0       0       0       0       0       0
       0       0       0       0       0       0       0       0       0       0
       0       0       0       0       0       0       0       0       0       0
       0       0       0       0       0       0       0       0       0       0
       0       0       0       0       0       0       0       0       0       0
       0       0       0       0       0       0       0       0       0       0
       0       0       0       0       0       0       0       0       0       0
       0       0       0       0       0       0       0       0       0       0
       0       0       0       0       0       0       0       0       0       0
       0       0       0       0       0       0       0       0       0       0
       0       0       0       0       0       0       0       0       0       0
       0       0       0       0       0       0       0       0       0       0
       0       0       0       0       0       0       0       0       0       0
       0       0       0       0       0       0       0       0       0       0
       0       0       0       0       0       0       0       0       0       0
       0       0       0       0       0       0       0       0       0       0
       0       0       0       0       0       0       0       0       0       0
       0       0       0       0       0       0       0       0       0       0
       0       0       0       0       0       0       0       0       0       0
       0       0       0       0       0       0       0       0       0       0
       0       0       0       0       0       0       0       0       0       0
       0       0       0       0       0       0       0       0       0       0
       0       0       0       0       0       0       0       0       0       0
       0       0       0       0       0       0       0       0       0       0
       0       0       0       0       0       0       0       0       0       0
       0       0       0       0       0       0       0       0       0       0
       0       0       0       0       0       0       0       0       0       0
       0       0       0       0       0       0       0       0       0       0
       0       0       0       0       0       0       0       0       0       0
       0       0       0       0       0       0       0       0       0       0
       0       0       0       0       0       0       0       0       0       0
       0       0       0       0       0       0       0
%FLAG IROTAT                                                                    
%FORMAT(10I8)                                                                   
       0       0       0       0       0       0       0       0       0       0
       0       0       0       0       0       0       0       0       0       0
       0       0       0       0       0       0       0       0       0       0
       0       0       0       0       0       0       0       0       0       0
       0       0       0       0       0       0       0       0       0       0
       0       0       0       0       0       0       0       0       0       0
       0       0       0       0       0       0       0       0       0       0
       0       0       0       0       0       0       0       0       0       0
       0       0       0       0       0       0       0       0       0       0
       0       0       0       0       0       0       0       0       0       0
       0       0       0       0       0       0       0       0       0       0
       0       0       0       0       0       0       0       0       0       0
       0       0       0       0       0       0       0       0       0       0
       0       0       0       0       0       0       0       0       0       0
       0       0       0       0       0       0       0       0       0       0
       0       0       0       0       0       0       0       0       0       0
       0       0       0       0       0       0       0       0       0       0
       0       0       0       0       0       0       0       0       0       0
       0       0       0       0       0       0       0       0       0       0
       0       0       0       0       0       0       0       0       0       0
       0       0       0       0       0       0       0       0       0       0
       0       0       0       0       0       0       0       0       0       0
       0       0       0       0       0       0       0       0       0       0
       0       0       0       0       0       0       0       0       0       0
       0       0       0       0       0       0       0       0       0       0
       0       0       0       0       0       0       0       0       0       0
       0       0       0       0       0       0       0       0       0       0
       0       0       0       0       0       0       0       0       0       0
       0       0       0       0       0       0       0       0       0       0
       0       0       0       0       0       0       0       0       0       0
       0       0       0       0       0       0       0       0       0       0
       0       0       0       0       0       0       0       0       0       0
       0       0       0       0       0       0       0       0       0       0
       0       0       0       0       0       0       0       0       0       0
       0       0       0       0       0       0       0       0       0       0
       0       0       0       0       0       0       0       0       0       0
       0       0       0       0       0       0       0       0       0       0
       0       0       0       0       0       0       0       0       0       0
       0       0       0       0       0       0       0       0       0       0
       0       0       0       0       0       0       0       0       0       0
       0       0       0       0       0       0       0       0       0       0
       0       0       0       0       0       0       0       0       0       0
       0       0       0       0       0       0       0       0       0       0
       0       0       0       0       0       0       0       0       0       0
       0       0       0       0       0       0       0       0       0       0
       0       0       0       0       0       0       0       0       0       0
       0       0       0       0       0       0       0       0       0       0
       0       0       0       0       0       0       0       0       0       0
       0       0       0       0       0       0       0       0       0       0
       0       0       0       0       0       0       0       0       0       0
       0       0       0       0       0       0       0       0       0       0
       0       0       0       0       0       0       0       0       0       0
       0       0       0       0       0       0       0       0       0       0
       0       0       0       0       0       0       0       0       0       0
       0       0       0       0       0       0       0       0       0       0
       0       0       0       0       0       0       0       0       0       0
       0       0       0       0       0       0       0       0       0       0
       0       0       0       0       0       0       0       0       0       0
       0       0       0       0       0       0       0       0       0       0
       0       0       0       0       0       0       0       0       0       0
       0       0       0       0       0       0       0       0       0       0
       0       0       0       0       0       0       0       0       0       0
       0       0       0       0       0       0       0       0       0       0
       0       0       0       0       0       0       0       0       0       0
       0       0       0       0       0       0       0       0       0       0
       0       0       0       0       0       0       0       0       0       0
       0       0       0       0       0       0       0       0       0       0
       0       0       0       0       0       0       0       0       0       0
       0       0       0       0       0       0       0       0       0       0
       0       0       0       0       0       0       0       0       0       0
       0       0       0       0       0       0       0       0       0       0
       0       0       0       0       0       0       0       0       0       0
       0       0       0       0       0       0       0       0       0       0
       0       0       0       0       0       0       0       0       0       0
       0       0       0       0       0       0       0       0       0       0
       0       0       0       0       0       0       0       0       0       0
       0       0       0       0       0       0       0       0       0       0
       0       0       0       0       0       0       0       0       0       0
       0       0       0       0       0       0       0       0       0       0
       0       0       0       0       0       0       0       0       0       0
       0       0       0       0       0       0       0       0       0       0
       0       0       0       0       0       0       0       0       0       0
       0       0       0       0       0       0       0       0       0       0
       0       0       0       0       0       0       0       0       0       0
       0       0       0       0       0       0       0       0       0       0
       0       0       0       0       0       0       0       0       0       0
       0       0       0       0       0       0       0       0       0       0
       0       0       0       0       0       0       0       0       0       0
       0       0       0       0       0       0       0       0       0       0
       0       0       0       0       0       0       0       0       0       0
       0       0       0       0       0       0       0       0       0       0
       0       0       0       0       0       0       0       0       0       0
       0       0       0       0       0       0       0       0       0       0
       0       0       0       0       0       0       0       0       0       0
       0       0       0       0       0       0       0       0       0       0
       0       0       0       0       0       0       0       0       0       0
       0       0       0       0       0       0       0       0       0       0
       0       0       0       0       0       0       0       0       0       0
       0       0       0       0       0       0       0       0       0       0
       0       0       0       0       0       0       0       0       0       0
       0       0       0       0       0       0       0       0       0       0
       0       0       0       0       0       0       0       0       0       0
       0       0       0       0       0       0       0       0       0       0
       0       0       0       0       0       0       0       0       0       0
       0       0       0       0       0       0       0       0       0       0
       0       0       0       0       0       0       0       0       0       0
       0       0       0       0       0       0       0       0       0       0
       0       0       0       0       0       0       0       0       0       0
       0       0       0       0       0       0       0       0       0       0
       0       0       0       0       0       0       0       0       0       0
       0       0       0       0       0       0       0       0       0       0
       0       0       0       0       0       0       0       0       0       0
       0       0       0       0       0       0       0       0       0       0
       0       0       0       0       0       0       0       0       0       0
       0       0       0       0       0       0       0       0       0       0
       0       0       0       0       0       0       0       0       0       0
       0       0       0       0       0       0       0       0       0       0
       0       0       0       0       0       0       0       0       0       0
       0       0       0       0       0       0       0       0       0       0
       0       0       0       0       0       0       0       0       0       0
       0       0       0       0       0       0       0       0       0       0
       0       0       0       0       0       0       0       0       0       0
       0       0       0       0       0       0       0       0       0       0
       0       0       0       0       0       0       0       0       0       0
       0       0       0       0       0       0       0       0       0       0
       0       0       0       0       0       0       0       0       0       0
       0       0       0       0       0       0       0       0       0       0
       0       0       0       0       0       0       0       0       0       0
       0       0       0       0       0       0       0       0       0       0
       0       0       0       0       0       0       0       0       0       0
       0       0       0       0       0       0       0       0       0       0
       0       0       0       0       0       0       0       0       0       0
       0       0       0       0       0       0       0       0       0       0
       0       0       0       0       0       0       0       0       0       0
       0       0       0       0       0       0       0       0       0       0
       0       0       0       0       0       0       0       0       0       0
       0       0       0       0       0       0       0       0       0       0
       0       0       0       0       0       0       0       0       0       0
       0       0       0       0       0       0       0       0       0       0
       0       0       0       0       0       0       0       0       0       0
       0       0       0       0       0       0       0       0       0       0
       0       0       0       0       0       0       0       0       0       0
       0       0       0       0       0       0       0       0       0       0
       0       0       0       0       0       0       0       0       0       0
       0       0       0       0       0       0       0       0       0       0
       0       0       0       0       0       0       0       0       0       0
       0       0       0       0       0       0       0       0       0       0
       0       0       0       0       0       0       0       0       0       0
       0       0       0       0       0       0       0       0       0       0
       0       0       0       0       0       0       0       0       0       0
       0       0       0       0       0       0       0       0       0       0
       0       0       0       0       0       0       0       0       0       0
       0       0       0       0       0       0       0       0       0       0
       0       0       0       0       0       0       0       0       0       0
       0       0       0       0       0       0       0       0       0       0
       0       0       0       0       0       0       0       0       0       0
       0       0       0       0       0       0       0       0       0       0
       0       0       0       0       0       0       0       0       0       0
       0       0       0       0       0       0       0       0       0       0
       0       0       0       0       0       0       0       0       0       0
       0       0       0       0       0       0       0       0       0       0
       0       0       0       0       0       0       0       0       0       0
       0       0       0       0       0       0       0       0       0       0
       0       0       0       0       0       0       0       0       0       0
       0       0       0       0       0       0       0       0       0       0
       0       0       0       0       0       0       0       0       0       0
       0       0       0       0       0       0       0       0       0       0
       0       0       0       0       0       0       0       0       0       0
       0       0       0       0       0       0       0       0       0       0
       0       0       0       0       0       0       0       0       0       0
       0       0       0       0       0       0       0       0       0       0
       0       0       0       0       0       0       0       0       0       0
       0       0       0       0       0       0       0       0       0       0
       0       0       0       0       0       0       0       0       0       0
       0       0       0       0       0       0       0       0       0       0
       0       0       0       0       0       0       0       0       0       0
       0       0       0       0       0       0       0       0       0       0
       0       0       0       0       0       0       0       0       0       0
       0       0       0       0       0       0       0       0       0       0
       0       0       0       0       0       0       0       0       0       0
       0       0       0       0       0       0       0       0       0       0
       0       0       0       0       0       0       0       0       0       0
       0       0       0       0       0       0       0       0       0       0
       0       0       0       0       0       0       0       0       0       0
       0       0       0       0       0       0       0       0       0       0
       0       0       0       0       0       0       0       0       0       0
       0       0       0       0       0       0       0       0       0       0
       0       0       0       0       0       0       0       0       0       0
       0       0       0       0       0       0       0       0       0       0
       0       0       0       0       0       0       0       0       0       0
       0       0       0       0       0       0       0       0       0       0
       0       0       0       0       0       0       0       0       0       0
       0       0       0       0       0       0       0       0       0       0
       0       0       0       0       0       0       0       0       0       0
       0       0       0       0       0       0       0       0       0       0
       0       0       0       0       0       0       0       0       0       0
       0       0       0       0       0       0       0       0       0       0
       0       0       0       0       0       0       0       0       0       0
       0       0       0       0       0       0       0       0       0       0
       0       0       0       0       0       0       0       0       0       0
       0       0       0       0       0       0       0       0       0       0
       0       0       0       0       0       0       0       0       0       0
       0       0       0       0       0       0       0       0       0       0
       0       0       0       0       0       0       0       0       0       0
       0       0       0       0       0       0       0       0       0       0
       0       0       0       0       0       0       0       0       0       0
       0       0       0       0       0       0       0       0       0       0
       0       0       0       0       0       0       0       0       0       0
       0       0       0       0       0       0       0       0       0       0
       0       0       0       0       0       0       0       0       0       0
       0       0       0       0       0       0       0       0       0       0
       0       0       0       0       0       0       0       0       0       0
       0       0       0       0       0       0       0       0       0       0
       0       0       0       0       0       0       0       0       0       0
       0       0       0       0       0       0       0       0       0       0
       0       0       0       0       0       0       0       0       0       0
       0       0       0       0       0       0       0       0       0       0
       0       0       0       0       0       0       0       0       0       0
       0       0       0       0       0       0       0       0       0       0
       0       0       0       0       0       0       0       0       0       0
       0       0       0       0       0       0       0       0       0       0
       0       0       0       0       0       0       0       0       0       0
       0       0       0       0       0       0       0       0       0       0
       0       0       0       0       0       0       0       0       0       0
       0       0       0       0       0       0       0       0       0       0
       0       0       0       0       0       0       0       0       0       0
       0       0       0       0       0       0       0       0       0       0
       0       0       0       0       0       0       0       0       0       0
       0       0       0       0       0       0       0       0       0       0
       0       0       0       0       0       0       0       0       0       0
       0       0       0       0       0       0       0       0       0       0
       0       0       0       0       0       0       0       0       0       0
       0       0       0       0       0       0       0       0       0       0
       0       0       0       0       0       0       0       0       0       0
       0       0       0       0       0       0       0       0       0       0
       0       0       0       0       0       0       0       0       0       0
       0       0       0       0       0       0       0       0       0       0
       0       0       0       0       0       0       0       0       0       0
       0       0       0       0       0       0       0       0       0       0
       0       0       0       0       0       0       0       0       0       0
       0       0       0       0       0       0       0       0       0       0
       0       0       0       0       0       0       0       0       0       0
       0       0       0       0       0       0       0       0       0       0
       0       0       0       0       0       0       0       0       0       0
       0       0       0       0       0       0       0       0       0       0
       0       0       0       0       0       0       0       0       0       0
       0       0       0       0       0       0       0       0       0       0
       0       0       0       0       0       0       0       0       0       0
       0       0       0       0       0       0       0       0       0       0
       0       0       0       0       0       0       0       0       0       0
       0       0       0       0       0       0       0       0       0       0
       0       0       0       0       0       0       0       0       0       0
       0       0       0       0       0       0       0       0       0       0
       0       0       0       0       0       0       0       0       0       0
       0       0       0       0       0       0       0       0       0       0
       0       0       0       0       0       0       0       0       0       0
       0       0       0       0       0       0       0       0       0       0
       0       0       0       0       0       0       0       0       0       0
       0       0       0       0       0       0       0       0       0       0
       0       0       0       0       0       0       0       0       0       0
       0       0       0       0       0       0       0       0       0       0
       0       0       0       0       0       0       0       0       0       0
       0       0       0       0       0       0       0       0       0       0
       0       0       0       0       0       0       0       0       0       0
       0       0       0       0       0       0       0       0       0       0
       0       0       0       0       0       0       0       0       0       0
       0       0       0       0       0       0       0       0       0       0
       0       0       0       0       0       0       0       0       0       0
       0       0       0       0       0       0       0       0       0       0
       0       0       0       0       0       0       0       0       0       0
       0       0       0       0       0       0       0       0       0       0
       0       0       0       0       0       0       0       0       0       0
       0       0       0       0       0       0       0       0       0       0
       0       0       0       0       0       0       0       0       0       0
       0       0       0       0       0       0       0       0       0       0
       0       0       0       0       0       0       0       0       0       0
       0       0       0       0       0       0       0       0       0       0
       0       0       0       0       0       0       0       0       0       0
       0       0       0       0       0       0       0       0       0       0
       0       0       0       0       0       0       0       0       0       0
       0       0       0       0       0       0       0       0       0       0
       0       0       0       0       0       0       0       0       0       0
       0       0       0       0       0       0       0       0       0       0
       0       0       0       0       0       0       0       0       0       0
       0       0       0       0       0       0       0       0       0       0
       0       0       0       0       0       0       0       0       0       0
       0       0       0       0       0       0       0       0       0       0
       0       0       0       0       0       0       0       0       0       0
       0       0       0       0       0       0       0       0       0       0
       0       0       0       0       0       0       0       0       0       0
       0       0       0       0       0       0       0       0       0       0
       0       0       0       0       0       0       0       0       0       0
       0       0       0       0       0       0       0       0       0       0
       0       0       0       0       0       0       0       0       0       0
       0       0       0       0       0       0       0       0       0       0
       0       0       0       0       0       0       0       0       0       0
       0       0       0       0       0       0       0       0       0       0
       0       0       0       0       0       0       0       0       0       0
       0       0       0       0       0       0       0       0       0       0
       0       0       0       0       0       0       0       0       0       0
       0       0       0       0       0       0       0       0       0       0
       0       0       0       0       0       0       0       0       0       0
       0       0       0       0       0       0       0       0       0       0
       0       0       0       0       0       0       0       0       0       0
       0       0       0       0       0       0       0       0       0       0
       0       0       0       0       0       0       0       0       0       0
       0       0       0       0       0       0       0       0       0       0
       0       0       0       0       0       0       0       0       0       0
       0       0       0       0       0       0       0       0       0       0
       0       0       0       0       0       0       0       0       0       0
       0       0       0       0       0       0       0       0       0       0
       0       0       0       0       0       0       0       0       0       0
       0       0       0       0       0       0       0       0       0       0
       0       0       0       0       0       0       0       0       0       0
       0       0       0       0       0       0       0       0       0       0
       0       0       0       0       0       0       0       0       0       0
       0       0       0       0       0       0       0       0       0       0
       0       0       0       0       0       0       0       0       0       0
       0       0       0       0       0       0       0       0       0       0
       0       0       0       0       0       0       0       0       0       0
       0       0       0       0       0       0       0       0       0       0
       0       0       0       0       0       0       0       0       0       0
       0       0       0       0       0       0       0       0       0       0
       0       0       0       0       0       0       0       0       0       0
       0       0       0       0       0       0       0       0       0       0
       0       0       0       0       0       0       0       0       0       0
       0       0       0       0       0       0       0       0       0       0
       0       0       0       0       0       0       0       0       0       0
       0       0       0       0       0       0       0       0       0       0
       0       0       0       0       0       0       0       0       0       0
       0       0       0       0       0       0       0       0       0       0
       0       0       0       0       0       0       0       0       0       0
       0       0       0       0       0       0       0       0       0       0
       0       0       0       0       0       0       0       0       0       0
       0       0       0       0       0       0       0       0       0       0
       0       0       0       0       0       0       0       0       0       0
       0       0       0       0       0       0       0       0       0       0
       0       0       0       0       0       0       0       0       0       0
       0       0       0       0       0       0       0       0       0       0
       0       0       0       0       0       0       0       0       0       0
       0       0       0       0       0       0       0       0       0       0
       0       0       0       0       0       0       0       0       0       0
       0       0       0       0       0       0       0       0       0       0
       0       0       0       0       0       0       0       0       0       0
       0       0       0       0       0       0       0       0       0       0
       0       0       0       0       0       0       0       0       0       0
       0       0       0       0       0       0       0       0       0       0
       0       0       0       0       0       0       0       0       0       0
       0       0       0       0       0       0       0       0       0       0
       0       0       0       0       0       0       0       0       0       0
       0       0       0       0       0       0       0       0       0       0
       0       0       0       0       0       0       0       0       0       0
       0       0       0       0       0       0       0       0       0       0
       0       0       0       0       0       0       0       0       0       0
       0       0       0       0       0       0       0       0       0       0
       0       0       0       0       0       0       0       0       0       0
       0       0       0       0       0       0       0       0       0       0
       0       0       0       0       0       0       0       0       0       0
       0       0       0       0       0       0       0       0       0       0
       0       0       0       0       0       0       0       0       0       0
       0       0       0       0       0       0       0       0       0       0
       0       0       0       0       0       0       0       0       0       0
       0       0       0       0       0       0       0       0       0       0
       0       0       0       0       0       0       0       0       0       0
       0       0       0       0       0       0       0       0       0       0
       0       0       0       0       0       0       0       0       0       0
       0       0       0       0       0       0       0       0       0       0
       0       0       0       0       0       0       0       0       0       0
       0       0       0       0       0       0       0       0       0       0
       0       0       0       0       0       0       0       0       0       0
       0       0       0       0       0       0       0       0       0       0
       0       0       0       0       0       0       0       0       0       0
       0       0       0       0       0       0       0       0       0       0
       0       0       0       0       0       0       0       0       0       0
       0       0       0       0       0       0       0       0       0       0
       0       0       0       0       0       0       0       0       0       0
       0       0       0       0       0       0       0       0       0       0
       0       0       0       0       0       0       0       0       0       0
       0       0       0       0       0       0       0       0       0       0
       0       0       0       0       0       0       0       0       0       0
       0       0       0       0       0       0       0       0       0       0
       0       0       0       0       0       0       0       0       0       0
       0       0       0       0       0       0       0       0       0       0
       0       0       0       0       0       0       0       0       0       0
       0       0       0       0       0       0       0       0       0       0
       0       0       0       0       0       0       0       0       0       0
       0       0       0       0       0       0       0       0       0       0
       0       0       0       0       0       0       0       0       0       0
       0       0       0       0       0       0       0       0       0       0
       0       0       0       0       0       0       0       0       0       0
       0       0       0       0       0       0       0       0       0       0
       0       0       0       0       0       0       0       0       0       0
       0       0       0       0       0       0       0       0       0       0
       0       0       0       0       0       0       0       0       0       0
       0       0       0       0       0       0       0       0       0       0
       0       0       0       0       0       0       0       0       0       0
       0       0       0       0       0       0       0       0       0       0
       0       0       0       0       0       0       0       0       0       0
       0       0       0       0       0       0       0       0       0       0
       0       0       0       0       0       0       0       0       0       0
       0       0       0       0       0       0       0       0       0       0
       0       0       0       0       0       0       0       0       0       0
       0       0       0       0       0       0       0       0       0       0
       0       0       0       0       0       0       0       0       0       0
       0       0       0       0       0       0       0       0       0       0
       0       0       0       0       0       0       0       0       0       0
       0       0       0       0       0       0       0       0       0       0
       0       0       0       0       0       0       0       0       0       0
       0       0       0       0       0       0       0       0       0       0
       0       0       0       0       0       0       0       0       0       0
       0       0       0       0       0       0       0       0       0       0
       0       0       0       0       0       0       0       0       0       0
       0       0       0       0       0       0       0       0       0       0
       0       0       0       0       0       0       0       0       0       0
       0       0       0       0       0       0       0       0       0       0
       0       0       0       0       0       0       0       0       0       0
       0       0       0       0       0       0       0       0       0       0
       0       0       0       0       0       0       0       0       0       0
       0       0       0       0       0       0       0       0       0       0
       0       0       0       0       0       0       0       0       0       0
       0       0       0       0       0       0       0       0       0       0
       0       0       0       0       0       0       0       0       0       0
       0       0       0       0       0       0       0       0       0       0
       0       0       0       0       0       0       0       0       0       0
       0       0       0       0       0       0       0       0       0       0
       0       0       0       0       0       0       0       0       0       0
       0       0       0       0       0       0       0       0       0       0
       0       0       0       0       0       0       0       0       0       0
       0       0       0       0       0       0       0       0       0       0
       0       0       0       0       0       0       0       0       0       0
       0       0       0       0       0       0       0       0       0       0
       0       0       0       0       0       0       0       0       0       0
       0       0       0       0       0       0       0       0       0       0
       0       0       0       0       0       0       0       0       0       0
       0       0       0       0       0       0       0       0       0       0
       0       0       0       0       0       0       0       0       0       0
       0       0       0       0       0       0       0       0       0       0
       0       0       0       0       0       0       0       0       0       0
       0       0       0       0       0       0       0       0       0       0
       0       0       0       0       0       0       0       0       0       0
       0       0       0       0       0       0       0       0       0       0
       0       0       0       0       0       0       0       0       0       0
       0       0       0       0       0       0       0       0       0       0
       0       0       0       0       0       0       0       0       0       0
       0       0       0       0       0       0       0       0       0       0
       0       0       0       0       0       0       0       0       0       0
       0       0       0       0       0       0       0       0       0       0
       0       0       0       0       0       0       0       0       0       0
       0       0       0       0       0       0       0       0       0       0
       0       0       0       0       0       0       0       0       0       0
       0       0       0       0       0       0       0       0       0       0
       0       0       0       0       0       0       0       0       0       0
       0       0       0       0       0       0       0       0       0       0
       0       0       0       0       0       0       0       0       0       0
       0       0       0       0       0       0       0       0       0       0
       0       0       0       0       0       0       0       0       0       0
       0       0       0       0       0       0       0       0       0       0
       0       0       0       0       0       0       0       0       0       0
       0       0       0       0       0       0       0       0       0       0
       0       0       0       0       0       0       0       0       0       0
       0       0       0       0       0       0       0       0       0       0
       0       0       0       0       0       0       0       0       0       0
       0       0       0       0       0       0       0       0       0       0
       0       0       0       0       0       0       0       0       0       0
       0       0       0       0       0       0       0       0       0       0
       0       0       0       0       0       0       0       0       0       0
       0       0       0       0       0       0       0       0       0       0
       0       0       0       0       0       0       0       0       0       0
       0       0       0       0       0       0       0       0       0       0
       0       0       0       0       0       0       0       0       0       0
       0       0       0       0       0       0       0       0       0       0
       0       0       0       0       0       0       0       0       0       0
       0       0       0       0       0       0       0       0       0       0
       0       0       0       0       0       0       0       0       0       0
       0       0       0       0       0       0       0       0       0       0
       0       0       0       0       0       0       0       0       0       0
       0       0       0       0       0       0       0       0       0       0
       0       0       0       0       0       0       0       0       0       0
       0       0       0       0       0       0       0       0       0       0
       0       0       0       0       0       0       0       0       0       0
       0       0       0       0       0       0       0       0       0       0
       0       0       0       0       0       0       0       0       0       0
       0       0       0       0       0       0       0       0       0       0
       0       0       0       0       0       0       0       0       0       0
       0       0       0       0       0       0       0       0       0       0
       0       0       0       0       0       0       0       0       0       0
       0       0       0       0       0       0       0       0       0       0
       0       0       0       0       0       0       0       0       0       0
       0       0       0       0       0       0       0       0       0       0
       0       0       0       0       0       0       0       0       0       0
       0       0       0       0       0       0       0       0       0       0
       0       0       0       0       0       0       0       0       0       0
       0       0       0       0       0       0       0       0       0       0
       0       0       0       0       0       0       0       0       0       0
       0       0       0       0       0       0       0       0       0       0
       0       0       0       0       0       0       0       0       0       0
       0       0       0       0       0       0       0       0       0       0
       0       0       0       0       0       0       0       0       0       0
       0       0       0       0       0       0       0       0       0       0
       0       0       0       0       0       0       0       0       0       0
       0       0       0       0       0       0       0       0       0       0
       0       0       0       0       0       0       0       0       0       0
       0       0       0       0       0       0       0       0       0       0
       0       0       0       0       0       0       0       0       0       0
       0       0       0       0       0       0       0       0       0       0
       0       0       0       0       0       0       0       0       0       0
       0       0       0       0       0       0       0       0       0       0
       0       0       0       0       0       0       0       0       0       0
       0       0       0       0       0       0       0       0       0       0
       0       0       0       0       0       0       0       0       0       0
       0       0       0       0       0       0       0       0       0       0
       0       0       0       0       0       0       0       0       0       0
       0       0       0       0       0       0       0       0       0       0
       0       0       0       0       0       0       0       0       0       0
       0       0       0       0       0       0       0       0       0       0
       0       0       0       0       0       0       0       0       0       0
       0       0       0       0       0       0       0       0       0       0
       0       0       0       0       0       0       0       0       0       0
       0       0       0       0       0       0       0       0       0       0
       0       0       0       0       0       0       0       0       0       0
       0       0       0       0       0       0       0       0       0       0
       0       0       0       0       0       0       0       0       0       0
       0       0       0       0       0       0       0       0       0       0
       0       0       0       0       0       0       0       0       0       0
       0       0       0       0       0       0       0       0       0       0
       0       0       0       0       0       0       0       0       0       0
       0       0       0       0       0       0       0       0       0       0
       0       0       0       0       0       0       0       0       0       0
       0       0       0       0       0       0       0       0       0       0
       0       0       0       0       0       0       0       0       0       0
       0       0       0       0       0       0       0       0       0       0
       0       0       0       0       0       0       0       0       0       0
       0       0       0       0       0       0       0       0       0       0
       0       0       0       0       0       0       0       0       0       0
       0       0       0       0       0       0       0       0       0       0
       0       0       0       0       0       0       0       0       0       0
       0       0       0       0       0       0       0       0       0       0
       0       0       0       0       0       0       0       0       0       0
       0       0       0       0       0       0       0       0       0       0
       0       0       0       0       0       0       0       0       0       0
       0       0       0       0       0       0       0       0       0       0
       0       0       0       0       0       0       0       0       0       0
       0       0       0       0       0       0       0       0       0       0
       0       0       0       0       0       0       0       0       0       0
       0       0       0       0       0       0       0       0       0       0
       0       0       0       0       0       0       0       0       0       0
       0       0       0       0       0       0       0       0       0       0
       0       0       0       0       0       0       0       0       0       0
       0       0       0       0       0       0       0       0       0       0
       0       0       0       0       0       0       0       0       0       0
       0       0       0       0       0       0       0       0       0       0
       0       0       0       0       0       0       0       0       0       0
       0       0       0       0       0       0       0       0       0       0
       0       0       0       0       0       0       0       0       0       0
       0       0       0       0       0       0       0       0       0       0
       0       0       0       0       0       0       0       0       0       0
       0       0       0       0       0       0       0       0       0       0
       0       0       0       0       0       0       0       0       0       0
       0       0       0       0       0       0       0       0       0       0
       0       0       0       0       0       0       0
%FLAG SOLVENT_POINTERS                                                          
%FORMAT(3I8)                                                                    
     921     921     922
%FLAG ATOMS_PER_MOLECULE                                                        
%FORMAT(10I8)                                                                   
      77       6       6       6       6       6       6       6       6       6
       6       6       6       6       6       6       6       6       6       6
       6       6       6       6       6       6       6       6       6       6
       6       6       6       6       6       6       6       6       6       6
       6       6       6       6       6       6       6       6       6       6
       6       6       6       6       6       6       6       6       6       6
       6       6       6       6       6       6       6       6       6       6
       6       6       6       6       6       6       6       6       6       6
       6       6       6       6       6       6       6       6       6       6
       6       6       6       6       6       6       6       6       6       6
       6       6       6       6       6       6       6       6       6       6
       6       6       6       6       6       6       6       6       6       6
       6       6       6       6       6       6       6       6       6       6
       6       6       6       6       6       6       6       6       6       6
       6       6       6       6       6       6       6       6       6       6
       6       6       6       6       6       6       6       6       6       6
       6       6       6       6       6       6       6       6       6       6
       6       6       6       6       6       6       6       6       6       6
       6       6       6       6       6       6       6       6       6       6
       6       6       6       6       6       6       6       6       6       6
       6       6       6       6       6       6       6       6       6       6
       6       6       6       6       6       6       6       6       6       6
       6       6       6       6       6       6       6       6       6       6
       6       6       6       6       6       6       6       6       6       6
       6       6       6       6       6       6       6       6       6       6
       6       6       6       6       6       6       6       6       6       6
       6       6       6       6       6       6       6       6       6       6
       6       6       6       6       6       6       6       6       6       6
       6       6       6       6       6       6       6       6       6       6
       6       6       6       6       6       6       6       6       6       6
       6       6       6       6       6       6       6       6       6       6
       6       6       6       6       6       6       6       6       6       6
       6       6       6       6       6       6       6       6       6       6
       6       6       6       6       6       6       6       6       6       6
       6       6       6       6       6       6       6       6       6       6
       6       6       6       6       6       6       6       6       6       6
       6       6       6       6       6       6       6       6       6       6
       6       6       6       6       6       6       6       6       6       6
       6       6       6       6       6       6       6       6       6       6
       6       6       6       6       6       6       6       6       6       6
       6       6       6       6       6       6       6       6       6       6
       6       6       6       6       6       6       6       6       6       6
       6       6       6       6       6       6       6       6       6       6
       6       6       6       6       6       6       6       6       6       6
       6       6       6       6       6       6       6       6       6       6
       6       6       6       6       6       6       6       6       6       6
       6       6       6       6       6       6       6       6       6       6
       6       6       6       6       6       6       6       6       6       6
       6       6       6       6       6       6       6       6       6       6
       6       6       6       6       6       6       6       6       6       6
       6       6       6       6       6       6       6       6       6       6
       6       6       6       6       6       6       6       6       6       6
       6       6       6       6       6       6       6       6       6       6
       6       6       6       6       6       6       6       6       6       6
       6       6       6       6       6       6       6       6       6       6
       6       6       6       6       6       6       6       6       6       6
       6       6       6       6       6       6       6       6       6       6
       6       6       6       6       6       6       6       6       6       6
       6       6       6       6       6       6       6       6       6       6
       6       6       6       6       6       6       6       6       6       6
       6       6       6       6       6       6       6       6       6       6
       6       6       6       6       6       6       6       6       6       6
       6       6       6       6       6       6       6       6       6       6
       6       6       6       6       6       6       6       6       6       6
       6       6       6       6       6       6       6       6       6       6
       6       6       6       6       6       6       6       6       6       6
       6       6       6       6       6       6       6       6       6       6
       6       6       6       6       6       6       6       6       6       6
       6       6       6       6       6       6       6       6       6       6
       6       6       6       6       6       6       6       6       6       6
       6       6       6       6       6       6       6       6       6       6
       6       6       6       6       6       6       6       6       6       6
       6       6       6       6       6       6       6       6       6       6
       6       6       6       6       6       6       6       6       6       6
       6       6       6       6       6       6       6       6       6       6
       6       6       6       6       6       6       6       6       6       6
       6       6       6       6       6       6       6       6       6       6
       6       6       6       6       6       6       6       6       6       6
       6       6       6       6       6       6       6       6       6       6
       6       6       6       6       6       6       6       6       6       6
       6       6       6       6       6       6       6       6       6       6
       6       6       6       6       6       6       6       6       6       6
       6       6       6       6       6       6       6       6       6       6
       6       6       6       6       6       6       6       6       6       6
       6       6       6       6       6       6       6       6       6       6
       6       6       6       6       6       6       6       6       6       6
       6       6       6       6       6       6       6       6       6       6
       6       6       6       6       6       6       6       6       6       6
       6       6       6       6       6       6       6       6       6       6
       6       6       6       6       6       6       6       6       6       6
       6       6       6       6       6       6       6       6       6       6
       6       6       6       6       6       6       6       6       6       6
       6
%FLAG BOX_DIMENSIONS                                                            
%FORMAT(5E16.8)                                                                 
  9.00000000E+01  4.32000000E+01  4.32000000E+01  4.32000000E+01
%FLAG RADIUS_SET                                                                
%FORMAT(1a80)                                                                   
modified Bondi radii (mbondi)                                                   
%FLAG RADII                                                                     
%FORMAT(5E16.8)                                                                 
  1.70000000E+00  1.70000000E+00  1.70000000E+00  1.70000000E+00  1.70000000E+00
  1.70000000E+00  1.70000000E+00  1.70000000E+00  1.55000000E+00  1.70000000E+00
  1.70000000E+00  1.70000000E+00  1.70000000E+00  1.70000000E+00  1.70000000E+00
  1.70000000E+00  1.70000000E+00  1.70000000E+00  1.70000000E+00  1.70000000E+00
  1.55000000E+00  1.70000000E+00  1.70000000E+00  1.70000000E+00  1.70000000E+00
  1.70000000E+00  1.70000000E+00  1.70000000E+00  1.30000000E+00  1.70000000E+00
  1.70000000E+00  1.70000000E+00  1.70000000E+00  1.70000000E+00  1.30000000E+00
  1.30000000E+00  1.30000000E+00  1.30000000E+00  1.30000000E+00  1.70000000E+00
  1.30000000E+00  1.30000000E+00  1.30000000E+00  1.30000000E+00  1.30000000E+00
  1.30000000E+00  1.30000000E+00  1.30000000E+00  1.30000000E+00  1.30000000E+00
  1.30000000E+00  1.30000000E+00  1.30000000E+00  1.30000000E+00  1.30000000E+00
  1.30000000E+00  1.30000000E+00  1.30000000E+00  1.30000000E+00  1.70000000E+00
  1.30000000E+00  1.30000000E+00  1.30000000E+00  1.70000000E+00  1.30000000E+00
  1.30000000E+00  1.30000000E+00  1.50000000E+00  1.50000000E+00  8.00000000E-01
  1.70000000E+00  1.30000000E+00  1.30000000E+00  1.30000000E+00  1.50000000E+00
  1.50000000E+00  8.00000000E-01  1.55000000E+00  1.70000000E+00  1.70000000E+00
  1.30000000E+00  1.30000000E+00  1.30000000E+00  1.55000000E+00  1.70000000E+00
  1.70000000E+00  1.30000000E+00  1.30000000E+00  1.30000000E+00  1.55000000E+00
  1.70000000E+00  1.70000000E+00  1.30000000E+00  1.30000000E+00  1.30000000E+00
  1.55000000E+00  1.70000000E+00  1.70000000E+00  1.30000000E+00  1.30000000E+00
  1.30000000E+00  1.55000000E+00  1.70000000E+00  1.70000000E+00  1.30000000E+00
  1.30000000E+00  1.30000000E+00  1.55000000E+00  1.70000000E+00  1.70000000E+00
  1.30000000E+00  1.30000000E+00  1.30000000E+00  1.55000000E+00  1.70000000E+00
  1.70000000E+00  1.30000000E+00  1.30000000E+00  1.30000000E+00  1.55000000E+00
  1.70000000E+00  1.70000000E+00  1.30000000E+00  1.30000000E+00  1.30000000E+00
  1.55000000E+00  1.70000000E+00  1.70000000E+00  1.30000000E+00  1.30000000E+00
  1.30000000E+00  1.55000000E+00  1.70000000E+00  1.70000000E+00  1.30000000E+00
  1.30000000E+00  1.30000000E+00  1.55000000E+00  1.70000000E+00  1.70000000E+00
  1.30000000E+00  1.30000000E+00  1.30000000E+00  1.55000000E+00  1.70000000E+00
  1.70000000E+00  1.30000000E+00  1.30000000E+00  1.30000000E+00  1.55000000E+00
  1.70000000E+00  1.70000000E+00  1.30000000E+00  1.30000000E+00  1.30000000E+00
  1.55000000E+00  1.70000000E+00  1.70000000E+00  1.30000000E+00  1.30000000E+00
  1.30000000E+00  1.55000000E+00  1.70000000E+00  1.70000000E+00  1.30000000E+00
  1.30000000E+00  1.30000000E+00  1.55000000E+00  1.70000000E+00  1.70000000E+00
  1.30000000E+00  1.30000000E+00  1.30000000E+00  1.55000000E+00  1.70000000E+00
  1.70000000E+00  1.30000000E+00  1.30000000E+00  1.30000000E+00  1.55000000E+00
  1.70000000E+00  1.70000000E+00  1.30000000E+00  1.30000000E+00  1.30000000E+00
  1.55000000E+00  1.70000000E+00  1.70000000E+00  1.30000000E+00  1.30000000E+00
  1.30000000E+00  1.55000000E+00  1.70000000E+00  1.70000000E+00  1.30000000E+00
  1.30000000E+00  1.30000000E+00  1.55000000E+00  1.70000000E+00  1.70000000E+00
  1.30000000E+00  1.30000000E+00  1.30000000E+00  1.55000000E+00  1.70000000E+00
  1.70000000E+00  1.30000000E+00  1.30000000E+00  1.30000000E+00  1.55000000E+00
  1.70000000E+00  1.70000000E+00  1.30000000E+00  1.30000000E+00  1.30000000E+00
  1.55000000E+00  1.70000000E+00  1.70000000E+00  1.30000000E+00  1.30000000E+00
  1.30000000E+00  1.55000000E+00  1.70000000E+00  1.70000000E+00  1.30000000E+00
  1.30000000E+00  1.30000000E+00  1.55000000E+00  1.70000000E+00  1.70000000E+00
  1.30000000E+00  1.30000000E+00  1.30000000E+00  1.55000000E+00  1.70000000E+00
  1.70000000E+00  1.30000000E+00  1.30000000E+00  1.30000000E+00  1.55000000E+00
  1.70000000E+00  1.70000000E+00  1.30000000E+00  1.30000000E+00  1.30000000E+00
  1.55000000E+00  1.70000000E+00  1.70000000E+00  1.30000000E+00  1.30000000E+00
  1.30000000E+00  1.55000000E+00  1.70000000E+00  1.70000000E+00  1.30000000E+00
  1.30000000E+00  1.30000000E+00  1.55000000E+00  1.70000000E+00  1.70000000E+00
  1.30000000E+00  1.30000000E+00  1.30000000E+00  1.55000000E+00  1.70000000E+00
  1.70000000E+00  1.30000000E+00  1.30000000E+00  1.30000000E+00  1.55000000E+00
  1.70000000E+00  1.70000000E+00  1.30000000E+00  1.30000000E+00  1.30000000E+00
  1.55000000E+00  1.70000000E+00  1.70000000E+00  1.30000000E+00  1.30000000E+00
  1.30000000E+00  1.55000000E+00  1.70000000E+00  1.70000000E+00  1.30000000E+00
  1.30000000E+00  1.30000000E+00  1.55000000E+00  1.70000000E+00  1.70000000E+00
  1.30000000E+00  1.30000000E+00  1.30000000E+00  1.55000000E+00  1.70000000E+00
  1.70000000E+00  1.30000000E+00  1.30000000E+00  1.30000000E+00  1.55000000E+00
  1.70000000E+00  1.70000000E+00  1.30000000E+00  1.30000000E+00  1.30000000E+00
  1.55000000E+00  1.70000000E+00  1.70000000E+00  1.30000000E+00  1.30000000E+00
  1.30000000E+00  1.55000000E+00  1.70000000E+00  1.70000000E+00  1.30000000E+00
  1.30000000E+00  1.30000000E+00  1.55000000E+00  1.70000000E+00  1.70000000E+00
  1.30000000E+00  1.30000000E+00  1.30000000E+00  1.55000000E+00  1.70000000E+00
  1.70000000E+00  1.30000000E+00  1.30000000E+00  1.30000000E+00  1.55000000E+00
  1.70000000E+00  1.70000000E+00  1.30000000E+00  1.30000000E+00  1.30000000E+00
  1.55000000E+00  1.70000000E+00  1.70000000E+00  1.30000000E+00  1.30000000E+00
  1.30000000E+00  1.55000000E+00  1.70000000E+00  1.70000000E+00  1.30000000E+00
  1.30000000E+00  1.30000000E+00  1.55000000E+00  1.70000000E+00  1.70000000E+00
  1.30000000E+00  1.30000000E+00  1.30000000E+00  1.55000000E+00  1.70000000E+00
  1.70000000E+00  1.30000000E+00  1.30000000E+00  1.30000000E+00  1.55000000E+00
  1.70000000E+00  1.70000000E+00  1.30000000E+00  1.30000000E+00  1.30000000E+00
  1.55000000E+00  1.70000000E+00  1.70000000E+00  1.30000000E+00  1.30000000E+00
  1.30000000E+00  1.55000000E+00  1.70000000E+00  1.70000000E+00  1.30000000E+00
  1.30000000E+00  1.30000000E+00  1.55000000E+00  1.70000000E+00  1.70000000E+00
  1.30000000E+00  1.30000000E+00  1.30000000E+00  1.55000000E+00  1.70000000E+00
  1.70000000E+00  1.30000000E+00  1.30000000E+00  1.30000000E+00  1.55000000E+00
  1.70000000E+00  1.70000000E+00  1.30000000E+00  1.30000000E+00  1.30000000E+00
  1.55000000E+00  1.70000000E+00  1.70000000E+00  1.30000000E+00  1.30000000E+00
  1.30000000E+00  1.55000000E+00  1.70000000E+00  1.70000000E+00  1.30000000E+00
  1.30000000E+00  1.30000000E+00  1.55000000E+00  1.70000000E+00  1.70000000E+00
  1.30000000E+00  1.30000000E+00  1.30000000E+00  1.55000000E+00  1.70000000E+00
  1.70000000E+00  1.30000000E+00  1.30000000E+00  1.30000000E+00  1.55000000E+00
  1.70000000E+00  1.70000000E+00  1.30000000E+00  1.30000000E+00  1.30000000E+00
  1.55000000E+00  1.70000000E+00  1.70000000E+00  1.30000000E+00  1.30000000E+00
  1.30000000E+00  1.55000000E+00  1.70000000E+00  1.70000000E+00  1.30000000E+00
  1.30000000E+00  1.30000000E+00  1.55000000E+00  1.70000000E+00  1.70000000E+00
  1.30000000E+00  1.30000000E+00  1.30000000E+00  1.55000000E+00  1.70000000E+00
  1.70000000E+00  1.30000000E+00  1.30000000E+00  1.30000000E+00  1.55000000E+00
  1.70000000E+00  1.70000000E+00  1.30000000E+00  1.30000000E+00  1.30000000E+00
  1.55000000E+00  1.70000000E+00  1.70000000E+00  1.30000000E+00  1.30000000E+00
  1.30000000E+00  1.55000000E+00  1.70000000E+00  1.70000000E+00  1.30000000E+00
  1.30000000E+00  1.30000000E+00  1.55000000E+00  1.70000000E+00  1.70000000E+00
  1.30000000E+00  1.30000000E+00  1.30000000E+00  1.55000000E+00  1.70000000E+00
  1.70000000E+00  1.30000000E+00  1.30000000E+00  1.30000000E+00  1.55000000E+00
  1.70000000E+00  1.70000000E+00  1.30000000E+00  1.30000000E+00  1.30000000E+00
  1.55000000E+00  1.70000000E+00  1.70000000E+00  1.30000000E+00  1.30000000E+00
  1.30000000E+00  1.55000000E+00  1.70000000E+00  1.70000000E+00  1.30000000E+00
  1.30000000E+00  1.30000000E+00  1.55000000E+00  1.70000000E+00  1.70000000E+00
  1.30000000E+00  1.30000000E+00  1.30000000E+00  1.55000000E+00  1.70000000E+00
  1.70000000E+00  1.30000000E+00  1.30000000E+00  1.30000000E+00  1.55000000E+00
  1.70000000E+00  1.70000000E+00  1.30000000E+00  1.30000000E+00  1.30000000E+00
  1.55000000E+00  1.70000000E+00  1.70000000E+00  1.30000000E+00  1.30000000E+00
  1.30000000E+00  1.55000000E+00  1.70000000E+00  1.70000000E+00  1.30000000E+00
  1.30000000E+00  1.30000000E+00  1.55000000E+00  1.70000000E+00  1.70000000E+00
  1.30000000E+00  1.30000000E+00  1.30000000E+00  1.55000000E+00  1.70000000E+00
  1.70000000E+00  1.30000000E+00  1.30000000E+00  1.30000000E+00  1.55000000E+00
  1.70000000E+00  1.70000000E+00  1.30000000E+00  1.30000000E+00  1.30000000E+00
  1.55000000E+00  1.70000000E+00  1.70000000E+00  1.30000000E+00  1.30000000E+00
  1.30000000E+00  1.55000000E+00  1.70000000E+00  1.70000000E+00  1.30000000E+00
  1.30000000E+00  1.30000000E+00  1.55000000E+00  1.70000000E+00  1.70000000E+00
  1.30000000E+00  1.30000000E+00  1.30000000E+00  1.55000000E+00  1.70000000E+00
  1.70000000E+00  1.30000000E+00  1.30000000E+00  1.30000000E+00  1.55000000E+00
  1.70000000E+00  1.70000000E+00  1.30000000E+00  1.30000000E+00  1.30000000E+00
  1.55000000E+00  1.70000000E+00  1.70000000E+00  1.30000000E+00  1.30000000E+00
  1.30000000E+00  1.55000000E+00  1.70000000E+00  1.70000000E+00  1.30000000E+00
  1.30000000E+00  1.30000000E+00  1.55000000E+00  1.70000000E+00  1.70000000E+00
  1.30000000E+00  1.30000000E+00  1.30000000E+00  1.55000000E+00  1.70000000E+00
  1.70000000E+00  1.30000000E+00  1.30000000E+00  1.30000000E+00  1.55000000E+00
  1.70000000E+00  1.70000000E+00  1.30000000E+00  1.30000000E+00  1.30000000E+00
  1.55000000E+00  1.70000000E+00  1.70000000E+00  1.30000000E+00  1.30000000E+00
  1.30000000E+00  1.55000000E+00  1.70000000E+00  1.70000000E+00  1.30000000E+00
  1.30000000E+00  1.30000000E+00  1.55000000E+00  1.70000000E+00  1.70000000E+00
  1.30000000E+00  1.30000000E+00  1.30000000E+00  1.55000000E+00  1.70000000E+00
  1.70000000E+00  1.30000000E+00  1.30000000E+00  1.30000000E+00  1.55000000E+00
  1.70000000E+00  1.70000000E+00  1.30000000E+00  1.30000000E+00  1.30000000E+00
  1.55000000E+00  1.70000000E+00  1.70000000E+00  1.30000000E+00  1.30000000E+00
  1.30000000E+00  1.55000000E+00  1.70000000E+00  1.70000000E+00  1.30000000E+00
  1.30000000E+00  1.30000000E+00  1.55000000E+00  1.70000000E+00  1.70000000E+00
  1.30000000E+00  1.30000000E+00  1.30000000E+00  1.55000000E+00  1.70000000E+00
  1.70000000E+00  1.30000000E+00  1.30000000E+00  1.30000000E+00  1.55000000E+00
  1.70000000E+00  1.70000000E+00  1.30000000E+00  1.30000000E+00  1.30000000E+00
  1.55000000E+00  1.70000000E+00  1.70000000E+00  1.30000000E+00  1.30000000E+00
  1.30000000E+00  1.55000000E+00  1.70000000E+00  1.70000000E+00  1.30000000E+00
  1.30000000E+00  1.30000000E+00  1.55000000E+00  1.70000000E+00  1.70000000E+00
  1.30000000E+00  1.30000000E+00  1.30000000E+00  1.55000000E+00  1.70000000E+00
  1.70000000E+00  1.30000000E+00  1.30000000E+00  1.30000000E+00  1.55000000E+00
  1.70000000E+00  1.70000000E+00  1.30000000E+00  1.30000000E+00  1.30000000E+00
  1.55000000E+00  1.70000000E+00  1.70000000E+00  1.30000000E+00  1.30000000E+00
  1.30000000E+00  1.55000000E+00  1.70000000E+00  1.70000000E+00  1.30000000E+00
  1.30000000E+00  1.30000000E+00  1.55000000E+00  1.70000000E+00  1.70000000E+00
  1.30000000E+00  1.30000000E+00  1.30000000E+00  1.55000000E+00  1.70000000E+00
  1.70000000E+00  1.30000000E+00  1.30000000E+00  1.30000000E+00  1.55000000E+00
  1.70000000E+00  1.70000000E+00  1.30000000E+00  1.30000000E+00  1.30000000E+00
  1.55000000E+00  1.70000000E+00  1.70000000E+00  1.30000000E+00  1.30000000E+00
  1.30000000E+00  1.55000000E+00  1.70000000E+00  1.70000000E+00  1.30000000E+00
  1.30000000E+00  1.30000000E+00  1.55000000E+00  1.70000000E+00  1.70000000E+00
  1.30000000E+00  1.30000000E+00  1.30000000E+00  1.55000000E+00  1.70000000E+00
  1.70000000E+00  1.30000000E+00  1.30000000E+00  1.30000000E+00  1.55000000E+00
  1.70000000E+00  1.70000000E+00  1.30000000E+00  1.30000000E+00  1.30000000E+00
  1.55000000E+00  1.70000000E+00  1.70000000E+00  1.30000000E+00  1.30000000E+00
  1.30000000E+00  1.55000000E+00  1.70000000E+00  1.70000000E+00  1.30000000E+00
  1.30000000E+00  1.30000000E+00  1.55000000E+00  1.70000000E+00  1.70000000E+00
  1.30000000E+00  1.30000000E+00  1.30000000E+00  1.55000000E+00  1.70000000E+00
  1.70000000E+00  1.30000000E+00  1.30000000E+00  1.30000000E+00  1.55000000E+00
  1.70000000E+00  1.70000000E+00  1.30000000E+00  1.30000000E+00  1.30000000E+00
  1.55000000E+00  1.70000000E+00  1.70000000E+00  1.30000000E+00  1.30000000E+00
  1.30000000E+00  1.55000000E+00  1.70000000E+00  1.70000000E+00  1.30000000E+00
  1.30000000E+00  1.30000000E+00  1.55000000E+00  1.70000000E+00  1.70000000E+00
  1.30000000E+00  1.30000000E+00  1.30000000E+00  1.55000000E+00  1.70000000E+00
  1.70000000E+00  1.30000000E+00  1.30000000E+00  1.30000000E+00  1.55000000E+00
  1.70000000E+00  1.70000000E+00  1.30000000E+00  1.30000000E+00  1.30000000E+00
  1.55000000E+00  1.70000000E+00  1.70000000E+00  1.30000000E+00  1.30000000E+00
  1.30000000E+00  1.55000000E+00  1.70000000E+00  1.70000000E+00  1.30000000E+00
  1.30000000E+00  1.30000000E+00  1.55000000E+00  1.70000000E+00  1.70000000E+00
  1.30000000E+00  1.30000000E+00  1.30000000E+00  1.55000000E+00  1.70000000E+00
  1.70000000E+00  1.30000000E+00  1.30000000E+00  1.30000000E+00  1.55000000E+00
  1.70000000E+00  1.70000000E+00  1.30000000E+00  1.30000000E+00  1.30000000E+00
  1.55000000E+00  1.70000000E+00  1.70000000E+00  1.30000000E+00  1.30000000E+00
  1.30000000E+00  1.55000000E+00  1.70000000E+00  1.70000000E+00  1.30000000E+00
  1.30000000E+00  1.30000000E+00  1.55000000E+00  1.70000000E+00  1.70000000E+00
  1.30000000E+00  1.30000000E+00  1.30000000E+00  1.55000000E+00  1.70000000E+00
  1.70000000E+00  1.30000000E+00  1.30000000E+00  1.30000000E+00  1.55000000E+00
  1.70000000E+00  1.70000000E+00  1.30000000E+00  1.30000000E+00  1.30000000E+00
  1.55000000E+00  1.70000000E+00  1.70000000E+00  1.30000000E+00  1.30000000E+00
  1.30000000E+00  1.55000000E+00  1.70000000E+00  1.70000000E+00  1.30000000E+00
  1.30000000E+00  1.30000000E+00  1.55000000E+00  1.70000000E+00  1.70000000E+00
  1.30000000E+00  1.30000000E+00  1.30000000E+00  1.55000000E+00  1.70000000E+00
  1.70000000E+00  1.30000000E+00  1.30000000E+00  1.30000000E+00  1.55000000E+00
  1.70000000E+00  1.70000000E+00  1.30000000E+00  1.30000000E+00  1.30000000E+00
  1.55000000E+00  1.70000000E+00  1.70000000E+00  1.30000000E+00  1.30000000E+00
  1.30000000E+00  1.55000000E+00  1.70000000E+00  1.70000000E+00  1.30000000E+00
  1.30000000E+00  1.30000000E+00  1.55000000E+00  1.70000000E+00  1.70000000E+00
  1.30000000E+00  1.30000000E+00  1.30000000E+00  1.55000000E+00  1.70000000E+00
  1.70000000E+00  1.30000000E+00  1.30000000E+00  1.30000000E+00  1.55000000E+00
  1.70000000E+00  1.70000000E+00  1.30000000E+00  1.30000000E+00  1.30000000E+00
  1.55000000E+00  1.70000000E+00  1.70000000E+00  1.30000000E+00  1.30000000E+00
  1.30000000E+00  1.55000000E+00  1.70000000E+00  1.70000000E+00  1.30000000E+00
  1.30000000E+00  1.30000000E+00  1.55000000E+00  1.70000000E+00  1.70000000E+00
  1.30000000E+00  1.30000000E+00  1.30000000E+00  1.55000000E+00  1.70000000E+00
  1.70000000E+00  1.30000000E+00  1.30000000E+00  1.30000000E+00  1.55000000E+00
  1.70000000E+00  1.70000000E+00  1.30000000E+00  1.30000000E+00  1.30000000E+00
  1.55000000E+00  1.70000000E+00  1.70000000E+00  1.30000000E+00  1.30000000E+00
  1.30000000E+00  1.55000000E+00  1.70000000E+00  1.70000000E+00  1.30000000E+00
  1.30000000E+00  1.30000000E+00  1.55000000E+00  1.70000000E+00  1.70000000E+00
  1.30000000E+00  1.30000000E+00  1.30000000E+00  1.55000000E+00  1.70000000E+00
  1.70000000E+00  1.30000000E+00  1.30000000E+00  1.30000000E+00  1.55000000E+00
  1.70000000E+00  1.70000000E+00  1.30000000E+00  1.30000000E+00  1.30000000E+00
  1.55000000E+00  1.70000000E+00  1.70000000E+00  1.30000000E+00  1.30000000E+00
  1.30000000E+00  1.55000000E+00  1.70000000E+00  1.70000000E+00  1.30000000E+00
  1.30000000E+00  1.30000000E+00  1.55000000E+00  1.70000000E+00  1.70000000E+00
  1.30000000E+00  1.30000000E+00  1.30000000E+00  1.55000000E+00  1.70000000E+00
  1.70000000E+00  1.30000000E+00  1.30000000E+00  1.30000000E+00  1.55000000E+00
  1.70000000E+00  1.70000000E+00  1.30000000E+00  1.30000000E+00  1.30000000E+00
  1.55000000E+00  1.70000000E+00  1.70000000E+00  1.30000000E+00  1.30000000E+00
  1.30000000E+00  1.55000000E+00  1.70000000E+00  1.70000000E+00  1.30000000E+00
  1.30000000E+00  1.30000000E+00  1.55000000E+00  1.70000000E+00  1.70000000E+00
  1.30000000E+00  1.30000000E+00  1.30000000E+00  1.55000000E+00  1.70000000E+00
  1.70000000E+00  1.30000000E+00  1.30000000E+00  1.30000000E+00  1.55000000E+00
  1.70000000E+00  1.70000000E+00  1.30000000E+00  1.30000000E+00  1.30000000E+00
  1.55000000E+00  1.70000000E+00  1.70000000E+00  1.30000000E+00  1.30000000E+00
  1.30000000E+00  1.55000000E+00  1.70000000E+00  1.70000000E+00  1.30000000E+00
  1.30000000E+00  1.30000000E+00  1.55000000E+00  1.70000000E+00  1.70000000E+00
  1.30000000E+00  1.30000000E+00  1.30000000E+00  1.55000000E+00  1.70000000E+00
  1.70000000E+00  1.30000000E+00  1.30000000E+00  1.30000000E+00  1.55000000E+00
  1.70000000E+00  1.70000000E+00  1.30000000E+00  1.30000000E+00  1.30000000E+00
  1.55000000E+00  1.70000000E+00  1.70000000E+00  1.30000000E+00  1.30000000E+00
  1.30000000E+00  1.55000000E+00  1.70000000E+00  1.70000000E+00  1.30000000E+00
  1.30000000E+00  1.30000000E+00  1.55000000E+00  1.70000000E+00  1.70000000E+00
  1.30000000E+00  1.30000000E+00  1.30000000E+00  1.55000000E+00  1.70000000E+00
  1.70000000E+00  1.30000000E+00  1.30000000E+00  1.30000000E+00  1.55000000E+00
  1.70000000E+00  1.70000000E+00  1.30000000E+00  1.30000000E+00  1.30000000E+00
  1.55000000E+00  1.70000000E+00  1.70000000E+00  1.30000000E+00  1.30000000E+00
  1.30000000E+00  1.55000000E+00  1.70000000E+00  1.70000000E+00  1.30000000E+00
  1.30000000E+00  1.30000000E+00  1.55000000E+00  1.70000000E+00  1.70000000E+00
  1.30000000E+00  1.30000000E+00  1.30000000E+00  1.55000000E+00  1.70000000E+00
  1.70000000E+00  1.30000000E+00  1.30000000E+00  1.30000000E+00  1.55000000E+00
  1.70000000E+00  1.70000000E+00  1.30000000E+00  1.30000000E+00  1.30000000E+00
  1.55000000E+00  1.70000000E+00  1.70000000E+00  1.30000000E+00  1.30000000E+00
  1.30000000E+00  1.55000000E+00  1.70000000E+00  1.70000000E+00  1.30000000E+00
  1.30000000E+00  1.30000000E+00  1.55000000E+00  1.70000000E+00  1.70000000E+00
  1.30000000E+00  1.30000000E+00  1.30000000E+00  1.55000000E+00  1.70000000E+00
  1.70000000E+00  1.30000000E+00  1.30000000E+00  1.30000000E+00  1.55000000E+00
  1.70000000E+00  1.70000000E+00  1.30000000E+00  1.30000000E+00  1.30000000E+00
  1.55000000E+00  1.70000000E+00  1.70000000E+00  1.30000000E+00  1.30000000E+00
  1.30000000E+00  1.55000000E+00  1.70000000E+00  1.70000000E+00  1.30000000E+00
  1.30000000E+00  1.30000000E+00  1.55000000E+00  1.70000000E+00  1.70000000E+00
  1.30000000E+00  1.30000000E+00  1.30000000E+00  1.55000000E+00  1.70000000E+00
  1.70000000E+00  1.30000000E+00  1.30000000E+00  1.30000000E+00  1.55000000E+00
  1.70000000E+00  1.70000000E+00  1.30000000E+00  1.30000000E+00  1.30000000E+00
  1.55000000E+00  1.70000000E+00  1.70000000E+00  1.30000000E+00  1.30000000E+00
  1.30000000E+00  1.55000000E+00  1.70000000E+00  1.70000000E+00  1.30000000E+00
  1.30000000E+00  1.30000000E+00  1.55000000E+00  1.70000000E+00  1.70000000E+00
  1.30000000E+00  1.30000000E+00  1.30000000E+00  1.55000000E+00  1.70000000E+00
  1.70000000E+00  1.30000000E+00  1.30000000E+00  1.30000000E+00  1.55000000E+00
  1.70000000E+00  1.70000000E+00  1.30000000E+00  1.30000000E+00  1.30000000E+00
  1.55000000E+00  1.70000000E+00  1.70000000E+00  1.30000000E+00  1.30000000E+00
  1.30000000E+00  1.55000000E+00  1.70000000E+00  1.70000000E+00  1.30000000E+00
  1.30000000E+00  1.30000000E+00  1.55000000E+00  1.70000000E+00  1.70000000E+00
  1.30000000E+00  1.30000000E+00  1.30000000E+00  1.55000000E+00  1.70000000E+00
  1.70000000E+00  1.30000000E+00  1.30000000E+00  1.30000000E+00  1.55000000E+00
  1.70000000E+00  1.70000000E+00  1.30000000E+00  1.30000000E+00  1.30000000E+00
  1.55000000E+00  1.70000000E+00  1.70000000E+00  1.30000000E+00  1.30000000E+00
  1.30000000E+00  1.55000000E+00  1.70000000E+00  1.70000000E+00  1.30000000E+00
  1.30000000E+00  1.30000000E+00  1.55000000E+00  1.70000000E+00  1.70000000E+00
  1.30000000E+00  1.30000000E+00  1.30000000E+00  1.55000000E+00  1.70000000E+00
  1.70000000E+00  1.30000000E+00  1.30000000E+00  1.30000000E+00  1.55000000E+00
  1.70000000E+00  1.70000000E+00  1.30000000E+00  1.30000000E+00  1.30000000E+00
  1.55000000E+00  1.70000000E+00  1.70000000E+00  1.30000000E+00  1.30000000E+00
  1.30000000E+00  1.55000000E+00  1.70000000E+00  1.70000000E+00  1.30000000E+00
  1.30000000E+00  1.30000000E+00  1.55000000E+00  1.70000000E+00  1.70000000E+00
  1.30000000E+00  1.30000000E+00  1.30000000E+00  1.55000000E+00  1.70000000E+00
  1.70000000E+00  1.30000000E+00  1.30000000E+00  1.30000000E+00  1.55000000E+00
  1.70000000E+00  1.70000000E+00  1.30000000E+00  1.30000000E+00  1.30000000E+00
  1.55000000E+00  1.70000000E+00  1.70000000E+00  1.30000000E+00  1.30000000E+00
  1.30000000E+00  1.55000000E+00  1.70000000E+00  1.70000000E+00  1.30000000E+00
  1.30000000E+00  1.30000000E+00  1.55000000E+00  1.70000000E+00  1.70000000E+00
  1.30000000E+00  1.30000000E+00  1.30000000E+00  1.55000000E+00  1.70000000E+00
  1.70000000E+00  1.30000000E+00  1.30000000E+00  1.30000000E+00  1.55000000E+00
  1.70000000E+00  1.70000000E+00  1.30000000E+00  1.30000000E+00  1.30000000E+00
  1.55000000E+00  1.70000000E+00  1.70000000E+00  1.30000000E+00  1.30000000E+00
  1.30000000E+00  1.55000000E+00  1.70000000E+00  1.70000000E+00  1.30000000E+00
  1.30000000E+00  1.30000000E+00  1.55000000E+00  1.70000000E+00  1.70000000E+00
  1.30000000E+00  1.30000000E+00  1.30000000E+00  1.55000000E+00  1.70000000E+00
  1.70000000E+00  1.30000000E+00  1.30000000E+00  1.30000000E+00  1.55000000E+00
  1.70000000E+00  1.70000000E+00  1.30000000E+00  1.30000000E+00  1.30000000E+00
  1.55000000E+00  1.70000000E+00  1.70000000E+00  1.30000000E+00  1.30000000E+00
  1.30000000E+00  1.55000000E+00  1.70000000E+00  1.70000000E+00  1.30000000E+00
  1.30000000E+00  1.30000000E+00  1.55000000E+00  1.70000000E+00  1.70000000E+00
  1.30000000E+00  1.30000000E+00  1.30000000E+00  1.55000000E+00  1.70000000E+00
  1.70000000E+00  1.30000000E+00  1.30000000E+00  1.30000000E+00  1.55000000E+00
  1.70000000E+00  1.70000000E+00  1.30000000E+00  1.30000000E+00  1.30000000E+00
  1.55000000E+00  1.70000000E+00  1.70000000E+00  1.30000000E+00  1.30000000E+00
  1.30000000E+00  1.55000000E+00  1.70000000E+00  1.70000000E+00  1.30000000E+00
  1.30000000E+00  1.30000000E+00  1.55000000E+00  1.70000000E+00  1.70000000E+00
  1.30000000E+00  1.30000000E+00  1.30000000E+00  1.55000000E+00  1.70000000E+00
  1.70000000E+00  1.30000000E+00  1.30000000E+00  1.30000000E+00  1.55000000E+00
  1.70000000E+00  1.70000000E+00  1.30000000E+00  1.30000000E+00  1.30000000E+00
  1.55000000E+00  1.70000000E+00  1.70000000E+00  1.30000000E+00  1.30000000E+00
  1.30000000E+00  1.55000000E+00  1.70000000E+00  1.70000000E+00  1.30000000E+00
  1.30000000E+00  1.30000000E+00  1.55000000E+00  1.70000000E+00  1.70000000E+00
  1.30000000E+00  1.30000000E+00  1.30000000E+00  1.55000000E+00  1.70000000E+00
  1.70000000E+00  1.30000000E+00  1.30000000E+00  1.30000000E+00  1.55000000E+00
  1.70000000E+00  1.70000000E+00  1.30000000E+00  1.30000000E+00  1.30000000E+00
  1.55000000E+00  1.70000000E+00  1.70000000E+00  1.30000000E+00  1.30000000E+00
  1.30000000E+00  1.55000000E+00  1.70000000E+00  1.70000000E+00  1.30000000E+00
  1.30000000E+00  1.30000000E+00  1.55000000E+00  1.70000000E+00  1.70000000E+00
  1.30000000E+00  1.30000000E+00  1.30000000E+00  1.55000000E+00  1.70000000E+00
  1.70000000E+00  1.30000000E+00  1.30000000E+00  1.30000000E+00  1.55000000E+00
  1.70000000E+00  1.70000000E+00  1.30000000E+00  1.30000000E+00  1.30000000E+00
  1.55000000E+00  1.70000000E+00  1.70000000E+00  1.30000000E+00  1.30000000E+00
  1.30000000E+00  1.55000000E+00  1.70000000E+00  1.70000000E+00  1.30000000E+00
  1.30000000E+00  1.30000000E+00  1.55000000E+00  1.70000000E+00  1.70000000E+00
  1.30000000E+00  1.30000000E+00  1.30000000E+00  1.55000000E+00  1.70000000E+00
  1.70000000E+00  1.30000000E+00  1.30000000E+00  1.30000000E+00  1.55000000E+00
  1.70000000E+00  1.70000000E+00  1.30000000E+00  1.30000000E+00  1.30000000E+00
  1.55000000E+00  1.70000000E+00  1.70000000E+00  1.30000000E+00  1.30000000E+00
  1.30000000E+00  1.55000000E+00  1.70000000E+00  1.70000000E+00  1.30000000E+00
  1.30000000E+00  1.30000000E+00  1.55000000E+00  1.70000000E+00  1.70000000E+00
  1.30000000E+00  1.30000000E+00  1.30000000E+00  1.55000000E+00  1.70000000E+00
  1.70000000E+00  1.30000000E+00  1.30000000E+00  1.30000000E+00  1.55000000E+00
  1.70000000E+00  1.70000000E+00  1.30000000E+00  1.30000000E+00  1.30000000E+00
  1.55000000E+00  1.70000000E+00  1.70000000E+00  1.30000000E+00  1.30000000E+00
  1.30000000E+00  1.55000000E+00  1.70000000E+00  1.70000000E+00  1.30000000E+00
  1.30000000E+00  1.30000000E+00  1.55000000E+00  1.70000000E+00  1.70000000E+00
  1.30000000E+00  1.30000000E+00  1.30000000E+00  1.55000000E+00  1.70000000E+00
  1.70000000E+00  1.30000000E+00  1.30000000E+00  1.30000000E+00  1.55000000E+00
  1.70000000E+00  1.70000000E+00  1.30000000E+00  1.30000000E+00  1.30000000E+00
  1.55000000E+00  1.70000000E+00  1.70000000E+00  1.30000000E+00  1.30000000E+00
  1.30000000E+00  1.55000000E+00  1.70000000E+00  1.70000000E+00  1.30000000E+00
  1.30000000E+00  1.30000000E+00  1.55000000E+00  1.70000000E+00  1.70000000E+00
  1.30000000E+00  1.30000000E+00  1.30000000E+00  1.55000000E+00  1.70000000E+00
  1.70000000E+00  1.30000000E+00  1.30000000E+00  1.30000000E+00  1.55000000E+00
  1.70000000E+00  1.70000000E+00  1.30000000E+00  1.30000000E+00  1.30000000E+00
  1.55000000E+00  1.70000000E+00  1.70000000E+00  1.30000000E+00  1.30000000E+00
  1.30000000E+00  1.55000000E+00  1.70000000E+00  1.70000000E+00  1.30000000E+00
  1.30000000E+00  1.30000000E+00  1.55000000E+00  1.70000000E+00  1.70000000E+00
  1.30000000E+00  1.30000000E+00  1.30000000E+00  1.55000000E+00  1.70000000E+00
  1.70000000E+00  1.30000000E+00  1.30000000E+00  1.30000000E+00  1.55000000E+00
  1.70000000E+00  1.70000000E+00  1.30000000E+00  1.30000000E+00  1.30000000E+00
  1.55000000E+00  1.70000000E+00  1.70000000E+00  1.30000000E+00  1.30000000E+00
  1.30000000E+00  1.55000000E+00  1.70000000E+00  1.70000000E+00  1.30000000E+00
  1.30000000E+00  1.30000000E+00  1.55000000E+00  1.70000000E+00  1.70000000E+00
  1.30000000E+00  1.30000000E+00  1.30000000E+00  1.55000000E+00  1.70000000E+00
  1.70000000E+00  1.30000000E+00  1.30000000E+00  1.30000000E+00  1.55000000E+00
  1.70000000E+00  1.70000000E+00  1.30000000E+00  1.30000000E+00  1.30000000E+00
  1.55000000E+00  1.70000000E+00  1.70000000E+00  1.30000000E+00  1.30000000E+00
  1.30000000E+00  1.55000000E+00  1.70000000E+00  1.70000000E+00  1.30000000E+00
  1.30000000E+00  1.30000000E+00  1.55000000E+00  1.70000000E+00  1.70000000E+00
  1.30000000E+00  1.30000000E+00  1.30000000E+00  1.55000000E+00  1.70000000E+00
  1.70000000E+00  1.30000000E+00  1.30000000E+00  1.30000000E+00  1.55000000E+00
  1.70000000E+00  1.70000000E+00  1.30000000E+00  1.30000000E+00  1.30000000E+00
  1.55000000E+00  1.70000000E+00  1.70000000E+00  1.30000000E+00  1.30000000E+00
  1.30000000E+00  1.55000000E+00  1.70000000E+00  1.70000000E+00  1.30000000E+00
  1.30000000E+00  1.30000000E+00  1.55000000E+00  1.70000000E+00  1.70000000E+00
  1.30000000E+00  1.30000000E+00  1.30000000E+00  1.55000000E+00  1.70000000E+00
  1.70000000E+00  1.30000000E+00  1.30000000E+00  1.30000000E+00  1.55000000E+00
  1.70000000E+00  1.70000000E+00  1.30000000E+00  1.30000000E+00  1.30000000E+00
  1.55000000E+00  1.70000000E+00  1.70000000E+00  1.30000000E+00  1.30000000E+00
  1.30000000E+00  1.55000000E+00  1.70000000E+00  1.70000000E+00  1.30000000E+00
  1.30000000E+00  1.30000000E+00  1.55000000E+00  1.70000000E+00  1.70000000E+00
  1.30000000E+00  1.30000000E+00  1.30000000E+00  1.55000000E+00  1.70000000E+00
  1.70000000E+00  1.30000000E+00  1.30000000E+00  1.30000000E+00  1.55000000E+00
  1.70000000E+00  1.70000000E+00  1.30000000E+00  1.30000000E+00  1.30000000E+00
  1.55000000E+00  1.70000000E+00  1.70000000E+00  1.30000000E+00  1.30000000E+00
  1.30000000E+00  1.55000000E+00  1.70000000E+00  1.70000000E+00  1.30000000E+00
  1.30000000E+00  1.30000000E+00  1.55000000E+00  1.70000000E+00  1.70000000E+00
  1.30000000E+00  1.30000000E+00  1.30000000E+00  1.55000000E+00  1.70000000E+00
  1.70000000E+00  1.30000000E+00  1.30000000E+00  1.30000000E+00  1.55000000E+00
  1.70000000E+00  1.70000000E+00  1.30000000E+00  1.30000000E+00  1.30000000E+00
  1.55000000E+00  1.70000000E+00  1.70000000E+00  1.30000000E+00  1.30000000E+00
  1.30000000E+00  1.55000000E+00  1.70000000E+00  1.70000000E+00  1.30000000E+00
  1.30000000E+00  1.30000000E+00  1.55000000E+00  1.70000000E+00  1.70000000E+00
  1.30000000E+00  1.30000000E+00  1.30000000E+00  1.55000000E+00  1.70000000E+00
  1.70000000E+00  1.30000000E+00  1.30000000E+00  1.30000000E+00  1.55000000E+00
  1.70000000E+00  1.70000000E+00  1.30000000E+00  1.30000000E+00  1.30000000E+00
  1.55000000E+00  1.70000000E+00  1.70000000E+00  1.30000000E+00  1.30000000E+00
  1.30000000E+00  1.55000000E+00  1.70000000E+00  1.70000000E+00  1.30000000E+00
  1.30000000E+00  1.30000000E+00  1.55000000E+00  1.70000000E+00  1.70000000E+00
  1.30000000E+00  1.30000000E+00  1.30000000E+00  1.55000000E+00  1.70000000E+00
  1.70000000E+00  1.30000000E+00  1.30000000E+00  1.30000000E+00  1.55000000E+00
  1.70000000E+00  1.70000000E+00  1.30000000E+00  1.30000000E+00  1.30000000E+00
  1.55000000E+00  1.70000000E+00  1.70000000E+00  1.30000000E+00  1.30000000E+00
  1.30000000E+00  1.55000000E+00  1.70000000E+00  1.70000000E+00  1.30000000E+00
  1.30000000E+00  1.30000000E+00  1.55000000E+00  1.70000000E+00  1.70000000E+00
  1.30000000E+00  1.30000000E+00  1.30000000E+00  1.55000000E+00  1.70000000E+00
  1.70000000E+00  1.30000000E+00  1.30000000E+00  1.30000000E+00  1.55000000E+00
  1.70000000E+00  1.70000000E+00  1.30000000E+00  1.30000000E+00  1.30000000E+00
  1.55000000E+00  1.70000000E+00  1.70000000E+00  1.30000000E+00  1.30000000E+00
  1.30000000E+00  1.55000000E+00  1.70000000E+00  1.70000000E+00  1.30000000E+00
  1.30000000E+00  1.30000000E+00  1.55000000E+00  1.70000000E+00  1.70000000E+00
  1.30000000E+00  1.30000000E+00  1.30000000E+00  1.55000000E+00  1.70000000E+00
  1.70000000E+00  1.30000000E+00  1.30000000E+00  1.30000000E+00  1.55000000E+00
  1.70000000E+00  1.70000000E+00  1.30000000E+00  1.30000000E+00  1.30000000E+00
  1.55000000E+00  1.70000000E+00  1.70000000E+00  1.30000000E+00  1.30000000E+00
  1.30000000E+00  1.55000000E+00  1.70000000E+00  1.70000000E+00  1.30000000E+00
  1.30000000E+00  1.30000000E+00  1.55000000E+00  1.70000000E+00  1.70000000E+00
  1.30000000E+00  1.30000000E+00  1.30000000E+00  1.55000000E+00  1.70000000E+00
  1.70000000E+00  1.30000000E+00  1.30000000E+00  1.30000000E+00  1.55000000E+00
  1.70000000E+00  1.70000000E+00  1.30000000E+00  1.30000000E+00  1.30000000E+00
  1.55000000E+00  1.70000000E+00  1.70000000E+00  1.30000000E+00  1.30000000E+00
  1.30000000E+00  1.55000000E+00  1.70000000E+00  1.70000000E+00  1.30000000E+00
  1.30000000E+00  1.30000000E+00  1.55000000E+00  1.70000000E+00  1.70000000E+00
  1.30000000E+00  1.30000000E+00  1.30000000E+00  1.55000000E+00  1.70000000E+00
  1.70000000E+00  1.30000000E+00  1.30000000E+00  1.30000000E+00  1.55000000E+00
  1.70000000E+00  1.70000000E+00  1.30000000E+00  1.30000000E+00  1.30000000E+00
  1.55000000E+00  1.70000000E+00  1.70000000E+00  1.30000000E+00  1.30000000E+00
  1.30000000E+00  1.55000000E+00  1.70000000E+00  1.70000000E+00  1.30000000E+00
  1.30000000E+00  1.30000000E+00  1.55000000E+00  1.70000000E+00  1.70000000E+00
  1.30000000E+00  1.30000000E+00  1.30000000E+00  1.55000000E+00  1.70000000E+00
  1.70000000E+00  1.30000000E+00  1.30000000E+00  1.30000000E+00  1.55000000E+00
  1.70000000E+00  1.70000000E+00  1.30000000E+00  1.30000000E+00  1.30000000E+00
  1.55000000E+00  1.70000000E+00  1.70000000E+00  1.30000000E+00  1.30000000E+00
  1.30000000E+00  1.55000000E+00  1.70000000E+00  1.70000000E+00  1.30000000E+00
  1.30000000E+00  1.30000000E+00  1.55000000E+00  1.70000000E+00  1.70000000E+00
  1.30000000E+00  1.30000000E+00  1.30000000E+00  1.55000000E+00  1.70000000E+00
  1.70000000E+00  1.30000000E+00  1.30000000E+00  1.30000000E+00  1.55000000E+00
  1.70000000E+00  1.70000000E+00  1.30000000E+00  1.30000000E+00  1.30000000E+00
  1.55000000E+00  1.70000000E+00  1.70000000E+00  1.30000000E+00  1.30000000E+00
  1.30000000E+00  1.55000000E+00  1.70000000E+00  1.70000000E+00  1.30000000E+00
  1.30000000E+00  1.30000000E+00  1.55000000E+00  1.70000000E+00  1.70000000E+00
  1.30000000E+00  1.30000000E+00  1.30000000E+00  1.55000000E+00  1.70000000E+00
  1.70000000E+00  1.30000000E+00  1.30000000E+00  1.30000000E+00  1.55000000E+00
  1.70000000E+00  1.70000000E+00  1.30000000E+00  1.30000000E+00  1.30000000E+00
  1.55000000E+00  1.70000000E+00  1.70000000E+00  1.30000000E+00  1.30000000E+00
  1.30000000E+00  1.55000000E+00  1.70000000E+00  1.70000000E+00  1.30000000E+00
  1.30000000E+00  1.30000000E+00  1.55000000E+00  1.70000000E+00  1.70000000E+00
  1.30000000E+00  1.30000000E+00  1.30000000E+00  1.55000000E+00  1.70000000E+00
  1.70000000E+00  1.30000000E+00  1.30000000E+00  1.30000000E+00  1.55000000E+00
  1.70000000E+00  1.70000000E+00  1.30000000E+00  1.30000000E+00  1.30000000E+00
  1.55000000E+00  1.70000000E+00  1.70000000E+00  1.30000000E+00  1.30000000E+00
  1.30000000E+00  1.55000000E+00  1.70000000E+00  1.70000000E+00  1.30000000E+00
  1.30000000E+00  1.30000000E+00  1.55000000E+00  1.70000000E+00  1.70000000E+00
  1.30000000E+00  1.30000000E+00  1.30000000E+00  1.55000000E+00  1.70000000E+00
  1.70000000E+00  1.30000000E+00  1.30000000E+00  1.30000000E+00  1.55000000E+00
  1.70000000E+00  1.70000000E+00  1.30000000E+00  1.30000000E+00  1.30000000E+00
  1.55000000E+00  1.70000000E+00  1.70000000E+00  1.30000000E+00  1.30000000E+00
  1.30000000E+00  1.55000000E+00  1.70000000E+00  1.70000000E+00  1.30000000E+00
  1.30000000E+00  1.30000000E+00  1.55000000E+00  1.70000000E+00  1.70000000E+00
  1.30000000E+00  1.30000000E+00  1.30000000E+00  1.55000000E+00  1.70000000E+00
  1.70000000E+00  1.30000000E+00  1.30000000E+00  1.30000000E+00  1.55000000E+00
  1.70000000E+00  1.70000000E+00  1.30000000E+00  1.30000000E+00  1.30000000E+00
  1.55000000E+00  1.70000000E+00  1.70000000E+00  1.30000000E+00  1.30000000E+00
  1.30000000E+00  1.55000000E+00  1.70000000E+00  1.70000000E+00  1.30000000E+00
  1.30000000E+00  1.30000000E+00  1.55000000E+00  1.70000000E+00  1.70000000E+00
  1.30000000E+00  1.30000000E+00  1.30000000E+00  1.55000000E+00  1.70000000E+00
  1.70000000E+00  1.30000000E+00  1.30000000E+00  1.30000000E+00  1.55000000E+00
  1.70000000E+00  1.70000000E+00  1.30000000E+00  1.30000000E+00  1.30000000E+00
  1.55000000E+00  1.70000000E+00  1.70000000E+00  1.30000000E+00  1.30000000E+00
  1.30000000E+00  1.55000000E+00  1.70000000E+00  1.70000000E+00  1.30000000E+00
  1.30000000E+00  1.30000000E+00  1.55000000E+00  1.70000000E+00  1.70000000E+00
  1.30000000E+00  1.30000000E+00  1.30000000E+00  1.55000000E+00  1.70000000E+00
  1.70000000E+00  1.30000000E+00  1.30000000E+00  1.30000000E+00  1.55000000E+00
  1.70000000E+00  1.70000000E+00  1.30000000E+00  1.30000000E+00  1.30000000E+00
  1.55000000E+00  1.70000000E+00  1.70000000E+00  1.30000000E+00  1.30000000E+00
  1.30000000E+00  1.55000000E+00  1.70000000E+00  1.70000000E+00  1.30000000E+00
  1.30000000E+00  1.30000000E+00  1.55000000E+00  1.70000000E+00  1.70000000E+00
  1.30000000E+00  1.30000000E+00  1.30000000E+00  1.55000000E+00  1.70000000E+00
  1.70000000E+00  1.30000000E+00  1.30000000E+00  1.30000000E+00  1.55000000E+00
  1.70000000E+00  1.70000000E+00  1.30000000E+00  1.30000000E+00  1.30000000E+00
  1.55000000E+00  1.70000000E+00  1.70000000E+00  1.30000000E+00  1.30000000E+00
  1.30000000E+00  1.55000000E+00  1.70000000E+00  1.70000000E+00  1.30000000E+00
  1.30000000E+00  1.30000000E+00  1.55000000E+00  1.70000000E+00  1.70000000E+00
  1.30000000E+00  1.30000000E+00  1.30000000E+00  1.55000000E+00  1.70000000E+00
  1.70000000E+00  1.30000000E+00  1.30000000E+00  1.30000000E+00  1.55000000E+00
  1.70000000E+00  1.70000000E+00  1.30000000E+00  1.30000000E+00  1.30000000E+00
  1.55000000E+00  1.70000000E+00  1.70000000E+00  1.30000000E+00  1.30000000E+00
  1.30000000E+00  1.55000000E+00  1.70000000E+00  1.70000000E+00  1.30000000E+00
  1.30000000E+00  1.30000000E+00  1.55000000E+00  1.70000000E+00  1.70000000E+00
  1.30000000E+00  1.30000000E+00  1.30000000E+00  1.55000000E+00  1.70000000E+00
  1.70000000E+00  1.30000000E+00  1.30000000E+00  1.30000000E+00  1.55000000E+00
  1.70000000E+00  1.70000000E+00  1.30000000E+00  1.30000000E+00  1.30000000E+00
  1.55000000E+00  1.70000000E+00  1.70000000E+00  1.30000000E+00  1.30000000E+00
  1.30000000E+00  1.55000000E+00  1.70000000E+00  1.70000000E+00  1.30000000E+00
  1.30000000E+00  1.30000000E+00  1.55000000E+00  1.70000000E+00  1.70000000E+00
  1.30000000E+00  1.30000000E+00  1.30000000E+00  1.55000000E+00  1.70000000E+00
  1.70000000E+00  1.30000000E+00  1.30000000E+00  1.30000000E+00  1.55000000E+00
  1.70000000E+00  1.70000000E+00  1.30000000E+00  1.30000000E+00  1.30000000E+00
  1.55000000E+00  1.70000000E+00  1.70000000E+00  1.30000000E+00  1.30000000E+00
  1.30000000E+00  1.55000000E+00  1.70000000E+00  1.70000000E+00  1.30000000E+00
  1.30000000E+00  1.30000000E+00  1.55000000E+00  1.70000000E+00  1.70000000E+00
  1.30000000E+00  1.30000000E+00  1.30000000E+00  1.55000000E+00  1.70000000E+00
  1.70000000E+00  1.30000000E+00  1.30000000E+00  1.30000000E+00  1.55000000E+00
  1.70000000E+00  1.70000000E+00  1.30000000E+00  1.30000000E+00  1.30000000E+00
  1.55000000E+00  1.70000000E+00  1.70000000E+00  1.30000000E+00  1.30000000E+00
  1.30000000E+00  1.55000000E+00  1.70000000E+00  1.70000000E+00  1.30000000E+00
  1.30000000E+00  1.30000000E+00  1.55000000E+00  1.70000000E+00  1.70000000E+00
  1.30000000E+00  1.30000000E+00  1.30000000E+00  1.55000000E+00  1.70000000E+00
  1.70000000E+00  1.30000000E+00  1.30000000E+00  1.30000000E+00  1.55000000E+00
  1.70000000E+00  1.70000000E+00  1.30000000E+00  1.30000000E+00  1.30000000E+00
  1.55000000E+00  1.70000000E+00  1.70000000E+00  1.30000000E+00  1.30000000E+00
  1.30000000E+00  1.55000000E+00  1.70000000E+00  1.70000000E+00  1.30000000E+00
  1.30000000E+00  1.30000000E+00  1.55000000E+00  1.70000000E+00  1.70000000E+00
  1.30000000E+00  1.30000000E+00  1.30000000E+00  1.55000000E+00  1.70000000E+00
  1.70000000E+00  1.30000000E+00  1.30000000E+00  1.30000000E+00  1.55000000E+00
  1.70000000E+00  1.70000000E+00  1.30000000E+00  1.30000000E+00  1.30000000E+00
  1.55000000E+00  1.70000000E+00  1.70000000E+00  1.30000000E+00  1.30000000E+00
  1.30000000E+00  1.55000000E+00  1.70000000E+00  1.70000000E+00  1.30000000E+00
  1.30000000E+00  1.30000000E+00  1.55000000E+00  1.70000000E+00  1.70000000E+00
  1.30000000E+00  1.30000000E+00  1.30000000E+00  1.55000000E+00  1.70000000E+00
  1.70000000E+00  1.30000000E+00  1.30000000E+00  1.30000000E+00  1.55000000E+00
  1.70000000E+00  1.70000000E+00  1.30000000E+00  1.30000000E+00  1.30000000E+00
  1.55000000E+00  1.70000000E+00  1.70000000E+00  1.30000000E+00  1.30000000E+00
  1.30000000E+00  1.55000000E+00  1.70000000E+00  1.70000000E+00  1.30000000E+00
  1.30000000E+00  1.30000000E+00  1.55000000E+00  1.70000000E+00  1.70000000E+00
  1.30000000E+00  1.30000000E+00  1.30000000E+00  1.55000000E+00  1.70000000E+00
  1.70000000E+00  1.30000000E+00  1.30000000E+00  1.30000000E+00  1.55000000E+00
  1.70000000E+00  1.70000000E+00  1.30000000E+00  1.30000000E+00  1.30000000E+00
  1.55000000E+00  1.70000000E+00  1.70000000E+00  1.30000000E+00  1.30000000E+00
  1.30000000E+00  1.55000000E+00  1.70000000E+00  1.70000000E+00  1.30000000E+00
  1.30000000E+00  1.30000000E+00  1.55000000E+00  1.70000000E+00  1.70000000E+00
  1.30000000E+00  1.30000000E+00  1.30000000E+00  1.55000000E+00  1.70000000E+00
  1.70000000E+00  1.30000000E+00  1.30000000E+00  1.30000000E+00  1.55000000E+00
  1.70000000E+00  1.70000000E+00  1.30000000E+00  1.30000000E+00  1.30000000E+00
  1.55000000E+00  1.70000000E+00  1.70000000E+00  1.30000000E+00  1.30000000E+00
  1.30000000E+00  1.55000000E+00  1.70000000E+00  1.70000000E+00  1.30000000E+00
  1.30000000E+00  1.30000000E+00  1.55000000E+00  1.70000000E+00  1.70000000E+00
  1.30000000E+00  1.30000000E+00  1.30000000E+00  1.55000000E+00  1.70000000E+00
  1.70000000E+00  1.30000000E+00  1.30000000E+00  1.30000000E+00  1.55000000E+00
  1.70000000E+00  1.70000000E+00  1.30000000E+00  1.30000000E+00  1.30000000E+00
  1.55000000E+00  1.70000000E+00  1.70000000E+00  1.30000000E+00  1.30000000E+00
  1.30000000E+00  1.55000000E+00  1.70000000E+00  1.70000000E+00  1.30000000E+00
  1.30000000E+00  1.30000000E+00  1.55000000E+00  1.70000000E+00  1.70000000E+00
  1.30000000E+00  1.30000000E+00  1.30000000E+00  1.55000000E+00  1.70000000E+00
  1.70000000E+00  1.30000000E+00  1.30000000E+00  1.30000000E+00  1.55000000E+00
  1.70000000E+00  1.70000000E+00  1.30000000E+00  1.30000000E+00  1.30000000E+00
  1.55000000E+00  1.70000000E+00  1.70000000E+00  1.30000000E+00  1.30000000E+00
  1.30000000E+00  1.55000000E+00  1.70000000E+00  1.70000000E+00  1.30000000E+00
  1.30000000E+00  1.30000000E+00  1.55000000E+00  1.70000000E+00  1.70000000E+00
  1.30000000E+00  1.30000000E+00  1.30000000E+00  1.55000000E+00  1.70000000E+00
  1.70000000E+00  1.30000000E+00  1.30000000E+00  1.30000000E+00  1.55000000E+00
  1.70000000E+00  1.70000000E+00  1.30000000E+00  1.30000000E+00  1.30000000E+00
  1.55000000E+00  1.70000000E+00  1.70000000E+00  1.30000000E+00  1.30000000E+00
  1.30000000E+00  1.55000000E+00  1.70000000E+00  1.70000000E+00  1.30000000E+00
  1.30000000E+00  1.30000000E+00  1.55000000E+00  1.70000000E+00  1.70000000E+00
  1.30000000E+00  1.30000000E+00  1.30000000E+00  1.55000000E+00  1.70000000E+00
  1.70000000E+00  1.30000000E+00  1.30000000E+00  1.30000000E+00  1.55000000E+00
  1.70000000E+00  1.70000000E+00  1.30000000E+00  1.30000000E+00  1.30000000E+00
  1.55000000E+00  1.70000000E+00  1.70000000E+00  1.30000000E+00  1.30000000E+00
  1.30000000E+00  1.55000000E+00  1.70000000E+00  1.70000000E+00  1.30000000E+00
  1.30000000E+00  1.30000000E+00  1.55000000E+00  1.70000000E+00  1.70000000E+00
  1.30000000E+00  1.30000000E+00  1.30000000E+00  1.55000000E+00  1.70000000E+00
  1.70000000E+00  1.30000000E+00  1.30000000E+00  1.30000000E+00  1.55000000E+00
  1.70000000E+00  1.70000000E+00  1.30000000E+00  1.30000000E+00  1.30000000E+00
  1.55000000E+00  1.70000000E+00  1.70000000E+00  1.30000000E+00  1.30000000E+00
  1.30000000E+00  1.55000000E+00  1.70000000E+00  1.70000000E+00  1.30000000E+00
  1.30000000E+00  1.30000000E+00  1.55000000E+00  1.70000000E+00  1.70000000E+00
  1.30000000E+00  1.30000000E+00  1.30000000E+00  1.55000000E+00  1.70000000E+00
  1.70000000E+00  1.30000000E+00  1.30000000E+00  1.30000000E+00  1.55000000E+00
  1.70000000E+00  1.70000000E+00  1.30000000E+00  1.30000000E+00  1.30000000E+00
  1.55000000E+00  1.70000000E+00  1.70000000E+00  1.30000000E+00  1.30000000E+00
  1.30000000E+00  1.55000000E+00  1.70000000E+00  1.70000000E+00  1.30000000E+00
  1.30000000E+00  1.30000000E+00  1.55000000E+00  1.70000000E+00  1.70000000E+00
  1.30000000E+00  1.30000000E+00  1.30000000E+00  1.55000000E+00  1.70000000E+00
  1.70000000E+00  1.30000000E+00  1.30000000E+00  1.30000000E+00  1.55000000E+00
  1.70000000E+00  1.70000000E+00  1.30000000E+00  1.30000000E+00  1.30000000E+00
  1.55000000E+00  1.70000000E+00  1.70000000E+00  1.30000000E+00  1.30000000E+00
  1.30000000E+00  1.55000000E+00  1.70000000E+00  1.70000000E+00  1.30000000E+00
  1.30000000E+00  1.30000000E+00  1.55000000E+00  1.70000000E+00  1.70000000E+00
  1.30000000E+00  1.30000000E+00  1.30000000E+00  1.55000000E+00  1.70000000E+00
  1.70000000E+00  1.30000000E+00  1.30000000E+00  1.30000000E+00  1.55000000E+00
  1.70000000E+00  1.70000000E+00  1.30000000E+00  1.30000000E+00  1.30000000E+00
  1.55000000E+00  1.70000000E+00  1.70000000E+00  1.30000000E+00  1.30000000E+00
  1.30000000E+00  1.55000000E+00  1.70000000E+00  1.70000000E+00  1.30000000E+00
  1.30000000E+00  1.30000000E+00  1.55000000E+00  1.70000000E+00  1.70000000E+00
  1.30000000E+00  1.30000000E+00  1.30000000E+00  1.55000000E+00  1.70000000E+00
  1.70000000E+00  1.30000000E+00  1.30000000E+00  1.30000000E+00  1.55000000E+00
  1.70000000E+00  1.70000000E+00  1.30000000E+00  1.30000000E+00  1.30000000E+00
  1.55000000E+00  1.70000000E+00  1.70000000E+00  1.30000000E+00  1.30000000E+00
  1.30000000E+00  1.55000000E+00  1.70000000E+00  1.70000000E+00  1.30000000E+00
  1.30000000E+00  1.30000000E+00  1.55000000E+00  1.70000000E+00  1.70000000E+00
  1.30000000E+00  1.30000000E+00  1.30000000E+00  1.55000000E+00  1.70000000E+00
  1.70000000E+00  1.30000000E+00  1.30000000E+00  1.30000000E+00  1.55000000E+00
  1.70000000E+00  1.70000000E+00  1.30000000E+00  1.30000000E+00  1.30000000E+00
  1.55000000E+00  1.70000000E+00  1.70000000E+00  1.30000000E+00  1.30000000E+00
  1.30000000E+00  1.55000000E+00  1.70000000E+00  1.70000000E+00  1.30000000E+00
  1.30000000E+00  1.30000000E+00  1.55000000E+00  1.70000000E+00  1.70000000E+00
  1.30000000E+00  1.30000000E+00  1.30000000E+00  1.55000000E+00  1.70000000E+00
  1.70000000E+00  1.30000000E+00  1.30000000E+00  1.30000000E+00  1.55000000E+00
  1.70000000E+00  1.70000000E+00  1.30000000E+00  1.30000000E+00  1.30000000E+00
  1.55000000E+00  1.70000000E+00  1.70000000E+00  1.30000000E+00  1.30000000E+00
  1.30000000E+00  1.55000000E+00  1.70000000E+00  1.70000000E+00  1.30000000E+00
  1.30000000E+00  1.30000000E+00  1.55000000E+00  1.70000000E+00  1.70000000E+00
  1.30000000E+00  1.30000000E+00  1.30000000E+00  1.55000000E+00  1.70000000E+00
  1.70000000E+00  1.30000000E+00  1.30000000E+00  1.30000000E+00  1.55000000E+00
  1.70000000E+00  1.70000000E+00  1.30000000E+00  1.30000000E+00  1.30000000E+00
  1.55000000E+00  1.70000000E+00  1.70000000E+00  1.30000000E+00  1.30000000E+00
  1.30000000E+00  1.55000000E+00  1.70000000E+00  1.70000000E+00  1.30000000E+00
  1.30000000E+00  1.30000000E+00  1.55000000E+00  1.70000000E+00  1.70000000E+00
  1.30000000E+00  1.30000000E+00  1.30000000E+00  1.55000000E+00  1.70000000E+00
  1.70000000E+00  1.30000000E+00  1.30000000E+00  1.30000000E+00  1.55000000E+00
  1.70000000E+00  1.70000000E+00  1.30000000E+00  1.30000000E+00  1.30000000E+00
  1.55000000E+00  1.70000000E+00  1.70000000E+00  1.30000000E+00  1.30000000E+00
  1.30000000E+00  1.55000000E+00  1.70000000E+00  1.70000000E+00  1.30000000E+00
  1.30000000E+00  1.30000000E+00  1.55000000E+00  1.70000000E+00  1.70000000E+00
  1.30000000E+00  1.30000000E+00  1.30000000E+00  1.55000000E+00  1.70000000E+00
  1.70000000E+00  1.30000000E+00  1.30000000E+00  1.30000000E+00  1.55000000E+00
  1.70000000E+00  1.70000000E+00  1.30000000E+00  1.30000000E+00  1.30000000E+00
  1.55000000E+00  1.70000000E+00  1.70000000E+00  1.30000000E+00  1.30000000E+00
  1.30000000E+00  1.55000000E+00  1.70000000E+00  1.70000000E+00  1.30000000E+00
  1.30000000E+00  1.30000000E+00  1.55000000E+00  1.70000000E+00  1.70000000E+00
  1.30000000E+00  1.30000000E+00  1.30000000E+00  1.55000000E+00  1.70000000E+00
  1.70000000E+00  1.30000000E+00  1.30000000E+00  1.30000000E+00  1.55000000E+00
  1.70000000E+00  1.70000000E+00  1.30000000E+00  1.30000000E+00  1.30000000E+00
  1.55000000E+00  1.70000000E+00  1.70000000E+00  1.30000000E+00  1.30000000E+00
  1.30000000E+00  1.55000000E+00  1.70000000E+00  1.70000000E+00  1.30000000E+00
  1.30000000E+00  1.30000000E+00  1.55000000E+00  1.70000000E+00  1.70000000E+00
  1.30000000E+00  1.30000000E+00  1.30000000E+00  1.55000000E+00  1.70000000E+00
  1.70000000E+00  1.30000000E+00  1.30000000E+00  1.30000000E+00  1.55000000E+00
  1.70000000E+00  1.70000000E+00  1.30000000E+00  1.30000000E+00  1.30000000E+00
  1.55000000E+00  1.70000000E+00  1.70000000E+00  1.30000000E+00  1.30000000E+00
  1.30000000E+00  1.55000000E+00  1.70000000E+00  1.70000000E+00  1.30000000E+00
  1.30000000E+00  1.30000000E+00  1.55000000E+00  1.70000000E+00  1.70000000E+00
  1.30000000E+00  1.30000000E+00  1.30000000E+00  1.55000000E+00  1.70000000E+00
  1.70000000E+00  1.30000000E+00  1.30000000E+00  1.30000000E+00  1.55000000E+00
  1.70000000E+00  1.70000000E+00  1.30000000E+00  1.30000000E+00  1.30000000E+00
  1.55000000E+00  1.70000000E+00  1.70000000E+00  1.30000000E+00  1.30000000E+00
  1.30000000E+00  1.55000000E+00  1.70000000E+00  1.70000000E+00  1.30000000E+00
  1.30000000E+00  1.30000000E+00  1.55000000E+00  1.70000000E+00  1.70000000E+00
  1.30000000E+00  1.30000000E+00  1.30000000E+00  1.55000000E+00  1.70000000E+00
  1.70000000E+00  1.30000000E+00  1.30000000E+00  1.30000000E+00  1.55000000E+00
  1.70000000E+00  1.70000000E+00  1.30000000E+00  1.30000000E+00  1.30000000E+00
  1.55000000E+00  1.70000000E+00  1.70000000E+00  1.30000000E+00  1.30000000E+00
  1.30000000E+00  1.55000000E+00  1.70000000E+00  1.70000000E+00  1.30000000E+00
  1.30000000E+00  1.30000000E+00  1.55000000E+00  1.70000000E+00  1.70000000E+00
  1.30000000E+00  1.30000000E+00  1.30000000E+00  1.55000000E+00  1.70000000E+00
  1.70000000E+00  1.30000000E+00  1.30000000E+00  1.30000000E+00  1.55000000E+00
  1.70000000E+00  1.70000000E+00  1.30000000E+00  1.30000000E+00  1.30000000E+00
  1.55000000E+00  1.70000000E+00  1.70000000E+00  1.30000000E+00  1.30000000E+00
  1.30000000E+00  1.55000000E+00  1.70000000E+00  1.70000000E+00  1.30000000E+00
  1.30000000E+00  1.30000000E+00  1.55000000E+00  1.70000000E+00  1.70000000E+00
  1.30000000E+00  1.30000000E+00  1.30000000E+00  1.55000000E+00  1.70000000E+00
  1.70000000E+00  1.30000000E+00  1.30000000E+00  1.30000000E+00  1.55000000E+00
  1.70000000E+00  1.70000000E+00  1.30000000E+00  1.30000000E+00  1.30000000E+00
  1.55000000E+00  1.70000000E+00  1.70000000E+00  1.30000000E+00  1.30000000E+00
  1.30000000E+00  1.55000000E+00  1.70000000E+00  1.70000000E+00  1.30000000E+00
  1.30000000E+00  1.30000000E+00  1.55000000E+00  1.70000000E+00  1.70000000E+00
  1.30000000E+00  1.30000000E+00  1.30000000E+00  1.55000000E+00  1.70000000E+00
  1.70000000E+00  1.30000000E+00  1.30000000E+00  1.30000000E+00  1.55000000E+00
  1.70000000E+00  1.70000000E+00  1.30000000E+00  1.30000000E+00  1.30000000E+00
  1.55000000E+00  1.70000000E+00  1.70000000E+00  1.30000000E+00  1.30000000E+00
  1.30000000E+00  1.55000000E+00  1.70000000E+00  1.70000000E+00  1.30000000E+00
  1.30000000E+00  1.30000000E+00  1.55000000E+00  1.70000000E+00  1.70000000E+00
  1.30000000E+00  1.30000000E+00  1.30000000E+00  1.55000000E+00  1.70000000E+00
  1.70000000E+00  1.30000000E+00  1.30000000E+00  1.30000000E+00  1.55000000E+00
  1.70000000E+00  1.70000000E+00  1.30000000E+00  1.30000000E+00  1.30000000E+00
  1.55000000E+00  1.70000000E+00  1.70000000E+00  1.30000000E+00  1.30000000E+00
  1.30000000E+00  1.55000000E+00  1.70000000E+00  1.70000000E+00  1.30000000E+00
  1.30000000E+00  1.30000000E+00  1.55000000E+00  1.70000000E+00  1.70000000E+00
  1.30000000E+00  1.30000000E+00  1.30000000E+00  1.55000000E+00  1.70000000E+00
  1.70000000E+00  1.30000000E+00  1.30000000E+00  1.30000000E+00  1.55000000E+00
  1.70000000E+00  1.70000000E+00  1.30000000E+00  1.30000000E+00  1.30000000E+00
  1.55000000E+00  1.70000000E+00  1.70000000E+00  1.30000000E+00  1.30000000E+00
  1.30000000E+00  1.55000000E+00  1.70000000E+00  1.70000000E+00  1.30000000E+00
  1.30000000E+00  1.30000000E+00  1.55000000E+00  1.70000000E+00  1.70000000E+00
  1.30000000E+00  1.30000000E+00  1.30000000E+00  1.55000000E+00  1.70000000E+00
  1.70000000E+00  1.30000000E+00  1.30000000E+00  1.30000000E+00  1.55000000E+00
  1.70000000E+00  1.70000000E+00  1.30000000E+00  1.30000000E+00  1.30000000E+00
  1.55000000E+00  1.70000000E+00  1.70000000E+00  1.30000000E+00  1.30000000E+00
  1.30000000E+00  1.55000000E+00  1.70000000E+00  1.70000000E+00  1.30000000E+00
  1.30000000E+00  1.30000000E+00  1.55000000E+00  1.70000000E+00  1.70000000E+00
  1.30000000E+00  1.30000000E+00  1.30000000E+00  1.55000000E+00  1.70000000E+00
  1.70000000E+00  1.30000000E+00  1.30000000E+00  1.30000000E+00  1.55000000E+00
  1.70000000E+00  1.70000000E+00  1.30000000E+00  1.30000000E+00  1.30000000E+00
  1.55000000E+00  1.70000000E+00  1.70000000E+00  1.30000000E+00  1.30000000E+00
  1.30000000E+00  1.55000000E+00  1.70000000E+00  1.70000000E+00  1.30000000E+00
  1.30000000E+00  1.30000000E+00  1.55000000E+00  1.70000000E+00  1.70000000E+00
  1.30000000E+00  1.30000000E+00  1.30000000E+00  1.55000000E+00  1.70000000E+00
  1.70000000E+00  1.30000000E+00  1.30000000E+00  1.30000000E+00  1.55000000E+00
  1.70000000E+00  1.70000000E+00  1.30000000E+00  1.30000000E+00  1.30000000E+00
  1.55000000E+00  1.70000000E+00  1.70000000E+00  1.30000000E+00  1.30000000E+00
  1.30000000E+00  1.55000000E+00  1.70000000E+00  1.70000000E+00  1.30000000E+00
  1.30000000E+00  1.30000000E+00  1.55000000E+00  1.70000000E+00  1.70000000E+00
  1.30000000E+00  1.30000000E+00  1.30000000E+00  1.55000000E+00  1.70000000E+00
  1.70000000E+00  1.30000000E+00  1.30000000E+00  1.30000000E+00  1.55000000E+00
  1.70000000E+00  1.70000000E+00  1.30000000E+00  1.30000000E+00  1.30000000E+00
  1.55000000E+00  1.70000000E+00  1.70000000E+00  1.30000000E+00  1.30000000E+00
  1.30000000E+00  1.55000000E+00  1.70000000E+00  1.70000000E+00  1.30000000E+00
  1.30000000E+00  1.30000000E+00  1.55000000E+00  1.70000000E+00  1.70000000E+00
  1.30000000E+00  1.30000000E+00  1.30000000E+00  1.55000000E+00  1.70000000E+00
  1.70000000E+00  1.30000000E+00  1.30000000E+00  1.30000000E+00  1.55000000E+00
  1.70000000E+00  1.70000000E+00  1.30000000E+00  1.30000000E+00  1.30000000E+00
  1.55000000E+00  1.70000000E+00  1.70000000E+00  1.30000000E+00  1.30000000E+00
  1.30000000E+00  1.55000000E+00  1.70000000E+00  1.70000000E+00  1.30000000E+00
  1.30000000E+00  1.30000000E+00  1.55000000E+00  1.70000000E+00  1.70000000E+00
  1.30000000E+00  1.30000000E+00  1.30000000E+00  1.55000000E+00  1.70000000E+00
  1.70000000E+00  1.30000000E+00  1.30000000E+00  1.30000000E+00  1.55000000E+00
  1.70000000E+00  1.70000000E+00  1.30000000E+00  1.30000000E+00  1.30000000E+00
  1.55000000E+00  1.70000000E+00  1.70000000E+00  1.30000000E+00  1.30000000E+00
  1.30000000E+00  1.55000000E+00  1.70000000E+00  1.70000000E+00  1.30000000E+00
  1.30000000E+00  1.30000000E+00  1.55000000E+00  1.70000000E+00  1.70000000E+00
  1.30000000E+00  1.30000000E+00  1.30000000E+00  1.55000000E+00  1.70000000E+00
  1.70000000E+00  1.30000000E+00  1.30000000E+00  1.30000000E+00  1.55000000E+00
  1.70000000E+00  1.70000000E+00  1.30000000E+00  1.30000000E+00  1.30000000E+00
  1.55000000E+00  1.70000000E+00  1.70000000E+00  1.30000000E+00  1.30000000E+00
  1.30000000E+00  1.55000000E+00  1.70000000E+00  1.70000000E+00  1.30000000E+00
  1.30000000E+00  1.30000000E+00  1.55000000E+00  1.70000000E+00  1.70000000E+00
  1.30000000E+00  1.30000000E+00  1.30000000E+00  1.55000000E+00  1.70000000E+00
  1.70000000E+00  1.30000000E+00  1.30000000E+00  1.30000000E+00  1.55000000E+00
  1.70000000E+00  1.70000000E+00  1.30000000E+00  1.30000000E+00  1.30000000E+00
  1.55000000E+00  1.70000000E+00  1.70000000E+00  1.30000000E+00  1.30000000E+00
  1.30000000E+00  1.55000000E+00  1.70000000E+00  1.70000000E+00  1.30000000E+00
  1.30000000E+00  1.30000000E+00  1.55000000E+00  1.70000000E+00  1.70000000E+00
  1.30000000E+00  1.30000000E+00  1.30000000E+00  1.55000000E+00  1.70000000E+00
  1.70000000E+00  1.30000000E+00  1.30000000E+00  1.30000000E+00  1.55000000E+00
  1.70000000E+00  1.70000000E+00  1.30000000E+00  1.30000000E+00  1.30000000E+00
  1.55000000E+00  1.70000000E+00  1.70000000E+00  1.30000000E+00  1.30000000E+00
  1.30000000E+00  1.55000000E+00  1.70000000E+00  1.70000000E+00  1.30000000E+00
  1.30000000E+00  1.30000000E+00  1.55000000E+00  1.70000000E+00  1.70000000E+00
  1.30000000E+00  1.30000000E+00  1.30000000E+00  1.55000000E+00  1.70000000E+00
  1.70000000E+00  1.30000000E+00  1.30000000E+00  1.30000000E+00  1.55000000E+00
  1.70000000E+00  1.70000000E+00  1.30000000E+00  1.30000000E+00  1.30000000E+00
  1.55000000E+00  1.70000000E+00  1.70000000E+00  1.30000000E+00  1.30000000E+00
  1.30000000E+00  1.55000000E+00  1.70000000E+00  1.70000000E+00  1.30000000E+00
  1.30000000E+00  1.30000000E+00  1.55000000E+00  1.70000000E+00  1.70000000E+00
  1.30000000E+00  1.30000000E+00  1.30000000E+00  1.55000000E+00  1.70000000E+00
  1.70000000E+00  1.30000000E+00  1.30000000E+00  1.30000000E+00  1.55000000E+00
  1.70000000E+00  1.70000000E+00  1.30000000E+00  1.30000000E+00  1.30000000E+00
  1.55000000E+00  1.70000000E+00  1.70000000E+00  1.30000000E+00  1.30000000E+00
  1.30000000E+00  1.55000000E+00  1.70000000E+00  1.70000000E+00  1.30000000E+00
  1.30000000E+00  1.30000000E+00  1.55000000E+00  1.70000000E+00  1.70000000E+00
  1.30000000E+00  1.30000000E+00  1.30000000E+00  1.55000000E+00  1.70000000E+00
  1.70000000E+00  1.30000000E+00  1.30000000E+00  1.30000000E+00  1.55000000E+00
  1.70000000E+00  1.70000000E+00  1.30000000E+00  1.30000000E+00  1.30000000E+00
  1.55000000E+00  1.70000000E+00  1.70000000E+00  1.30000000E+00  1.30000000E+00
  1.30000000E+00  1.55000000E+00  1.70000000E+00  1.70000000E+00  1.30000000E+00
  1.30000000E+00  1.30000000E+00  1.55000000E+00  1.70000000E+00  1.70000000E+00
  1.30000000E+00  1.30000000E+00  1.30000000E+00  1.55000000E+00  1.70000000E+00
  1.70000000E+00  1.30000000E+00  1.30000000E+00  1.30000000E+00  1.55000000E+00
  1.70000000E+00  1.70000000E+00  1.30000000E+00  1.30000000E+00  1.30000000E+00
  1.55000000E+00  1.70000000E+00  1.70000000E+00  1.30000000E+00  1.30000000E+00
  1.30000000E+00  1.55000000E+00  1.70000000E+00  1.70000000E+00  1.30000000E+00
  1.30000000E+00  1.30000000E+00  1.55000000E+00  1.70000000E+00  1.70000000E+00
  1.30000000E+00  1.30000000E+00  1.30000000E+00  1.55000000E+00  1.70000000E+00
  1.70000000E+00  1.30000000E+00  1.30000000E+00  1.30000000E+00  1.55000000E+00
  1.70000000E+00  1.70000000E+00  1.30000000E+00  1.30000000E+00  1.30000000E+00
  1.55000000E+00  1.70000000E+00  1.70000000E+00  1.30000000E+00  1.30000000E+00
  1.30000000E+00  1.55000000E+00  1.70000000E+00  1.70000000E+00  1.30000000E+00
  1.30000000E+00  1.30000000E+00  1.55000000E+00  1.70000000E+00  1.70000000E+00
  1.30000000E+00  1.30000000E+00  1.30000000E+00  1.55000000E+00  1.70000000E+00
  1.70000000E+00  1.30000000E+00  1.30000000E+00  1.30000000E+00  1.55000000E+00
  1.70000000E+00  1.70000000E+00  1.30000000E+00  1.30000000E+00  1.30000000E+00
  1.55000000E+00  1.70000000E+00  1.70000000E+00  1.30000000E+00  1.30000000E+00
  1.30000000E+00  1.55000000E+00  1.70000000E+00  1.70000000E+00  1.30000000E+00
  1.30000000E+00  1.30000000E+00  1.55000000E+00  1.70000000E+00  1.70000000E+00
  1.30000000E+00  1.30000000E+00  1.30000000E+00  1.55000000E+00  1.70000000E+00
  1.70000000E+00  1.30000000E+00  1.30000000E+00  1.30000000E+00  1.55000000E+00
  1.70000000E+00  1.70000000E+00  1.30000000E+00  1.30000000E+00  1.30000000E+00
  1.55000000E+00  1.70000000E+00  1.70000000E+00  1.30000000E+00  1.30000000E+00
  1.30000000E+00  1.55000000E+00  1.70000000E+00  1.70000000E+00  1.30000000E+00
  1.30000000E+00  1.30000000E+00  1.55000000E+00  1.70000000E+00  1.70000000E+00
  1.30000000E+00  1.30000000E+00  1.30000000E+00  1.55000000E+00  1.70000000E+00
  1.70000000E+00  1.30000000E+00  1.30000000E+00  1.30000000E+00  1.55000000E+00
  1.70000000E+00  1.70000000E+00  1.30000000E+00  1.30000000E+00  1.30000000E+00
  1.55000000E+00  1.70000000E+00  1.70000000E+00  1.30000000E+00  1.30000000E+00
  1.30000000E+00  1.55000000E+00  1.70000000E+00  1.70000000E+00  1.30000000E+00
  1.30000000E+00  1.30000000E+00  1.55000000E+00  1.70000000E+00  1.70000000E+00
  1.30000000E+00  1.30000000E+00  1.30000000E+00  1.55000000E+00  1.70000000E+00
  1.70000000E+00  1.30000000E+00  1.30000000E+00  1.30000000E+00  1.55000000E+00
  1.70000000E+00  1.70000000E+00  1.30000000E+00  1.30000000E+00  1.30000000E+00
  1.55000000E+00  1.70000000E+00  1.70000000E+00  1.30000000E+00  1.30000000E+00
  1.30000000E+00  1.55000000E+00  1.70000000E+00  1.70000000E+00  1.30000000E+00
  1.30000000E+00  1.30000000E+00  1.55000000E+00  1.70000000E+00  1.70000000E+00
  1.30000000E+00  1.30000000E+00  1.30000000E+00  1.55000000E+00  1.70000000E+00
  1.70000000E+00  1.30000000E+00  1.30000000E+00  1.30000000E+00  1.55000000E+00
  1.70000000E+00  1.70000000E+00  1.30000000E+00  1.30000000E+00  1.30000000E+00
  1.55000000E+00  1.70000000E+00  1.70000000E+00  1.30000000E+00  1.30000000E+00
  1.30000000E+00  1.55000000E+00  1.70000000E+00  1.70000000E+00  1.30000000E+00
  1.30000000E+00  1.30000000E+00  1.55000000E+00  1.70000000E+00  1.70000000E+00
  1.30000000E+00  1.30000000E+00  1.30000000E+00  1.55000000E+00  1.70000000E+00
  1.70000000E+00  1.30000000E+00  1.30000000E+00  1.30000000E+00  1.55000000E+00
  1.70000000E+00  1.70000000E+00  1.30000000E+00  1.30000000E+00  1.30000000E+00
  1.55000000E+00  1.70000000E+00  1.70000000E+00  1.30000000E+00  1.30000000E+00
  1.30000000E+00  1.55000000E+00  1.70000000E+00  1.70000000E+00  1.30000000E+00
  1.30000000E+00  1.30000000E+00  1.55000000E+00  1.70000000E+00  1.70000000E+00
  1.30000000E+00  1.30000000E+00  1.30000000E+00  1.55000000E+00  1.70000000E+00
  1.70000000E+00  1.30000000E+00  1.30000000E+00  1.30000000E+00  1.55000000E+00
  1.70000000E+00  1.70000000E+00  1.30000000E+00  1.30000000E+00  1.30000000E+00
  1.55000000E+00  1.70000000E+00  1.70000000E+00  1.30000000E+00  1.30000000E+00
  1.30000000E+00  1.55000000E+00  1.70000000E+00  1.70000000E+00  1.30000000E+00
  1.30000000E+00  1.30000000E+00  1.55000000E+00  1.70000000E+00  1.70000000E+00
  1.30000000E+00  1.30000000E+00  1.30000000E+00  1.55000000E+00  1.70000000E+00
  1.70000000E+00  1.30000000E+00  1.30000000E+00  1.30000000E+00  1.55000000E+00
  1.70000000E+00  1.70000000E+00  1.30000000E+00  1.30000000E+00  1.30000000E+00
  1.55000000E+00  1.70000000E+00  1.70000000E+00  1.30000000E+00  1.30000000E+00
  1.30000000E+00  1.55000000E+00  1.70000000E+00  1.70000000E+00  1.30000000E+00
  1.30000000E+00  1.30000000E+00  1.55000000E+00  1.70000000E+00  1.70000000E+00
  1.30000000E+00  1.30000000E+00  1.30000000E+00  1.55000000E+00  1.70000000E+00
  1.70000000E+00  1.30000000E+00  1.30000000E+00  1.30000000E+00  1.55000000E+00
  1.70000000E+00  1.70000000E+00  1.30000000E+00  1.30000000E+00  1.30000000E+00
  1.55000000E+00  1.70000000E+00  1.70000000E+00  1.30000000E+00  1.30000000E+00
  1.30000000E+00  1.55000000E+00  1.70000000E+00  1.70000000E+00  1.30000000E+00
  1.30000000E+00  1.30000000E+00  1.55000000E+00  1.70000000E+00  1.70000000E+00
  1.30000000E+00  1.30000000E+00  1.30000000E+00  1.55000000E+00  1.70000000E+00
  1.70000000E+00  1.30000000E+00  1.30000000E+00  1.30000000E+00  1.55000000E+00
  1.70000000E+00  1.70000000E+00  1.30000000E+00  1.30000000E+00  1.30000000E+00
  1.55000000E+00  1.70000000E+00  1.70000000E+00  1.30000000E+00  1.30000000E+00
  1.30000000E+00  1.55000000E+00  1.70000000E+00  1.70000000E+00  1.30000000E+00
  1.30000000E+00  1.30000000E+00  1.55000000E+00  1.70000000E+00  1.70000000E+00
  1.30000000E+00  1.30000000E+00  1.30000000E+00  1.55000000E+00  1.70000000E+00
  1.70000000E+00  1.30000000E+00  1.30000000E+00  1.30000000E+00  1.55000000E+00
  1.70000000E+00  1.70000000E+00  1.30000000E+00  1.30000000E+00  1.30000000E+00
  1.55000000E+00  1.70000000E+00  1.70000000E+00  1.30000000E+00  1.30000000E+00
  1.30000000E+00  1.55000000E+00  1.70000000E+00  1.70000000E+00  1.30000000E+00
  1.30000000E+00  1.30000000E+00  1.55000000E+00  1.70000000E+00  1.70000000E+00
  1.30000000E+00  1.30000000E+00  1.30000000E+00  1.55000000E+00  1.70000000E+00
  1.70000000E+00  1.30000000E+00  1.30000000E+00  1.30000000E+00  1.55000000E+00
  1.70000000E+00  1.70000000E+00  1.30000000E+00  1.30000000E+00  1.30000000E+00
  1.55000000E+00  1.70000000E+00  1.70000000E+00  1.30000000E+00  1.30000000E+00
  1.30000000E+00  1.55000000E+00  1.70000000E+00  1.70000000E+00  1.30000000E+00
  1.30000000E+00  1.30000000E+00  1.55000000E+00  1.70000000E+00  1.70000000E+00
  1.30000000E+00  1.30000000E+00  1.30000000E+00  1.55000000E+00  1.70000000E+00
  1.70000000E+00  1.30000000E+00  1.30000000E+00  1.30000000E+00  1.55000000E+00
  1.70000000E+00  1.70000000E+00  1.30000000E+00  1.30000000E+00  1.30000000E+00
  1.55000000E+00  1.70000000E+00  1.70000000E+00  1.30000000E+00  1.30000000E+00
  1.30000000E+00  1.55000000E+00  1.70000000E+00  1.70000000E+00  1.30000000E+00
  1.30000000E+00  1.30000000E+00  1.55000000E+00  1.70000000E+00  1.70000000E+00
  1.30000000E+00  1.30000000E+00  1.30000000E+00  1.55000000E+00  1.70000000E+00
  1.70000000E+00  1.30000000E+00  1.30000000E+00  1.30000000E+00  1.55000000E+00
  1.70000000E+00  1.70000000E+00  1.30000000E+00  1.30000000E+00  1.30000000E+00
  1.55000000E+00  1.70000000E+00  1.70000000E+00  1.30000000E+00  1.30000000E+00
  1.30000000E+00  1.55000000E+00  1.70000000E+00  1.70000000E+00  1.30000000E+00
  1.30000000E+00  1.30000000E+00  1.55000000E+00  1.70000000E+00  1.70000000E+00
  1.30000000E+00  1.30000000E+00  1.30000000E+00  1.55000000E+00  1.70000000E+00
  1.70000000E+00  1.30000000E+00  1.30000000E+00  1.30000000E+00  1.55000000E+00
  1.70000000E+00  1.70000000E+00  1.30000000E+00  1.30000000E+00  1.30000000E+00
  1.55000000E+00  1.70000000E+00  1.70000000E+00  1.30000000E+00  1.30000000E+00
  1.30000000E+00  1.55000000E+00  1.70000000E+00  1.70000000E+00  1.30000000E+00
  1.30000000E+00  1.30000000E+00  1.55000000E+00  1.70000000E+00  1.70000000E+00
  1.30000000E+00  1.30000000E+00  1.30000000E+00  1.55000000E+00  1.70000000E+00
  1.70000000E+00  1.30000000E+00  1.30000000E+00  1.30000000E+00  1.55000000E+00
  1.70000000E+00  1.70000000E+00  1.30000000E+00  1.30000000E+00  1.30000000E+00
  1.55000000E+00  1.70000000E+00  1.70000000E+00  1.30000000E+00  1.30000000E+00
  1.30000000E+00  1.55000000E+00  1.70000000E+00  1.70000000E+00  1.30000000E+00
  1.30000000E+00  1.30000000E+00  1.55000000E+00  1.70000000E+00  1.70000000E+00
  1.30000000E+00  1.30000000E+00  1.30000000E+00  1.55000000E+00  1.70000000E+00
  1.70000000E+00  1.30000000E+00  1.30000000E+00  1.30000000E+00  1.55000000E+00
  1.70000000E+00  1.70000000E+00  1.30000000E+00  1.30000000E+00  1.30000000E+00
  1.55000000E+00  1.70000000E+00  1.70000000E+00  1.30000000E+00  1.30000000E+00
  1.30000000E+00  1.55000000E+00  1.70000000E+00  1.70000000E+00  1.30000000E+00
  1.30000000E+00  1.30000000E+00  1.55000000E+00  1.70000000E+00  1.70000000E+00
  1.30000000E+00  1.30000000E+00  1.30000000E+00  1.55000000E+00  1.70000000E+00
  1.70000000E+00  1.30000000E+00  1.30000000E+00  1.30000000E+00  1.55000000E+00
  1.70000000E+00  1.70000000E+00  1.30000000E+00  1.30000000E+00  1.30000000E+00
  1.55000000E+00  1.70000000E+00  1.70000000E+00  1.30000000E+00  1.30000000E+00
  1.30000000E+00  1.55000000E+00  1.70000000E+00  1.70000000E+00  1.30000000E+00
  1.30000000E+00  1.30000000E+00  1.55000000E+00  1.70000000E+00  1.70000000E+00
  1.30000000E+00  1.30000000E+00  1.30000000E+00  1.55000000E+00  1.70000000E+00
  1.70000000E+00  1.30000000E+00  1.30000000E+00  1.30000000E+00  1.55000000E+00
  1.70000000E+00  1.70000000E+00  1.30000000E+00  1.30000000E+00  1.30000000E+00
  1.55000000E+00  1.70000000E+00  1.70000000E+00  1.30000000E+00  1.30000000E+00
  1.30000000E+00  1.55000000E+00  1.70000000E+00  1.70000000E+00  1.30000000E+00
  1.30000000E+00  1.30000000E+00  1.55000000E+00  1.70000000E+00  1.70000000E+00
  1.30000000E+00  1.30000000E+00  1.30000000E+00  1.55000000E+00  1.70000000E+00
  1.70000000E+00  1.30000000E+00  1.30000000E+00  1.30000000E+00  1.55000000E+00
  1.70000000E+00  1.70000000E+00  1.30000000E+00  1.30000000E+00  1.30000000E+00
  1.55000000E+00  1.70000000E+00  1.70000000E+00  1.30000000E+00  1.30000000E+00
  1.30000000E+00  1.55000000E+00  1.70000000E+00  1.70000000E+00  1.30000000E+00
  1.30000000E+00  1.30000000E+00  1.55000000E+00  1.70000000E+00  1.70000000E+00
  1.30000000E+00  1.30000000E+00  1.30000000E+00  1.55000000E+00  1.70000000E+00
  1.70000000E+00  1.30000000E+00  1.30000000E+00  1.30000000E+00  1.55000000E+00
  1.70000000E+00  1.70000000E+00  1.30000000E+00  1.30000000E+00  1.30000000E+00
  1.55000000E+00  1.70000000E+00  1.70000000E+00  1.30000000E+00  1.30000000E+00
  1.30000000E+00  1.55000000E+00  1.70000000E+00  1.70000000E+00  1.30000000E+00
  1.30000000E+00  1.30000000E+00  1.55000000E+00  1.70000000E+00  1.70000000E+00
  1.30000000E+00  1.30000000E+00  1.30000000E+00  1.55000000E+00  1.70000000E+00
  1.70000000E+00  1.30000000E+00  1.30000000E+00  1.30000000E+00  1.55000000E+00
  1.70000000E+00  1.70000000E+00  1.30000000E+00  1.30000000E+00  1.30000000E+00
  1.55000000E+00  1.70000000E+00  1.70000000E+00  1.30000000E+00  1.30000000E+00
  1.30000000E+00  1.55000000E+00  1.70000000E+00  1.70000000E+00  1.30000000E+00
  1.30000000E+00  1.30000000E+00  1.55000000E+00  1.70000000E+00  1.70000000E+00
  1.30000000E+00  1.30000000E+00  1.30000000E+00  1.55000000E+00  1.70000000E+00
  1.70000000E+00  1.30000000E+00  1.30000000E+00  1.30000000E+00  1.55000000E+00
  1.70000000E+00  1.70000000E+00  1.30000000E+00  1.30000000E+00  1.30000000E+00
  1.55000000E+00  1.70000000E+00  1.70000000E+00  1.30000000E+00  1.30000000E+00
  1.30000000E+00  1.55000000E+00  1.70000000E+00  1.70000000E+00  1.30000000E+00
  1.30000000E+00  1.30000000E+00  1.55000000E+00  1.70000000E+00  1.70000000E+00
  1.30000000E+00  1.30000000E+00  1.30000000E+00  1.55000000E+00  1.70000000E+00
  1.70000000E+00  1.30000000E+00  1.30000000E+00  1.30000000E+00  1.55000000E+00
  1.70000000E+00  1.70000000E+00  1.30000000E+00  1.30000000E+00  1.30000000E+00
  1.55000000E+00  1.70000000E+00  1.70000000E+00  1.30000000E+00  1.30000000E+00
  1.30000000E+00  1.55000000E+00  1.70000000E+00  1.70000000E+00  1.30000000E+00
  1.30000000E+00  1.30000000E+00  1.55000000E+00  1.70000000E+00  1.70000000E+00
  1.30000000E+00  1.30000000E+00  1.30000000E+00  1.55000000E+00  1.70000000E+00
  1.70000000E+00  1.30000000E+00  1.30000000E+00  1.30000000E+00  1.55000000E+00
  1.70000000E+00  1.70000000E+00  1.30000000E+00  1.30000000E+00  1.30000000E+00
  1.55000000E+00  1.70000000E+00  1.70000000E+00  1.30000000E+00  1.30000000E+00
  1.30000000E+00  1.55000000E+00  1.70000000E+00  1.70000000E+00  1.30000000E+00
  1.30000000E+00  1.30000000E+00  1.55000000E+00  1.70000000E+00  1.70000000E+00
  1.30000000E+00  1.30000000E+00  1.30000000E+00  1.55000000E+00  1.70000000E+00
  1.70000000E+00  1.30000000E+00  1.30000000E+00  1.30000000E+00  1.55000000E+00
  1.70000000E+00  1.70000000E+00  1.30000000E+00  1.30000000E+00  1.30000000E+00
  1.55000000E+00  1.70000000E+00  1.70000000E+00  1.30000000E+00  1.30000000E+00
  1.30000000E+00  1.55000000E+00  1.70000000E+00  1.70000000E+00  1.30000000E+00
  1.30000000E+00  1.30000000E+00  1.55000000E+00  1.70000000E+00  1.70000000E+00
  1.30000000E+00  1.30000000E+00  1.30000000E+00  1.55000000E+00  1.70000000E+00
  1.70000000E+00  1.30000000E+00  1.30000000E+00  1.30000000E+00  1.55000000E+00
  1.70000000E+00  1.70000000E+00  1.30000000E+00  1.30000000E+00  1.30000000E+00
  1.55000000E+00  1.70000000E+00  1.70000000E+00  1.30000000E+00  1.30000000E+00
  1.30000000E+00  1.55000000E+00  1.70000000E+00  1.70000000E+00  1.30000000E+00
  1.30000000E+00  1.30000000E+00  1.55000000E+00  1.70000000E+00  1.70000000E+00
  1.30000000E+00  1.30000000E+00  1.30000000E+00  1.55000000E+00  1.70000000E+00
  1.70000000E+00  1.30000000E+00  1.30000000E+00  1.30000000E+00  1.55000000E+00
  1.70000000E+00  1.70000000E+00  1.30000000E+00  1.30000000E+00  1.30000000E+00
  1.55000000E+00  1.70000000E+00  1.70000000E+00  1.30000000E+00  1.30000000E+00
  1.30000000E+00  1.55000000E+00  1.70000000E+00  1.70000000E+00  1.30000000E+00
  1.30000000E+00  1.30000000E+00  1.55000000E+00  1.70000000E+00  1.70000000E+00
  1.30000000E+00  1.30000000E+00  1.30000000E+00  1.55000000E+00  1.70000000E+00
  1.70000000E+00  1.30000000E+00  1.30000000E+00  1.30000000E+00  1.55000000E+00
  1.70000000E+00  1.70000000E+00  1.30000000E+00  1.30000000E+00  1.30000000E+00
  1.55000000E+00  1.70000000E+00  1.70000000E+00  1.30000000E+00  1.30000000E+00
  1.30000000E+00  1.55000000E+00  1.70000000E+00  1.70000000E+00  1.30000000E+00
  1.30000000E+00  1.30000000E+00  1.55000000E+00  1.70000000E+00  1.70000000E+00
  1.30000000E+00  1.30000000E+00  1.30000000E+00  1.55000000E+00  1.70000000E+00
  1.70000000E+00  1.30000000E+00  1.30000000E+00  1.30000000E+00  1.55000000E+00
  1.70000000E+00  1.70000000E+00  1.30000000E+00  1.30000000E+00  1.30000000E+00
  1.55000000E+00  1.70000000E+00  1.70000000E+00  1.30000000E+00  1.30000000E+00
  1.30000000E+00  1.55000000E+00  1.70000000E+00  1.70000000E+00  1.30000000E+00
  1.30000000E+00  1.30000000E+00  1.55000000E+00  1.70000000E+00  1.70000000E+00
  1.30000000E+00  1.30000000E+00  1.30000000E+00  1.55000000E+00  1.70000000E+00
  1.70000000E+00  1.30000000E+00  1.30000000E+00  1.30000000E+00  1.55000000E+00
  1.70000000E+00  1.70000000E+00  1.30000000E+00  1.30000000E+00  1.30000000E+00
  1.55000000E+00  1.70000000E+00  1.70000000E+00  1.30000000E+00  1.30000000E+00
  1.30000000E+00  1.55000000E+00  1.70000000E+00  1.70000000E+00  1.30000000E+00
  1.30000000E+00  1.30000000E+00  1.55000000E+00  1.70000000E+00  1.70000000E+00
  1.30000000E+00  1.30000000E+00  1.30000000E+00  1.55000000E+00  1.70000000E+00
  1.70000000E+00  1.30000000E+00  1.30000000E+00  1.30000000E+00  1.55000000E+00
  1.70000000E+00  1.70000000E+00  1.30000000E+00  1.30000000E+00  1.30000000E+00
  1.55000000E+00  1.70000000E+00  1.70000000E+00  1.30000000E+00  1.30000000E+00
  1.30000000E+00  1.55000000E+00  1.70000000E+00  1.70000000E+00  1.30000000E+00
  1.30000000E+00  1.30000000E+00  1.55000000E+00  1.70000000E+00  1.70000000E+00
  1.30000000E+00  1.30000000E+00  1.30000000E+00  1.55000000E+00  1.70000000E+00
  1.70000000E+00  1.30000000E+00  1.30000000E+00  1.30000000E+00  1.55000000E+00
  1.70000000E+00  1.70000000E+00  1.30000000E+00  1.30000000E+00  1.30000000E+00
  1.55000000E+00  1.70000000E+00  1.70000000E+00  1.30000000E+00  1.30000000E+00
  1.30000000E+00  1.55000000E+00  1.70000000E+00  1.70000000E+00  1.30000000E+00
  1.30000000E+00  1.30000000E+00  1.55000000E+00  1.70000000E+00  1.70000000E+00
  1.30000000E+00  1.30000000E+00  1.30000000E+00  1.55000000E+00  1.70000000E+00
  1.70000000E+00  1.30000000E+00  1.30000000E+00  1.30000000E+00  1.55000000E+00
  1.70000000E+00  1.70000000E+00  1.30000000E+00  1.30000000E+00  1.30000000E+00
  1.55000000E+00  1.70000000E+00  1.70000000E+00  1.30000000E+00  1.30000000E+00
  1.30000000E+00  1.55000000E+00  1.70000000E+00  1.70000000E+00  1.30000000E+00
  1.30000000E+00  1.30000000E+00  1.55000000E+00  1.70000000E+00  1.70000000E+00
  1.30000000E+00  1.30000000E+00  1.30000000E+00  1.55000000E+00  1.70000000E+00
  1.70000000E+00  1.30000000E+00  1.30000000E+00  1.30000000E+00  1.55000000E+00
  1.70000000E+00  1.70000000E+00  1.30000000E+00  1.30000000E+00  1.30000000E+00
  1.55000000E+00  1.70000000E+00  1.70000000E+00  1.30000000E+00  1.30000000E+00
  1.30000000E+00  1.55000000E+00  1.70000000E+00  1.70000000E+00  1.30000000E+00
  1.30000000E+00  1.30000000E+00  1.55000000E+00  1.70000000E+00  1.70000000E+00
  1.30000000E+00  1.30000000E+00  1.30000000E+00  1.55000000E+00  1.70000000E+00
  1.70000000E+00  1.30000000E+00  1.30000000E+00  1.30000000E+00  1.55000000E+00
  1.70000000E+00  1.70000000E+00  1.30000000E+00  1.30000000E+00  1.30000000E+00
  1.55000000E+00  1.70000000E+00  1.70000000E+00  1.30000000E+00  1.30000000E+00
  1.30000000E+00  1.55000000E+00  1.70000000E+00  1.70000000E+00  1.30000000E+00
  1.30000000E+00  1.30000000E+00  1.55000000E+00  1.70000000E+00  1.70000000E+00
  1.30000000E+00  1.30000000E+00  1.30000000E+00  1.55000000E+00  1.70000000E+00
  1.70000000E+00  1.30000000E+00  1.30000000E+00  1.30000000E+00  1.55000000E+00
  1.70000000E+00  1.70000000E+00  1.30000000E+00  1.30000000E+00  1.30000000E+00
  1.55000000E+00  1.70000000E+00  1.70000000E+00  1.30000000E+00  1.30000000E+00
  1.30000000E+00  1.55000000E+00  1.70000000E+00  1.70000000E+00  1.30000000E+00
  1.30000000E+00  1.30000000E+00  1.55000000E+00  1.70000000E+00  1.70000000E+00
  1.30000000E+00  1.30000000E+00  1.30000000E+00  1.55000000E+00  1.70000000E+00
  1.70000000E+00  1.30000000E+00  1.30000000E+00  1.30000000E+00  1.55000000E+00
  1.70000000E+00  1.70000000E+00  1.30000000E+00  1.30000000E+00  1.30000000E+00
  1.55000000E+00  1.70000000E+00  1.70000000E+00  1.30000000E+00  1.30000000E+00
  1.30000000E+00  1.55000000E+00  1.70000000E+00  1.70000000E+00  1.30000000E+00
  1.30000000E+00  1.30000000E+00  1.55000000E+00  1.70000000E+00  1.70000000E+00
  1.30000000E+00  1.30000000E+00  1.30000000E+00  1.55000000E+00  1.70000000E+00
  1.70000000E+00  1.30000000E+00  1.30000000E+00  1.30000000E+00  1.55000000E+00
  1.70000000E+00  1.70000000E+00  1.30000000E+00  1.30000000E+00  1.30000000E+00
  1.55000000E+00  1.70000000E+00  1.70000000E+00  1.30000000E+00  1.30000000E+00
  1.30000000E+00  1.55000000E+00  1.70000000E+00  1.70000000E+00  1.30000000E+00
  1.30000000E+00  1.30000000E+00  1.55000000E+00  1.70000000E+00  1.70000000E+00
  1.30000000E+00  1.30000000E+00  1.30000000E+00  1.55000000E+00  1.70000000E+00
  1.70000000E+00  1.30000000E+00  1.30000000E+00  1.30000000E+00  1.55000000E+00
  1.70000000E+00  1.70000000E+00  1.30000000E+00  1.30000000E+00  1.30000000E+00
  1.55000000E+00  1.70000000E+00  1.70000000E+00  1.30000000E+00  1.30000000E+00
  1.30000000E+00  1.55000000E+00  1.70000000E+00  1.70000000E+00  1.30000000E+00
  1.30000000E+00  1.30000000E+00  1.55000000E+00  1.70000000E+00  1.70000000E+00
  1.30000000E+00  1.30000000E+00  1.30000000E+00  1.55000000E+00  1.70000000E+00
  1.70000000E+00  1.30000000E+00  1.30000000E+00  1.30000000E+00  1.55000000E+00
  1.70000000E+00  1.70000000E+00  1.30000000E+00  1.30000000E+00  1.30000000E+00
  1.55000000E+00  1.70000000E+00  1.70000000E+00  1.30000000E+00  1.30000000E+00
  1.30000000E+00  1.55000000E+00  1.70000000E+00  1.70000000E+00  1.30000000E+00
  1.30000000E+00  1.30000000E+00  1.55000000E+00  1.70000000E+00  1.70000000E+00
  1.30000000E+00  1.30000000E+00  1.30000000E+00  1.55000000E+00  1.70000000E+00
  1.70000000E+00  1.30000000E+00  1.30000000E+00  1.30000000E+00  1.55000000E+00
  1.70000000E+00  1.70000000E+00  1.30000000E+00  1.30000000E+00  1.30000000E+00
  1.55000000E+00  1.70000000E+00  1.70000000E+00  1.30000000E+00  1.30000000E+00
  1.30000000E+00  1.55000000E+00  1.70000000E+00  1.70000000E+00  1.30000000E+00
  1.30000000E+00  1.30000000E+00  1.55000000E+00  1.70000000E+00  1.70000000E+00
  1.30000000E+00  1.30000000E+00  1.30000000E+00  1.55000000E+00  1.70000000E+00
  1.70000000E+00  1.30000000E+00  1.30000000E+00  1.30000000E+00  1.55000000E+00
  1.70000000E+00  1.70000000E+00  1.30000000E+00  1.30000000E+00  1.30000000E+00
  1.55000000E+00  1.70000000E+00  1.70000000E+00  1.30000000E+00  1.30000000E+00
  1.30000000E+00  1.55000000E+00  1.70000000E+00  1.70000000E+00  1.30000000E+00
  1.30000000E+00  1.30000000E+00  1.55000000E+00  1.70000000E+00  1.70000000E+00
  1.30000000E+00  1.30000000E+00  1.30000000E+00  1.55000000E+00  1.70000000E+00
  1.70000000E+00  1.30000000E+00  1.30000000E+00  1.30000000E+00  1.55000000E+00
  1.70000000E+00  1.70000000E+00  1.30000000E+00  1.30000000E+00  1.30000000E+00
  1.55000000E+00  1.70000000E+00  1.70000000E+00  1.30000000E+00  1.30000000E+00
  1.30000000E+00  1.55000000E+00  1.70000000E+00  1.70000000E+00  1.30000000E+00
  1.30000000E+00  1.30000000E+00  1.55000000E+00  1.70000000E+00  1.70000000E+00
  1.30000000E+00  1.30000000E+00  1.30000000E+00  1.55000000E+00  1.70000000E+00
  1.70000000E+00  1.30000000E+00  1.30000000E+00  1.30000000E+00  1.55000000E+00
  1.70000000E+00  1.70000000E+00  1.30000000E+00  1.30000000E+00  1.30000000E+00
  1.55000000E+00  1.70000000E+00  1.70000000E+00  1.30000000E+00  1.30000000E+00
  1.30000000E+00  1.55000000E+00  1.70000000E+00  1.70000000E+00  1.30000000E+00
  1.30000000E+00  1.30000000E+00  1.55000000E+00  1.70000000E+00  1.70000000E+00
  1.30000000E+00  1.30000000E+00  1.30000000E+00  1.55000000E+00  1.70000000E+00
  1.70000000E+00  1.30000000E+00  1.30000000E+00  1.30000000E+00  1.55000000E+00
  1.70000000E+00  1.70000000E+00  1.30000000E+00  1.30000000E+00  1.30000000E+00
  1.55000000E+00  1.70000000E+00  1.70000000E+00  1.30000000E+00  1.30000000E+00
  1.30000000E+00  1.55000000E+00  1.70000000E+00  1.70000000E+00  1.30000000E+00
  1.30000000E+00  1.30000000E+00  1.55000000E+00  1.70000000E+00  1.70000000E+00
  1.30000000E+00  1.30000000E+00  1.30000000E+00  1.55000000E+00  1.70000000E+00
  1.70000000E+00  1.30000000E+00  1.30000000E+00  1.30000000E+00  1.55000000E+00
  1.70000000E+00  1.70000000E+00  1.30000000E+00  1.30000000E+00  1.30000000E+00
  1.55000000E+00  1.70000000E+00  1.70000000E+00  1.30000000E+00  1.30000000E+00
  1.30000000E+00  1.55000000E+00  1.70000000E+00  1.70000000E+00  1.30000000E+00
  1.30000000E+00  1.30000000E+00  1.55000000E+00  1.70000000E+00  1.70000000E+00
  1.30000000E+00  1.30000000E+00  1.30000000E+00  1.55000000E+00  1.70000000E+00
  1.70000000E+00  1.30000000E+00  1.30000000E+00  1.30000000E+00  1.55000000E+00
  1.70000000E+00  1.70000000E+00  1.30000000E+00  1.30000000E+00  1.30000000E+00
  1.55000000E+00  1.70000000E+00  1.70000000E+00  1.30000000E+00  1.30000000E+00
  1.30000000E+00  1.55000000E+00  1.70000000E+00  1.70000000E+00  1.30000000E+00
  1.30000000E+00  1.30000000E+00  1.55000000E+00  1.70000000E+00  1.70000000E+00
  1.30000000E+00  1.30000000E+00  1.30000000E+00  1.55000000E+00  1.70000000E+00
  1.70000000E+00  1.30000000E+00  1.30000000E+00  1.30000000E+00  1.55000000E+00
  1.70000000E+00  1.70000000E+00  1.30000000E+00  1.30000000E+00  1.30000000E+00
  1.55000000E+00  1.70000000E+00  1.70000000E+00  1.30000000E+00  1.30000000E+00
  1.30000000E+00  1.55000000E+00  1.70000000E+00  1.70000000E+00  1.30000000E+00
  1.30000000E+00  1.30000000E+00  1.55000000E+00  1.70000000E+00  1.70000000E+00
  1.30000000E+00  1.30000000E+00  1.30000000E+00  1.55000000E+00  1.70000000E+00
  1.70000000E+00  1.30000000E+00  1.30000000E+00  1.30000000E+00  1.55000000E+00
  1.70000000E+00  1.70000000E+00  1.30000000E+00  1.30000000E+00  1.30000000E+00
  1.55000000E+00  1.70000000E+00  1.70000000E+00  1.30000000E+00  1.30000000E+00
  1.30000000E+00  1.55000000E+00  1.70000000E+00  1.70000000E+00  1.30000000E+00
  1.30000000E+00  1.30000000E+00  1.55000000E+00  1.70000000E+00  1.70000000E+00
  1.30000000E+00  1.30000000E+00  1.30000000E+00  1.55000000E+00  1.70000000E+00
  1.70000000E+00  1.30000000E+00  1.30000000E+00  1.30000000E+00  1.55000000E+00
  1.70000000E+00  1.70000000E+00  1.30000000E+00  1.30000000E+00  1.30000000E+00
  1.55000000E+00  1.70000000E+00  1.70000000E+00  1.30000000E+00  1.30000000E+00
  1.30000000E+00  1.55000000E+00  1.70000000E+00  1.70000000E+00  1.30000000E+00
  1.30000000E+00  1.30000000E+00  1.55000000E+00  1.70000000E+00  1.70000000E+00
  1.30000000E+00  1.30000000E+00  1.30000000E+00  1.55000000E+00  1.70000000E+00
  1.70000000E+00  1.30000000E+00  1.30000000E+00  1.30000000E+00  1.55000000E+00
  1.70000000E+00  1.70000000E+00  1.30000000E+00  1.30000000E+00  1.30000000E+00
  1.55000000E+00  1.70000000E+00  1.70000000E+00  1.30000000E+00  1.30000000E+00
  1.30000000E+00  1.55000000E+00  1.70000000E+00  1.70000000E+00  1.30000000E+00
  1.30000000E+00  1.30000000E+00  1.55000000E+00  1.70000000E+00  1.70000000E+00
  1.30000000E+00  1.30000000E+00  1.30000000E+00  1.55000000E+00  1.70000000E+00
  1.70000000E+00  1.30000000E+00  1.30000000E+00  1.30000000E+00  1.55000000E+00
  1.70000000E+00  1.70000000E+00  1.30000000E+00  1.30000000E+00  1.30000000E+00
  1.55000000E+00  1.70000000E+00  1.70000000E+00  1.30000000E+00  1.30000000E+00
  1.30000000E+00  1.55000000E+00  1.70000000E+00  1.70000000E+00  1.30000000E+00
  1.30000000E+00  1.30000000E+00  1.55000000E+00  1.70000000E+00  1.70000000E+00
  1.30000000E+00  1.30000000E+00  1.30000000E+00  1.55000000E+00  1.70000000E+00
  1.70000000E+00  1.30000000E+00  1.30000000E+00  1.30000000E+00  1.55000000E+00
  1.70000000E+00  1.70000000E+00  1.30000000E+00  1.30000000E+00  1.30000000E+00
  1.55000000E+00  1.70000000E+00  1.70000000E+00  1.30000000E+00  1.30000000E+00
  1.30000000E+00  1.55000000E+00  1.70000000E+00  1.70000000E+00  1.30000000E+00
  1.30000000E+00  1.30000000E+00  1.55000000E+00  1.70000000E+00  1.70000000E+00
  1.30000000E+00  1.30000000E+00  1.30000000E+00  1.55000000E+00  1.70000000E+00
  1.70000000E+00  1.30000000E+00  1.30000000E+00  1.30000000E+00  1.55000000E+00
  1.70000000E+00  1.70000000E+00  1.30000000E+00  1.30000000E+00  1.30000000E+00
  1.55000000E+00  1.70000000E+00  1.70000000E+00  1.30000000E+00  1.30000000E+00
  1.30000000E+00  1.55000000E+00  1.70000000E+00  1.70000000E+00  1.30000000E+00
  1.30000000E+00  1.30000000E+00  1.55000000E+00  1.70000000E+00  1.70000000E+00
  1.30000000E+00  1.30000000E+00  1.30000000E+00  1.55000000E+00  1.70000000E+00
  1.70000000E+00  1.30000000E+00  1.30000000E+00  1.30000000E+00  1.55000000E+00
  1.70000000E+00  1.70000000E+00  1.30000000E+00  1.30000000E+00  1.30000000E+00
  1.55000000E+00  1.70000000E+00  1.70000000E+00  1.30000000E+00  1.30000000E+00
  1.30000000E+00  1.55000000E+00  1.70000000E+00  1.70000000E+00  1.30000000E+00
  1.30000000E+00  1.30000000E+00  1.55000000E+00  1.70000000E+00  1.70000000E+00
  1.30000000E+00  1.30000000E+00  1.30000000E+00  1.55000000E+00  1.70000000E+00
  1.70000000E+00  1.30000000E+00  1.30000000E+00  1.30000000E+00  1.55000000E+00
  1.70000000E+00  1.70000000E+00  1.30000000E+00  1.30000000E+00  1.30000000E+00
  1.55000000E+00  1.70000000E+00  1.70000000E+00  1.30000000E+00  1.30000000E+00
  1.30000000E+00  1.55000000E+00  1.70000000E+00  1.70000000E+00  1.30000000E+00
  1.30000000E+00  1.30000000E+00  1.55000000E+00  1.70000000E+00  1.70000000E+00
  1.30000000E+00  1.30000000E+00  1.30000000E+00  1.55000000E+00  1.70000000E+00
  1.70000000E+00  1.30000000E+00  1.30000000E+00  1.30000000E+00  1.55000000E+00
  1.70000000E+00  1.70000000E+00  1.30000000E+00  1.30000000E+00  1.30000000E+00
  1.55000000E+00  1.70000000E+00  1.70000000E+00  1.30000000E+00  1.30000000E+00
  1.30000000E+00  1.55000000E+00  1.70000000E+00  1.70000000E+00  1.30000000E+00
  1.30000000E+00  1.30000000E+00  1.55000000E+00  1.70000000E+00  1.70000000E+00
  1.30000000E+00  1.30000000E+00  1.30000000E+00  1.55000000E+00  1.70000000E+00
  1.70000000E+00  1.30000000E+00  1.30000000E+00  1.30000000E+00  1.55000000E+00
  1.70000000E+00  1.70000000E+00  1.30000000E+00  1.30000000E+00  1.30000000E+00
  1.55000000E+00  1.70000000E+00  1.70000000E+00  1.30000000E+00  1.30000000E+00
  1.30000000E+00  1.55000000E+00  1.70000000E+00  1.70000000E+00  1.30000000E+00
  1.30000000E+00  1.30000000E+00  1.55000000E+00  1.70000000E+00  1.70000000E+00
  1.30000000E+00  1.30000000E+00  1.30000000E+00  1.55000000E+00  1.70000000E+00
  1.70000000E+00  1.30000000E+00  1.30000000E+00  1.30000000E+00  1.55000000E+00
  1.70000000E+00  1.70000000E+00  1.30000000E+00  1.30000000E+00  1.30000000E+00
  1.55000000E+00  1.70000000E+00  1.70000000E+00  1.30000000E+00  1.30000000E+00
  1.30000000E+00  1.55000000E+00  1.70000000E+00  1.70000000E+00  1.30000000E+00
  1.30000000E+00  1.30000000E+00  1.55000000E+00  1.70000000E+00  1.70000000E+00
  1.30000000E+00  1.30000000E+00  1.30000000E+00  1.55000000E+00  1.70000000E+00
  1.70000000E+00  1.30000000E+00  1.30000000E+00  1.30000000E+00  1.55000000E+00
  1.70000000E+00  1.70000000E+00  1.30000000E+00  1.30000000E+00  1.30000000E+00
  1.55000000E+00  1.70000000E+00  1.70000000E+00  1.30000000E+00  1.30000000E+00
  1.30000000E+00  1.55000000E+00  1.70000000E+00  1.70000000E+00  1.30000000E+00
  1.30000000E+00  1.30000000E+00  1.55000000E+00  1.70000000E+00  1.70000000E+00
  1.30000000E+00  1.30000000E+00  1.30000000E+00  1.55000000E+00  1.70000000E+00
  1.70000000E+00  1.30000000E+00  1.30000000E+00  1.30000000E+00  1.55000000E+00
  1.70000000E+00  1.70000000E+00  1.30000000E+00  1.30000000E+00  1.30000000E+00
  1.55000000E+00  1.70000000E+00  1.70000000E+00  1.30000000E+00  1.30000000E+00
  1.30000000E+00  1.55000000E+00  1.70000000E+00  1.70000000E+00  1.30000000E+00
  1.30000000E+00  1.30000000E+00  1.55000000E+00  1.70000000E+00  1.70000000E+00
  1.30000000E+00  1.30000000E+00  1.30000000E+00  1.55000000E+00  1.70000000E+00
  1.70000000E+00  1.30000000E+00  1.30000000E+00  1.30000000E+00  1.55000000E+00
  1.70000000E+00  1.70000000E+00  1.30000000E+00  1.30000000E+00  1.30000000E+00
  1.55000000E+00  1.70000000E+00  1.70000000E+00  1.30000000E+00  1.30000000E+00
  1.30000000E+00  1.55000000E+00  1.70000000E+00  1.70000000E+00  1.30000000E+00
  1.30000000E+00  1.30000000E+00  1.55000000E+00  1.70000000E+00  1.70000000E+00
  1.30000000E+00  1.30000000E+00  1.30000000E+00  1.55000000E+00  1.70000000E+00
  1.70000000E+00  1.30000000E+00  1.30000000E+00  1.30000000E+00  1.55000000E+00
  1.70000000E+00  1.70000000E+00  1.30000000E+00  1.30000000E+00  1.30000000E+00
  1.55000000E+00  1.70000000E+00  1.70000000E+00  1.30000000E+00  1.30000000E+00
  1.30000000E+00  1.55000000E+00  1.70000000E+00  1.70000000E+00  1.30000000E+00
  1.30000000E+00  1.30000000E+00  1.55000000E+00  1.70000000E+00  1.70000000E+00
  1.30000000E+00  1.30000000E+00  1.30000000E+00  1.55000000E+00  1.70000000E+00
  1.70000000E+00  1.30000000E+00  1.30000000E+00  1.30000000E+00  1.55000000E+00
  1.70000000E+00  1.70000000E+00  1.30000000E+00  1.30000000E+00  1.30000000E+00
  1.55000000E+00  1.70000000E+00  1.70000000E+00  1.30000000E+00  1.30000000E+00
  1.30000000E+00  1.55000000E+00  1.70000000E+00  1.70000000E+00  1.30000000E+00
  1.30000000E+00  1.30000000E+00
%FLAG SCREEN                                                                    
%FORMAT(5E16.8)                                                                 
  7.20000000E-01  7.20000000E-01  7.20000000E-01  7.20000000E-01  7.20000000E-01
  7.20000000E-01  7.20000000E-01  7.20000000E-01  7.90000000E-01  7.20000000E-01
  7.20000000E-01  7.20000000E-01  7.20000000E-01  7.20000000E-01  7.20000000E-01
  7.20000000E-01  7.20000000E-01  7.20000000E-01  7.20000000E-01  7.20000000E-01
  7.90000000E-01  7.20000000E-01  7.20000000E-01  7.20000000E-01  7.20000000E-01
  7.20000000E-01  7.20000000E-01  7.20000000E-01  8.50000000E-01  7.20000000E-01
  7.20000000E-01  8.00000000E-01  7.20000000E-01  7.20000000E-01  8.50000000E-01
  8.50000000E-01  8.50000000E-01  8.50000000E-01  8.50000000E-01  7.20000000E-01
  8.50000000E-01  8.50000000E-01  8.50000000E-01  8.50000000E-01  8.50000000E-01
  8.50000000E-01  8.50000000E-01  8.50000000E-01  8.50000000E-01  8.50000000E-01
  8.50000000E-01  8.50000000E-01  8.50000000E-01  8.50000000E-01  8.50000000E-01
  8.50000000E-01  8.50000000E-01  8.50000000E-01  8.50000000E-01  7.20000000E-01
  8.50000000E-01  8.50000000E-01  8.50000000E-01  7.20000000E-01  8.50000000E-01
  8.50000000E-01  8.50000000E-01  8.50000000E-01  8.50000000E-01  8.50000000E-01
  7.20000000E-01  8.50000000E-01  8.50000000E-01  8.50000000E-01  8.50000000E-01
  8.50000000E-01  8.50000000E-01  7.90000000E-01  7.20000000E-01  7.20000000E-01
  8.50000000E-01  8.50000000E-01  8.50000000E-01  7.90000000E-01  7.20000000E-01
  7.20000000E-01  8.50000000E-01  8.50000000E-01  8.50000000E-01  7.90000000E-01
  7.20000000E-01  7.20000000E-01  8.50000000E-01  8.50000000E-01  8.50000000E-01
  7.90000000E-01  7.20000000E-01  7.20000000E-01  8.50000000E-01  8.50000000E-01
  8.50000000E-01  7.90000000E-01  7.20000000E-01  7.20000000E-01  8.50000000E-01
  8.50000000E-01  8.50000000E-01  7.90000000E-01  7.20000000E-01  7.20000000E-01
  8.50000000E-01  8.50000000E-01  8.50000000E-01  7.90000000E-01  7.20000000E-01
  7.20000000E-01  8.50000000E-01  8.50000000E-01  8.50000000E-01  7.90000000E-01
  7.20000000E-01  7.20000000E-01  8.50000000E-01  8.50000000E-01  8.50000000E-01
  7.90000000E-01  7.20000000E-01  7.20000000E-01  8.50000000E-01  8.50000000E-01
  8.50000000E-01  7.90000000E-01  7.20000000E-01  7.20000000E-01  8.50000000E-01
  8.50000000E-01  8.50000000E-01  7.90000000E-01  7.20000000E-01  7.20000000E-01
  8.50000000E-01  8.50000000E-01  8.50000000E-01  7.90000000E-01  7.20000000E-01
  7.20000000E-01  8.50000000E-01  8.50000000E-01  8.50000000E-01  7.90000000E-01
  7.20000000E-01  7.20000000E-01  8.50000000E-01  8.50000000E-01  8.50000000E-01
  7.90000000E-01  7.20000000E-01  7.20000000E-01  8.50000000E-01  8.50000000E-01
  8.50000000E-01  7.90000000E-01  7.20000000E-01  7.20000000E-01  8.50000000E-01
  8.50000000E-01  8.50000000E-01  7.90000000E-01  7.20000000E-01  7.20000000E-01
  8.50000000E-01  8.50000000E-01  8.50000000E-01  7.90000000E-01  7.20000000E-01
  7.20000000E-01  8.50000000E-01  8.50000000E-01  8.50000000E-01  7.90000000E-01
  7.20000000E-01  7.20000000E-01  8.50000000E-01  8.50000000E-01  8.50000000E-01
  7.90000000E-01  7.20000000E-01  7.20000000E-01  8.50000000E-01  8.50000000E-01
  8.50000000E-01  7.90000000E-01  7.20000000E-01  7.20000000E-01  8.50000000E-01
  8.50000000E-01  8.50000000E-01  7.90000000E-01  7.20000000E-01  7.20000000E-01
  8.50000000E-01  8.50000000E-01  8.50000000E-01  7.90000000E-01  7.20000000E-01
  7.20000000E-01  8.50000000E-01  8.50000000E-01  8.50000000E-01  7.90000000E-01
  7.20000000E-01  7.20000000E-01  8.50000000E-01  8.50000000E-01  8.50000000E-01
  7.90000000E-01  7.20000000E-01  7.20000000E-01  8.50000000E-01  8.50000000E-01
  8.50000000E-01  7.90000000E-01  7.20000000E-01  7.20000000E-01  8.50000000E-01
  8.50000000E-01  8.50000000E-01  7.90000000E-01  7.20000000E-01  7.20000000E-01
  8.50000000E-01  8.50000000E-01  8.50000000E-01  7.90000000E-01  7.20000000E-01
  7.20000000E-01  8.50000000E-01  8.50000000E-01  8.50000000E-01  7.90000000E-01
  7.20000000E-01  7.20000000E-01  8.50000000E-01  8.50000000E-01  8.50000000E-01
  7.90000000E-01  7.20000000E-01  7.20000000E-01  8.50000000E-01  8.50000000E-01
  8.50000000E-01  7.90000000E-01  7.20000000E-01  7.20000000E-01  8.50000000E-01
  8.50000000E-01  8.50000000E-01  7.90000000E-01  7.20000000E-01  7.20000000E-01
  8.50000000E-01  8.50000000E-01  8.50000000E-01  7.90000000E-01  7.20000000E-01
  7.20000000E-01  8.50000000E-01  8.50000000E-01  8.50000000E-01  7.90000000E-01
  7.20000000E-01  7.20000000E-01  8.50000000E-01  8.50000000E-01  8.50000000E-01
  7.90000000E-01  7.20000000E-01  7.20000000E-01  8.50000000E-01  8.50000000E-01
  8.50000000E-01  7.90000000E-01  7.20000000E-01  7.20000000E-01  8.50000000E-01
  8.50000000E-01  8.50000000E-01  7.90000000E-01  7.20000000E-01  7.20000000E-01
  8.50000000E-01  8.50000000E-01  8.50000000E-01  7.90000000E-01  7.20000000E-01
  7.20000000E-01  8.50000000E-01  8.50000000E-01  8.50000000E-01  7.90000000E-01
  7.20000000E-01  7.20000000E-01  8.50000000E-01  8.50000000E-01  8.50000000E-01
  7.90000000E-01  7.20000000E-01  7.20000000E-01  8.50000000E-01  8.50000000E-01
  8.50000000E-01  7.90000000E-01  7.20000000E-01  7.20000000E-01  8.50000000E-01
  8.50000000E-01  8.50000000E-01  7.90000000E-01  7.20000000E-01  7.20000000E-01
  8.50000000E-01  8.50000000E-01  8.50000000E-01  7.90000000E-01  7.20000000E-01
  7.20000000E-01  8.50000000E-01  8.50000000E-01  8.50000000E-01  7.90000000E-01
  7.20000000E-01  7.20000000E-01  8.50000000E-01  8.50000000E-01  8.50000000E-01
  7.90000000E-01  7.20000000E-01  7.20000000E-01  8.50000000E-01  8.50000000E-01
  8.50000000E-01  7.90000000E-01  7.20000000E-01  7.20000000E-01  8.50000000E-01
  8.50000000E-01  8.50000000E-01  7.90000000E-01  7.20000000E-01  7.20000000E-01
  8.50000000E-01  8.50000000E-01  8.50000000E-01  7.90000000E-01  7.20000000E-01
  7.20000000E-01  8.50000000E-01  8.50000000E-01  8.50000000E-01  7.90000000E-01
  7.20000000E-01  7.20000000E-01  8.50000000E-01  8.50000000E-01  8.50000000E-01
  7.90000000E-01  7.20000000E-01  7.20000000E-01  8.50000000E-01  8.50000000E-01
  8.50000000E-01  7.90000000E-01  7.20000000E-01  7.20000000E-01  8.50000000E-01
  8.50000000E-01  8.50000000E-01  7.90000000E-01  7.20000000E-01  7.20000000E-01
  8.50000000E-01  8.50000000E-01  8.50000000E-01  7.90000000E-01  7.20000000E-01
  7.20000000E-01  8.50000000E-01  8.50000000E-01  8.50000000E-01  7.90000000E-01
  7.20000000E-01  7.20000000E-01  8.50000000E-01  8.50000000E-01  8.50000000E-01
  7.90000000E-01  7.20000000E-01  7.20000000E-01  8.50000000E-01  8.50000000E-01
  8.50000000E-01  7.90000000E-01  7.20000000E-01  7.20000000E-01  8.50000000E-01
  8.50000000E-01  8.50000000E-01  7.90000000E-01  7.20000000E-01  7.20000000E-01
  8.50000000E-01  8.50000000E-01  8.50000000E-01  7.90000000E-01  7.20000000E-01
  7.20000000E-01  8.50000000E-01  8.50000000E-01  8.50000000E-01  7.90000000E-01
  7.20000000E-01  7.20000000E-01  8.50000000E-01  8.50000000E-01  8.50000000E-01
  7.90000000E-01  7.20000000E-01  7.20000000E-01  8.50000000E-01  8.50000000E-01
  8.50000000E-01  7.90000000E-01  7.20000000E-01  7.20000000E-01  8.50000000E-01
  8.50000000E-01  8.50000000E-01  7.90000000E-01  7.20000000E-01  7.20000000E-01
  8.50000000E-01  8.50000000E-01  8.50000000E-01  7.90000000E-01  7.20000000E-01
  7.20000000E-01  8.50000000E-01  8.50000000E-01  8.50000000E-01  7.90000000E-01
  7.20000000E-01  7.20000000E-01  8.50000000E-01  8.50000000E-01  8.50000000E-01
  7.90000000E-01  7.20000000E-01  7.20000000E-01  8.50000000E-01  8.50000000E-01
  8.50000000E-01  7.90000000E-01  7.20000000E-01  7.20000000E-01  8.50000000E-01
  8.50000000E-01  8.50000000E-01  7.90000000E-01  7.20000000E-01  7.20000000E-01
  8.50000000E-01  8.50000000E-01  8.50000000E-01  7.90000000E-01  7.20000000E-01
  7.20000000E-01  8.50000000E-01  8.50000000E-01  8.50000000E-01  7.90000000E-01
  7.20000000E-01  7.20000000E-01  8.50000000E-01  8.50000000E-01  8.50000000E-01
  7.90000000E-01  7.20000000E-01  7.20000000E-01  8.50000000E-01  8.50000000E-01
  8.50000000E-01  7.90000000E-01  7.20000000E-01  7.20000000E-01  8.50000000E-01
  8.50000000E-01  8.50000000E-01  7.90000000E-01  7.20000000E-01  7.20000000E-01
  8.50000000E-01  8.50000000E-01  8.50000000E-01  7.90000000E-01  7.20000000E-01
  7.20000000E-01  8.50000000E-01  8.50000000E-01  8.50000000E-01  7.90000000E-01
  7.20000000E-01  7.20000000E-01  8.50000000E-01  8.50000000E-01  8.50000000E-01
  7.90000000E-01  7.20000000E-01  7.20000000E-01  8.50000000E-01  8.50000000E-01
  8.50000000E-01  7.90000000E-01  7.20000000E-01  7.20000000E-01  8.50000000E-01
  8.50000000E-01  8.50000000E-01  7.90000000E-01  7.20000000E-01  7.20000000E-01
  8.50000000E-01  8.50000000E-01  8.50000000E-01  7.90000000E-01  7.20000000E-01
  7.20000000E-01  8.50000000E-01  8.50000000E-01  8.50000000E-01  7.90000000E-01
  7.20000000E-01  7.20000000E-01  8.50000000E-01  8.50000000E-01  8.50000000E-01
  7.90000000E-01  7.20000000E-01  7.20000000E-01  8.50000000E-01  8.50000000E-01
  8.50000000E-01  7.90000000E-01  7.20000000E-01  7.20000000E-01  8.50000000E-01
  8.50000000E-01  8.50000000E-01  7.90000000E-01  7.20000000E-01  7.20000000E-01
  8.50000000E-01  8.50000000E-01  8.50000000E-01  7.90000000E-01  7.20000000E-01
  7.20000000E-01  8.50000000E-01  8.50000000E-01  8.50000000E-01  7.90000000E-01
  7.20000000E-01  7.20000000E-01  8.50000000E-01  8.50000000E-01  8.50000000E-01
  7.90000000E-01  7.20000000E-01  7.20000000E-01  8.50000000E-01  8.50000000E-01
  8.50000000E-01  7.90000000E-01  7.20000000E-01  7.20000000E-01  8.50000000E-01
  8.50000000E-01  8.50000000E-01  7.90000000E-01  7.20000000E-01  7.20000000E-01
  8.50000000E-01  8.50000000E-01  8.50000000E-01  7.90000000E-01  7.20000000E-01
  7.20000000E-01  8.50000000E-01  8.50000000E-01  8.50000000E-01  7.90000000E-01
  7.20000000E-01  7.20000000E-01  8.50000000E-01  8.50000000E-01  8.50000000E-01
  7.90000000E-01  7.20000000E-01  7.20000000E-01  8.50000000E-01  8.50000000E-01
  8.50000000E-01  7.90000000E-01  7.20000000E-01  7.20000000E-01  8.50000000E-01
  8.50000000E-01  8.50000000E-01  7.90000000E-01  7.20000000E-01  7.20000000E-01
  8.50000000E-01  8.50000000E-01  8.50000000E-01  7.90000000E-01  7.20000000E-01
  7.20000000E-01  8.50000000E-01  8.50000000E-01  8.50000000E-01  7.90000000E-01
  7.20000000E-01  7.20000000E-01  8.50000000E-01  8.50000000E-01  8.50000000E-01
  7.90000000E-01  7.20000000E-01  7.20000000E-01  8.50000000E-01  8.50000000E-01
  8.50000000E-01  7.90000000E-01  7.20000000E-01  7.20000000E-01  8.50000000E-01
  8.50000000E-01  8.50000000E-01  7.90000000E-01  7.20000000E-01  7.20000000E-01
  8.50000000E-01  8.50000000E-01  8.50000000E-01  7.90000000E-01  7.20000000E-01
  7.20000000E-01  8.50000000E-01  8.50000000E-01  8.50000000E-01  7.90000000E-01
  7.20000000E-01  7.20000000E-01  8.50000000E-01  8.50000000E-01  8.50000000E-01
  7.90000000E-01  7.20000000E-01  7.20000000E-01  8.50000000E-01  8.50000000E-01
  8.50000000E-01  7.90000000E-01  7.20000000E-01  7.20000000E-01  8.50000000E-01
  8.50000000E-01  8.50000000E-01  7.90000000E-01  7.20000000E-01  7.20000000E-01
  8.50000000E-01  8.50000000E-01  8.50000000E-01  7.90000000E-01  7.20000000E-01
  7.20000000E-01  8.50000000E-01  8.50000000E-01  8.50000000E-01  7.90000000E-01
  7.20000000E-01  7.20000000E-01  8.50000000E-01  8.50000000E-01  8.50000000E-01
  7.90000000E-01  7.20000000E-01  7.20000000E-01  8.50000000E-01  8.50000000E-01
  8.50000000E-01  7.90000000E-01  7.20000000E-01  7.20000000E-01  8.50000000E-01
  8.50000000E-01  8.50000000E-01  7.90000000E-01  7.20000000E-01  7.20000000E-01
  8.50000000E-01  8.50000000E-01  8.50000000E-01  7.90000000E-01  7.20000000E-01
  7.20000000E-01  8.50000000E-01  8.50000000E-01  8.50000000E-01  7.90000000E-01
  7.20000000E-01  7.20000000E-01  8.50000000E-01  8.50000000E-01  8.50000000E-01
  7.90000000E-01  7.20000000E-01  7.20000000E-01  8.50000000E-01  8.50000000E-01
  8.50000000E-01  7.90000000E-01  7.20000000E-01  7.20000000E-01  8.50000000E-01
  8.50000000E-01  8.50000000E-01  7.90000000E-01  7.20000000E-01  7.20000000E-01
  8.50000000E-01  8.50000000E-01  8.50000000E-01  7.90000000E-01  7.20000000E-01
  7.20000000E-01  8.50000000E-01  8.50000000E-01  8.50000000E-01  7.90000000E-01
  7.20000000E-01  7.20000000E-01  8.50000000E-01  8.50000000E-01  8.50000000E-01
  7.90000000E-01  7.20000000E-01  7.20000000E-01  8.50000000E-01  8.50000000E-01
  8.50000000E-01  7.90000000E-01  7.20000000E-01  7.20000000E-01  8.50000000E-01
  8.50000000E-01  8.50000000E-01  7.90000000E-01  7.20000000E-01  7.20000000E-01
  8.50000000E-01  8.50000000E-01  8.50000000E-01  7.90000000E-01  7.20000000E-01
  7.20000000E-01  8.50000000E-01  8.50000000E-01  8.50000000E-01  7.90000000E-01
  7.20000000E-01  7.20000000E-01  8.50000000E-01  8.50000000E-01  8.50000000E-01
  7.90000000E-01  7.20000000E-01  7.20000000E-01  8.50000000E-01  8.50000000E-01
  8.50000000E-01  7.90000000E-01  7.20000000E-01  7.20000000E-01  8.50000000E-01
  8.50000000E-01  8.50000000E-01  7.90000000E-01  7.20000000E-01  7.20000000E-01
  8.50000000E-01  8.50000000E-01  8.50000000E-01  7.90000000E-01  7.20000000E-01
  7.20000000E-01  8.50000000E-01  8.50000000E-01  8.50000000E-01  7.90000000E-01
  7.20000000E-01  7.20000000E-01  8.50000000E-01  8.50000000E-01  8.50000000E-01
  7.90000000E-01  7.20000000E-01  7.20000000E-01  8.50000000E-01  8.50000000E-01
  8.50000000E-01  7.90000000E-01  7.20000000E-01  7.20000000E-01  8.50000000E-01
  8.50000000E-01  8.50000000E-01  7.90000000E-01  7.20000000E-01  7.20000000E-01
  8.50000000E-01  8.50000000E-01  8.50000000E-01  7.90000000E-01  7.20000000E-01
  7.20000000E-01  8.50000000E-01  8.50000000E-01  8.50000000E-01  7.90000000E-01
  7.20000000E-01  7.20000000E-01  8.50000000E-01  8.50000000E-01  8.50000000E-01
  7.90000000E-01  7.20000000E-01  7.20000000E-01  8.50000000E-01  8.50000000E-01
  8.50000000E-01  7.90000000E-01  7.20000000E-01  7.20000000E-01  8.50000000E-01
  8.50000000E-01  8.50000000E-01  7.90000000E-01  7.20000000E-01  7.20000000E-01
  8.50000000E-01  8.50000000E-01  8.50000000E-01  7.90000000E-01  7.20000000E-01
  7.20000000E-01  8.50000000E-01  8.50000000E-01  8.50000000E-01  7.90000000E-01
  7.20000000E-01  7.20000000E-01  8.50000000E-01  8.50000000E-01  8.50000000E-01
  7.90000000E-01  7.20000000E-01  7.20000000E-01  8.50000000E-01  8.50000000E-01
  8.50000000E-01  7.90000000E-01  7.20000000E-01  7.20000000E-01  8.50000000E-01
  8.50000000E-01  8.50000000E-01  7.90000000E-01  7.20000000E-01  7.20000000E-01
  8.50000000E-01  8.50000000E-01  8.50000000E-01  7.90000000E-01  7.20000000E-01
  7.20000000E-01  8.50000000E-01  8.50000000E-01  8.50000000E-01  7.90000000E-01
  7.20000000E-01  7.20000000E-01  8.50000000E-01  8.50000000E-01  8.50000000E-01
  7.90000000E-01  7.20000000E-01  7.20000000E-01  8.50000000E-01  8.50000000E-01
  8.50000000E-01  7.90000000E-01  7.20000000E-01  7.20000000E-01  8.50000000E-01
  8.50000000E-01  8.50000000E-01  7.90000000E-01  7.20000000E-01  7.20000000E-01
  8.50000000E-01  8.50000000E-01  8.50000000E-01  7.90000000E-01  7.20000000E-01
  7.20000000E-01  8.50000000E-01  8.50000000E-01  8.50000000E-01  7.90000000E-01
  7.20000000E-01  7.20000000E-01  8.50000000E-01  8.50000000E-01  8.50000000E-01
  7.90000000E-01  7.20000000E-01  7.20000000E-01  8.50000000E-01  8.50000000E-01
  8.50000000E-01  7.90000000E-01  7.20000000E-01  7.20000000E-01  8.50000000E-01
  8.50000000E-01  8.50000000E-01  7.90000000E-01  7.20000000E-01  7.20000000E-01
  8.50000000E-01  8.50000000E-01  8.50000000E-01  7.90000000E-01  7.20000000E-01
  7.20000000E-01  8.50000000E-01  8.50000000E-01  8.50000000E-01  7.90000000E-01
  7.20000000E-01  7.20000000E-01  8.50000000E-01  8.50000000E-01  8.50000000E-01
  7.90000000E-01  7.20000000E-01  7.20000000E-01  8.50000000E-01  8.50000000E-01
  8.50000000E-01  7.90000000E-01  7.20000000E-01  7.20000000E-01  8.50000000E-01
  8.50000000E-01  8.50000000E-01  7.90000000E-01  7.20000000E-01  7.20000000E-01
  8.50000000E-01  8.50000000E-01  8.50000000E-01  7.90000000E-01  7.20000000E-01
  7.20000000E-01  8.50000000E-01  8.50000000E-01  8.50000000E-01  7.90000000E-01
  7.20000000E-01  7.20000000E-01  8.50000000E-01  8.50000000E-01  8.50000000E-01
  7.90000000E-01  7.20000000E-01  7.20000000E-01  8.50000000E-01  8.50000000E-01
  8.50000000E-01  7.90000000E-01  7.20000000E-01  7.20000000E-01  8.50000000E-01
  8.50000000E-01  8.50000000E-01  7.90000000E-01  7.20000000E-01  7.20000000E-01
  8.50000000E-01  8.50000000E-01  8.50000000E-01  7.90000000E-01  7.20000000E-01
  7.20000000E-01  8.50000000E-01  8.50000000E-01  8.50000000E-01  7.90000000E-01
  7.20000000E-01  7.20000000E-01  8.50000000E-01  8.50000000E-01  8.50000000E-01
  7.90000000E-01  7.20000000E-01  7.20000000E-01  8.50000000E-01  8.50000000E-01
  8.50000000E-01  7.90000000E-01  7.20000000E-01  7.20000000E-01  8.50000000E-01
  8.50000000E-01  8.50000000E-01  7.90000000E-01  7.20000000E-01  7.20000000E-01
  8.50000000E-01  8.50000000E-01  8.50000000E-01  7.90000000E-01  7.20000000E-01
  7.20000000E-01  8.50000000E-01  8.50000000E-01  8.50000000E-01  7.90000000E-01
  7.20000000E-01  7.20000000E-01  8.50000000E-01  8.50000000E-01  8.50000000E-01
  7.90000000E-01  7.20000000E-01  7.20000000E-01  8.50000000E-01  8.50000000E-01
  8.50000000E-01  7.90000000E-01  7.20000000E-01  7.20000000E-01  8.50000000E-01
  8.50000000E-01  8.50000000E-01  7.90000000E-01  7.20000000E-01  7.20000000E-01
  8.50000000E-01  8.50000000E-01  8.50000000E-01  7.90000000E-01  7.20000000E-01
  7.20000000E-01  8.50000000E-01  8.50000000E-01  8.50000000E-01  7.90000000E-01
  7.20000000E-01  7.20000000E-01  8.50000000E-01  8.50000000E-01  8.50000000E-01
  7.90000000E-01  7.20000000E-01  7.20000000E-01  8.50000000E-01  8.50000000E-01
  8.50000000E-01  7.90000000E-01  7.20000000E-01  7.20000000E-01  8.50000000E-01
  8.50000000E-01  8.50000000E-01  7.90000000E-01  7.20000000E-01  7.20000000E-01
  8.50000000E-01  8.50000000E-01  8.50000000E-01  7.90000000E-01  7.20000000E-01
  7.20000000E-01  8.50000000E-01  8.50000000E-01  8.50000000E-01  7.90000000E-01
  7.20000000E-01  7.20000000E-01  8.50000000E-01  8.50000000E-01  8.50000000E-01
  7.90000000E-01  7.20000000E-01  7.20000000E-01  8.50000000E-01  8.50000000E-01
  8.50000000E-01  7.90000000E-01  7.20000000E-01  7.20000000E-01  8.50000000E-01
  8.50000000E-01  8.50000000E-01  7.90000000E-01  7.20000000E-01  7.20000000E-01
  8.50000000E-01  8.50000000E-01  8.50000000E-01  7.90000000E-01  7.20000000E-01
  7.20000000E-01  8.50000000E-01  8.50000000E-01  8.50000000E-01  7.90000000E-01
  7.20000000E-01  7.20000000E-01  8.50000000E-01  8.50000000E-01  8.50000000E-01
  7.90000000E-01  7.20000000E-01  7.20000000E-01  8.50000000E-01  8.50000000E-01
  8.50000000E-01  7.90000000E-01  7.20000000E-01  7.20000000E-01  8.50000000E-01
  8.50000000E-01  8.50000000E-01  7.90000000E-01  7.20000000E-01  7.20000000E-01
  8.50000000E-01  8.50000000E-01  8.50000000E-01  7.90000000E-01  7.20000000E-01
  7.20000000E-01  8.50000000E-01  8.50000000E-01  8.50000000E-01  7.90000000E-01
  7.20000000E-01  7.20000000E-01  8.50000000E-01  8.50000000E-01  8.50000000E-01
  7.90000000E-01  7.20000000E-01  7.20000000E-01  8.50000000E-01  8.50000000E-01
  8.50000000E-01  7.90000000E-01  7.20000000E-01  7.20000000E-01  8.50000000E-01
  8.50000000E-01  8.50000000E-01  7.90000000E-01  7.20000000E-01  7.20000000E-01
  8.50000000E-01  8.50000000E-01  8.50000000E-01  7.90000000E-01  7.20000000E-01
  7.20000000E-01  8.50000000E-01  8.50000000E-01  8.50000000E-01  7.90000000E-01
  7.20000000E-01  7.20000000E-01  8.50000000E-01  8.50000000E-01  8.50000000E-01
  7.90000000E-01  7.20000000E-01  7.20000000E-01  8.50000000E-01  8.50000000E-01
  8.50000000E-01  7.90000000E-01  7.20000000E-01  7.20000000E-01  8.50000000E-01
  8.50000000E-01  8.50000000E-01  7.90000000E-01  7.20000000E-01  7.20000000E-01
  8.50000000E-01  8.50000000E-01  8.50000000E-01  7.90000000E-01  7.20000000E-01
  7.20000000E-01  8.50000000E-01  8.50000000E-01  8.50000000E-01  7.90000000E-01
  7.20000000E-01  7.20000000E-01  8.50000000E-01  8.50000000E-01  8.50000000E-01
  7.90000000E-01  7.20000000E-01  7.20000000E-01  8.50000000E-01  8.50000000E-01
  8.50000000E-01  7.90000000E-01  7.20000000E-01  7.20000000E-01  8.50000000E-01
  8.50000000E-01  8.50000000E-01  7.90000000E-01  7.20000000E-01  7.20000000E-01
  8.50000000E-01  8.50000000E-01  8.50000000E-01  7.90000000E-01  7.20000000E-01
  7.20000000E-01  8.50000000E-01  8.50000000E-01  8.50000000E-01  7.90000000E-01
  7.20000000E-01  7.20000000E-01  8.50000000E-01  8.50000000E-01  8.50000000E-01
  7.90000000E-01  7.20000000E-01  7.20000000E-01  8.50000000E-01  8.50000000E-01
  8.50000000E-01  7.90000000E-01  7.20000000E-01  7.20000000E-01  8.50000000E-01
  8.50000000E-01  8.50000000E-01  7.90000000E-01  7.20000000E-01  7.20000000E-01
  8.50000000E-01  8.50000000E-01  8.50000000E-01  7.90000000E-01  7.20000000E-01
  7.20000000E-01  8.50000000E-01  8.50000000E-01  8.50000000E-01  7.90000000E-01
  7.20000000E-01  7.20000000E-01  8.50000000E-01  8.50000000E-01  8.50000000E-01
  7.90000000E-01  7.20000000E-01  7.20000000E-01  8.50000000E-01  8.50000000E-01
  8.50000000E-01  7.90000000E-01  7.20000000E-01  7.20000000E-01  8.50000000E-01
  8.50000000E-01  8.50000000E-01  7.90000000E-01  7.20000000E-01  7.20000000E-01
  8.50000000E-01  8.50000000E-01  8.50000000E-01  7.90000000E-01  7.20000000E-01
  7.20000000E-01  8.50000000E-01  8.50000000E-01  8.50000000E-01  7.90000000E-01
  7.20000000E-01  7.20000000E-01  8.50000000E-01  8.50000000E-01  8.50000000E-01
  7.90000000E-01  7.20000000E-01  7.20000000E-01  8.50000000E-01  8.50000000E-01
  8.50000000E-01  7.90000000E-01  7.20000000E-01  7.20000000E-01  8.50000000E-01
  8.50000000E-01  8.50000000E-01  7.90000000E-01  7.20000000E-01  7.20000000E-01
  8.50000000E-01  8.50000000E-01  8.50000000E-01  7.90000000E-01  7.20000000E-01
  7.20000000E-01  8.50000000E-01  8.50000000E-01  8.50000000E-01  7.90000000E-01
  7.20000000E-01  7.20000000E-01  8.50000000E-01  8.50000000E-01  8.50000000E-01
  7.90000000E-01  7.20000000E-01  7.20000000E-01  8.50000000E-01  8.50000000E-01
  8.50000000E-01  7.90000000E-01  7.20000000E-01  7.20000000E-01  8.50000000E-01
  8.50000000E-01  8.50000000E-01  7.90000000E-01  7.20000000E-01  7.20000000E-01
  8.50000000E-01  8.50000000E-01  8.50000000E-01  7.90000000E-01  7.20000000E-01
  7.20000000E-01  8.50000000E-01  8.50000000E-01  8.50000000E-01  7.90000000E-01
  7.20000000E-01  7.20000000E-01  8.50000000E-01  8.50000000E-01  8.50000000E-01
  7.90000000E-01  7.20000000E-01  7.20000000E-01  8.50000000E-01  8.50000000E-01
  8.50000000E-01  7.90000000E-01  7.20000000E-01  7.20000000E-01  8.50000000E-01
  8.50000000E-01  8.50000000E-01  7.90000000E-01  7.20000000E-01  7.20000000E-01
  8.50000000E-01  8.50000000E-01  8.50000000E-01  7.90000000E-01  7.20000000E-01
  7.20000000E-01  8.50000000E-01  8.50000000E-01  8.50000000E-01  7.90000000E-01
  7.20000000E-01  7.20000000E-01  8.50000000E-01  8.50000000E-01  8.50000000E-01
  7.90000000E-01  7.20000000E-01  7.20000000E-01  8.50000000E-01  8.50000000E-01
  8.50000000E-01  7.90000000E-01  7.20000000E-01  7.20000000E-01  8.50000000E-01
  8.50000000E-01  8.50000000E-01  7.90000000E-01  7.20000000E-01  7.20000000E-01
  8.50000000E-01  8.50000000E-01  8.50000000E-01  7.90000000E-01  7.20000000E-01
  7.20000000E-01  8.50000000E-01  8.50000000E-01  8.50000000E-01  7.90000000E-01
  7.20000000E-01  7.20000000E-01  8.50000000E-01  8.50000000E-01  8.50000000E-01
  7.90000000E-01  7.20000000E-01  7.20000000E-01  8.50000000E-01  8.50000000E-01
  8.50000000E-01  7.90000000E-01  7.20000000E-01  7.20000000E-01  8.50000000E-01
  8.50000000E-01  8.50000000E-01  7.90000000E-01  7.20000000E-01  7.20000000E-01
  8.50000000E-01  8.50000000E-01  8.50000000E-01  7.90000000E-01  7.20000000E-01
  7.20000000E-01  8.50000000E-01  8.50000000E-01  8.50000000E-01  7.90000000E-01
  7.20000000E-01  7.20000000E-01  8.50000000E-01  8.50000000E-01  8.50000000E-01
  7.90000000E-01  7.20000000E-01  7.20000000E-01  8.50000000E-01  8.50000000E-01
  8.50000000E-01  7.90000000E-01  7.20000000E-01  7.20000000E-01  8.50000000E-01
  8.50000000E-01  8.50000000E-01  7.90000000E-01  7.20000000E-01  7.20000000E-01
  8.50000000E-01  8.50000000E-01  8.50000000E-01  7.90000000E-01  7.20000000E-01
  7.20000000E-01  8.50000000E-01  8.50000000E-01  8.50000000E-01  7.90000000E-01
  7.20000000E-01  7.20000000E-01  8.50000000E-01  8.50000000E-01  8.50000000E-01
  7.90000000E-01  7.20000000E-01  7.20000000E-01  8.50000000E-01  8.50000000E-01
  8.50000000E-01  7.90000000E-01  7.20000000E-01  7.20000000E-01  8.50000000E-01
  8.50000000E-01  8.50000000E-01  7.90000000E-01  7.20000000E-01  7.20000000E-01
  8.50000000E-01  8.50000000E-01  8.50000000E-01  7.90000000E-01  7.20000000E-01
  7.20000000E-01  8.50000000E-01  8.50000000E-01  8.50000000E-01  7.90000000E-01
  7.20000000E-01  7.20000000E-01  8.50000000E-01  8.50000000E-01  8.50000000E-01
  7.90000000E-01  7.20000000E-01  7.20000000E-01  8.50000000E-01  8.50000000E-01
  8.50000000E-01  7.90000000E-01  7.20000000E-01  7.20000000E-01  8.50000000E-01
  8.50000000E-01  8.50000000E-01  7.90000000E-01  7.20000000E-01  7.20000000E-01
  8.50000000E-01  8.50000000E-01  8.50000000E-01  7.90000000E-01  7.20000000E-01
  7.20000000E-01  8.50000000E-01  8.50000000E-01  8.50000000E-01  7.90000000E-01
  7.20000000E-01  7.20000000E-01  8.50000000E-01  8.50000000E-01  8.50000000E-01
  7.90000000E-01  7.20000000E-01  7.20000000E-01  8.50000000E-01  8.50000000E-01
  8.50000000E-01  7.90000000E-01  7.20000000E-01  7.20000000E-01  8.50000000E-01
  8.50000000E-01  8.50000000E-01  7.90000000E-01  7.20000000E-01  7.20000000E-01
  8.50000000E-01  8.50000000E-01  8.50000000E-01  7.90000000E-01  7.20000000E-01
  7.20000000E-01  8.50000000E-01  8.50000000E-01  8.50000000E-01  7.90000000E-01
  7.20000000E-01  7.20000000E-01  8.50000000E-01  8.50000000E-01  8.50000000E-01
  7.90000000E-01  7.20000000E-01  7.20000000E-01  8.50000000E-01  8.50000000E-01
  8.50000000E-01  7.90000000E-01  7.20000000E-01  7.20000000E-01  8.50000000E-01
  8.50000000E-01  8.50000000E-01  7.90000000E-01  7.20000000E-01  7.20000000E-01
  8.50000000E-01  8.50000000E-01  8.50000000E-01  7.90000000E-01  7.20000000E-01
  7.20000000E-01  8.50000000E-01  8.50000000E-01  8.50000000E-01  7.90000000E-01
  7.20000000E-01  7.20000000E-01  8.50000000E-01  8.50000000E-01  8.50000000E-01
  7.90000000E-01  7.20000000E-01  7.20000000E-01  8.50000000E-01  8.50000000E-01
  8.50000000E-01  7.90000000E-01  7.20000000E-01  7.20000000E-01  8.50000000E-01
  8.50000000E-01  8.50000000E-01  7.90000000E-01  7.20000000E-01  7.20000000E-01
  8.50000000E-01  8.50000000E-01  8.50000000E-01  7.90000000E-01  7.20000000E-01
  7.20000000E-01  8.50000000E-01  8.50000000E-01  8.50000000E-01  7.90000000E-01
  7.20000000E-01  7.20000000E-01  8.50000000E-01  8.50000000E-01  8.50000000E-01
  7.90000000E-01  7.20000000E-01  7.20000000E-01  8.50000000E-01  8.50000000E-01
  8.50000000E-01  7.90000000E-01  7.20000000E-01  7.20000000E-01  8.50000000E-01
  8.50000000E-01  8.50000000E-01  7.90000000E-01  7.20000000E-01  7.20000000E-01
  8.50000000E-01  8.50000000E-01  8.50000000E-01  7.90000000E-01  7.20000000E-01
  7.20000000E-01  8.50000000E-01  8.50000000E-01  8.50000000E-01  7.90000000E-01
  7.20000000E-01  7.20000000E-01  8.50000000E-01  8.50000000E-01  8.50000000E-01
  7.90000000E-01  7.20000000E-01  7.20000000E-01  8.50000000E-01  8.50000000E-01
  8.50000000E-01  7.90000000E-01  7.20000000E-01  7.20000000E-01  8.50000000E-01
  8.50000000E-01  8.50000000E-01  7.90000000E-01  7.20000000E-01  7.20000000E-01
  8.50000000E-01  8.50000000E-01  8.50000000E-01  7.90000000E-01  7.20000000E-01
  7.20000000E-01  8.50000000E-01  8.50000000E-01  8.50000000E-01  7.90000000E-01
  7.20000000E-01  7.20000000E-01  8.50000000E-01  8.50000000E-01  8.50000000E-01
  7.90000000E-01  7.20000000E-01  7.20000000E-01  8.50000000E-01  8.50000000E-01
  8.50000000E-01  7.90000000E-01  7.20000000E-01  7.20000000E-01  8.50000000E-01
  8.50000000E-01  8.50000000E-01  7.90000000E-01  7.20000000E-01  7.20000000E-01
  8.50000000E-01  8.50000000E-01  8.50000000E-01  7.90000000E-01  7.20000000E-01
  7.20000000E-01  8.50000000E-01  8.50000000E-01  8.50000000E-01  7.90000000E-01
  7.20000000E-01  7.20000000E-01  8.50000000E-01  8.50000000E-01  8.50000000E-01
  7.90000000E-01  7.20000000E-01  7.20000000E-01  8.50000000E-01  8.50000000E-01
  8.50000000E-01  7.90000000E-01  7.20000000E-01  7.20000000E-01  8.50000000E-01
  8.50000000E-01  8.50000000E-01  7.90000000E-01  7.20000000E-01  7.20000000E-01
  8.50000000E-01  8.50000000E-01  8.50000000E-01  7.90000000E-01  7.20000000E-01
  7.20000000E-01  8.50000000E-01  8.50000000E-01  8.50000000E-01  7.90000000E-01
  7.20000000E-01  7.20000000E-01  8.50000000E-01  8.50000000E-01  8.50000000E-01
  7.90000000E-01  7.20000000E-01  7.20000000E-01  8.50000000E-01  8.50000000E-01
  8.50000000E-01  7.90000000E-01  7.20000000E-01  7.20000000E-01  8.50000000E-01
  8.50000000E-01  8.50000000E-01  7.90000000E-01  7.20000000E-01  7.20000000E-01
  8.50000000E-01  8.50000000E-01  8.50000000E-01  7.90000000E-01  7.20000000E-01
  7.20000000E-01  8.50000000E-01  8.50000000E-01  8.50000000E-01  7.90000000E-01
  7.20000000E-01  7.20000000E-01  8.50000000E-01  8.50000000E-01  8.50000000E-01
  7.90000000E-01  7.20000000E-01  7.20000000E-01  8.50000000E-01  8.50000000E-01
  8.50000000E-01  7.90000000E-01  7.20000000E-01  7.20000000E-01  8.50000000E-01
  8.50000000E-01  8.50000000E-01  7.90000000E-01  7.20000000E-01  7.20000000E-01
  8.50000000E-01  8.50000000E-01  8.50000000E-01  7.90000000E-01  7.20000000E-01
  7.20000000E-01  8.50000000E-01  8.50000000E-01  8.50000000E-01  7.90000000E-01
  7.20000000E-01  7.20000000E-01  8.50000000E-01  8.50000000E-01  8.50000000E-01
  7.90000000E-01  7.20000000E-01  7.20000000E-01  8.50000000E-01  8.50000000E-01
  8.50000000E-01  7.90000000E-01  7.20000000E-01  7.20000000E-01  8.50000000E-01
  8.50000000E-01  8.50000000E-01  7.90000000E-01  7.20000000E-01  7.20000000E-01
  8.50000000E-01  8.50000000E-01  8.50000000E-01  7.90000000E-01  7.20000000E-01
  7.20000000E-01  8.50000000E-01  8.50000000E-01  8.50000000E-01  7.90000000E-01
  7.20000000E-01  7.20000000E-01  8.50000000E-01  8.50000000E-01  8.50000000E-01
  7.90000000E-01  7.20000000E-01  7.20000000E-01  8.50000000E-01  8.50000000E-01
  8.50000000E-01  7.90000000E-01  7.20000000E-01  7.20000000E-01  8.50000000E-01
  8.50000000E-01  8.50000000E-01  7.90000000E-01  7.20000000E-01  7.20000000E-01
  8.50000000E-01  8.50000000E-01  8.50000000E-01  7.90000000E-01  7.20000000E-01
  7.20000000E-01  8.50000000E-01  8.50000000E-01  8.50000000E-01  7.90000000E-01
  7.20000000E-01  7.20000000E-01  8.50000000E-01  8.50000000E-01  8.50000000E-01
  7.90000000E-01  7.20000000E-01  7.20000000E-01  8.50000000E-01  8.50000000E-01
  8.50000000E-01  7.90000000E-01  7.20000000E-01  7.20000000E-01  8.50000000E-01
  8.50000000E-01  8.50000000E-01  7.90000000E-01  7.20000000E-01  7.20000000E-01
  8.50000000E-01  8.50000000E-01  8.50000000E-01  7.90000000E-01  7.20000000E-01
  7.20000000E-01  8.50000000E-01  8.50000000E-01  8.50000000E-01  7.90000000E-01
  7.20000000E-01  7.20000000E-01  8.50000000E-01  8.50000000E-01  8.50000000E-01
  7.90000000E-01  7.20000000E-01  7.20000000E-01  8.50000000E-01  8.50000000E-01
  8.50000000E-01  7.90000000E-01  7.20000000E-01  7.20000000E-01  8.50000000E-01
  8.50000000E-01  8.50000000E-01  7.90000000E-01  7.20000000E-01  7.20000000E-01
  8.50000000E-01  8.50000000E-01  8.50000000E-01  7.90000000E-01  7.20000000E-01
  7.20000000E-01  8.50000000E-01  8.50000000E-01  8.50000000E-01  7.90000000E-01
  7.20000000E-01  7.20000000E-01  8.50000000E-01  8.50000000E-01  8.50000000E-01
  7.90000000E-01  7.20000000E-01  7.20000000E-01  8.50000000E-01  8.50000000E-01
  8.50000000E-01  7.90000000E-01  7.20000000E-01  7.20000000E-01  8.50000000E-01
  8.50000000E-01  8.50000000E-01  7.90000000E-01  7.20000000E-01  7.20000000E-01
  8.50000000E-01  8.50000000E-01  8.50000000E-01  7.90000000E-01  7.20000000E-01
  7.20000000E-01  8.50000000E-01  8.50000000E-01  8.50000000E-01  7.90000000E-01
  7.20000000E-01  7.20000000E-01  8.50000000E-01  8.50000000E-01  8.50000000E-01
  7.90000000E-01  7.20000000E-01  7.20000000E-01  8.50000000E-01  8.50000000E-01
  8.50000000E-01  7.90000000E-01  7.20000000E-01  7.20000000E-01  8.50000000E-01
  8.50000000E-01  8.50000000E-01  7.90000000E-01  7.20000000E-01  7.20000000E-01
  8.50000000E-01  8.50000000E-01  8.50000000E-01  7.90000000E-01  7.20000000E-01
  7.20000000E-01  8.50000000E-01  8.50000000E-01  8.50000000E-01  7.90000000E-01
  7.20000000E-01  7.20000000E-01  8.50000000E-01  8.50000000E-01  8.50000000E-01
  7.90000000E-01  7.20000000E-01  7.20000000E-01  8.50000000E-01  8.50000000E-01
  8.50000000E-01  7.90000000E-01  7.20000000E-01  7.20000000E-01  8.50000000E-01
  8.50000000E-01  8.50000000E-01  7.90000000E-01  7.20000000E-01  7.20000000E-01
  8.50000000E-01  8.50000000E-01  8.50000000E-01  7.90000000E-01  7.20000000E-01
  7.20000000E-01  8.50000000E-01  8.50000000E-01  8.50000000E-01  7.90000000E-01
  7.20000000E-01  7.20000000E-01  8.50000000E-01  8.50000000E-01  8.50000000E-01
  7.90000000E-01  7.20000000E-01  7.20000000E-01  8.50000000E-01  8.50000000E-01
  8.50000000E-01  7.90000000E-01  7.20000000E-01  7.20000000E-01  8.50000000E-01
  8.50000000E-01  8.50000000E-01  7.90000000E-01  7.20000000E-01  7.20000000E-01
  8.50000000E-01  8.50000000E-01  8.50000000E-01  7.90000000E-01  7.20000000E-01
  7.20000000E-01  8.50000000E-01  8.50000000E-01  8.50000000E-01  7.90000000E-01
  7.20000000E-01  7.20000000E-01  8.50000000E-01  8.50000000E-01  8.50000000E-01
  7.90000000E-01  7.20000000E-01  7.20000000E-01  8.50000000E-01  8.50000000E-01
  8.50000000E-01  7.90000000E-01  7.20000000E-01  7.20000000E-01  8.50000000E-01
  8.50000000E-01  8.50000000E-01  7.90000000E-01  7.20000000E-01  7.20000000E-01
  8.50000000E-01  8.50000000E-01  8.50000000E-01  7.90000000E-01  7.20000000E-01
  7.20000000E-01  8.50000000E-01  8.50000000E-01  8.50000000E-01  7.90000000E-01
  7.20000000E-01  7.20000000E-01  8.50000000E-01  8.50000000E-01  8.50000000E-01
  7.90000000E-01  7.20000000E-01  7.20000000E-01  8.50000000E-01  8.50000000E-01
  8.50000000E-01  7.90000000E-01  7.20000000E-01  7.20000000E-01  8.50000000E-01
  8.50000000E-01  8.50000000E-01  7.90000000E-01  7.20000000E-01  7.20000000E-01
  8.50000000E-01  8.50000000E-01  8.50000000E-01  7.90000000E-01  7.20000000E-01
  7.20000000E-01  8.50000000E-01  8.50000000E-01  8.50000000E-01  7.90000000E-01
  7.20000000E-01  7.20000000E-01  8.50000000E-01  8.50000000E-01  8.50000000E-01
  7.90000000E-01  7.20000000E-01  7.20000000E-01  8.50000000E-01  8.50000000E-01
  8.50000000E-01  7.90000000E-01  7.20000000E-01  7.20000000E-01  8.50000000E-01
  8.50000000E-01  8.50000000E-01  7.90000000E-01  7.20000000E-01  7.20000000E-01
  8.50000000E-01  8.50000000E-01  8.50000000E-01  7.90000000E-01  7.20000000E-01
  7.20000000E-01  8.50000000E-01  8.50000000E-01  8.50000000E-01  7.90000000E-01
  7.20000000E-01  7.20000000E-01  8.50000000E-01  8.50000000E-01  8.50000000E-01
  7.90000000E-01  7.20000000E-01  7.20000000E-01  8.50000000E-01  8.50000000E-01
  8.50000000E-01  7.90000000E-01  7.20000000E-01  7.20000000E-01  8.50000000E-01
  8.50000000E-01  8.50000000E-01  7.90000000E-01  7.20000000E-01  7.20000000E-01
  8.50000000E-01  8.50000000E-01  8.50000000E-01  7.90000000E-01  7.20000000E-01
  7.20000000E-01  8.50000000E-01  8.50000000E-01  8.50000000E-01  7.90000000E-01
  7.20000000E-01  7.20000000E-01  8.50000000E-01  8.50000000E-01  8.50000000E-01
  7.90000000E-01  7.20000000E-01  7.20000000E-01  8.50000000E-01  8.50000000E-01
  8.50000000E-01  7.90000000E-01  7.20000000E-01  7.20000000E-01  8.50000000E-01
  8.50000000E-01  8.50000000E-01  7.90000000E-01  7.20000000E-01  7.20000000E-01
  8.50000000E-01  8.50000000E-01  8.50000000E-01  7.90000000E-01  7.20000000E-01
  7.20000000E-01  8.50000000E-01  8.50000000E-01  8.50000000E-01  7.90000000E-01
  7.20000000E-01  7.20000000E-01  8.50000000E-01  8.50000000E-01  8.50000000E-01
  7.90000000E-01  7.20000000E-01  7.20000000E-01  8.50000000E-01  8.50000000E-01
  8.50000000E-01  7.90000000E-01  7.20000000E-01  7.20000000E-01  8.50000000E-01
  8.50000000E-01  8.50000000E-01  7.90000000E-01  7.20000000E-01  7.20000000E-01
  8.50000000E-01  8.50000000E-01  8.50000000E-01  7.90000000E-01  7.20000000E-01
  7.20000000E-01  8.50000000E-01  8.50000000E-01  8.50000000E-01  7.90000000E-01
  7.20000000E-01  7.20000000E-01  8.50000000E-01  8.50000000E-01  8.50000000E-01
  7.90000000E-01  7.20000000E-01  7.20000000E-01  8.50000000E-01  8.50000000E-01
  8.50000000E-01  7.90000000E-01  7.20000000E-01  7.20000000E-01  8.50000000E-01
  8.50000000E-01  8.50000000E-01  7.90000000E-01  7.20000000E-01  7.20000000E-01
  8.50000000E-01  8.50000000E-01  8.50000000E-01  7.90000000E-01  7.20000000E-01
  7.20000000E-01  8.50000000E-01  8.50000000E-01  8.50000000E-01  7.90000000E-01
  7.20000000E-01  7.20000000E-01  8.50000000E-01  8.50000000E-01  8.50000000E-01
  7.90000000E-01  7.20000000E-01  7.20000000E-01  8.50000000E-01  8.50000000E-01
  8.50000000E-01  7.90000000E-01  7.20000000E-01  7.20000000E-01  8.50000000E-01
  8.50000000E-01  8.50000000E-01  7.90000000E-01  7.20000000E-01  7.20000000E-01
  8.50000000E-01  8.50000000E-01  8.50000000E-01  7.90000000E-01  7.20000000E-01
  7.20000000E-01  8.50000000E-01  8.50000000E-01  8.50000000E-01  7.90000000E-01
  7.20000000E-01  7.20000000E-01  8.50000000E-01  8.50000000E-01  8.50000000E-01
  7.90000000E-01  7.20000000E-01  7.20000000E-01  8.50000000E-01  8.50000000E-01
  8.50000000E-01  7.90000000E-01  7.20000000E-01  7.20000000E-01  8.50000000E-01
  8.50000000E-01  8.50000000E-01  7.90000000E-01  7.20000000E-01  7.20000000E-01
  8.50000000E-01  8.50000000E-01  8.50000000E-01  7.90000000E-01  7.20000000E-01
  7.20000000E-01  8.50000000E-01  8.50000000E-01  8.50000000E-01  7.90000000E-01
  7.20000000E-01  7.20000000E-01  8.50000000E-01  8.50000000E-01  8.50000000E-01
  7.90000000E-01  7.20000000E-01  7.20000000E-01  8.50000000E-01  8.50000000E-01
  8.50000000E-01  7.90000000E-01  7.20000000E-01  7.20000000E-01  8.50000000E-01
  8.50000000E-01  8.50000000E-01  7.90000000E-01  7.20000000E-01  7.20000000E-01
  8.50000000E-01  8.50000000E-01  8.50000000E-01  7.90000000E-01  7.20000000E-01
  7.20000000E-01  8.50000000E-01  8.50000000E-01  8.50000000E-01  7.90000000E-01
  7.20000000E-01  7.20000000E-01  8.50000000E-01  8.50000000E-01  8.50000000E-01
  7.90000000E-01  7.20000000E-01  7.20000000E-01  8.50000000E-01  8.50000000E-01
  8.50000000E-01  7.90000000E-01  7.20000000E-01  7.20000000E-01  8.50000000E-01
  8.50000000E-01  8.50000000E-01  7.90000000E-01  7.20000000E-01  7.20000000E-01
  8.50000000E-01  8.50000000E-01  8.50000000E-01  7.90000000E-01  7.20000000E-01
  7.20000000E-01  8.50000000E-01  8.50000000E-01  8.50000000E-01  7.90000000E-01
  7.20000000E-01  7.20000000E-01  8.50000000E-01  8.50000000E-01  8.50000000E-01
  7.90000000E-01  7.20000000E-01  7.20000000E-01  8.50000000E-01  8.50000000E-01
  8.50000000E-01  7.90000000E-01  7.20000000E-01  7.20000000E-01  8.50000000E-01
  8.50000000E-01  8.50000000E-01  7.90000000E-01  7.20000000E-01  7.20000000E-01
  8.50000000E-01  8.50000000E-01  8.50000000E-01  7.90000000E-01  7.20000000E-01
  7.20000000E-01  8.50000000E-01  8.50000000E-01  8.50000000E-01  7.90000000E-01
  7.20000000E-01  7.20000000E-01  8.50000000E-01  8.50000000E-01  8.50000000E-01
  7.90000000E-01  7.20000000E-01  7.20000000E-01  8.50000000E-01  8.50000000E-01
  8.50000000E-01  7.90000000E-01  7.20000000E-01  7.20000000E-01  8.50000000E-01
  8.50000000E-01  8.50000000E-01  7.90000000E-01  7.20000000E-01  7.20000000E-01
  8.50000000E-01  8.50000000E-01  8.50000000E-01  7.90000000E-01  7.20000000E-01
  7.20000000E-01  8.50000000E-01  8.50000000E-01  8.50000000E-01  7.90000000E-01
  7.20000000E-01  7.20000000E-01  8.50000000E-01  8.50000000E-01  8.50000000E-01
  7.90000000E-01  7.20000000E-01  7.20000000E-01  8.50000000E-01  8.50000000E-01
  8.50000000E-01  7.90000000E-01  7.20000000E-01  7.20000000E-01  8.50000000E-01
  8.50000000E-01  8.50000000E-01  7.90000000E-01  7.20000000E-01  7.20000000E-01
  8.50000000E-01  8.50000000E-01  8.50000000E-01  7.90000000E-01  7.20000000E-01
  7.20000000E-01  8.50000000E-01  8.50000000E-01  8.50000000E-01  7.90000000E-01
  7.20000000E-01  7.20000000E-01  8.50000000E-01  8.50000000E-01  8.50000000E-01
  7.90000000E-01  7.20000000E-01  7.20000000E-01  8.50000000E-01  8.50000000E-01
  8.50000000E-01  7.90000000E-01  7.20000000E-01  7.20000000E-01  8.50000000E-01
  8.50000000E-01  8.50000000E-01  7.90000000E-01  7.20000000E-01  7.20000000E-01
  8.50000000E-01  8.50000000E-01  8.50000000E-01  7.90000000E-01  7.20000000E-01
  7.20000000E-01  8.50000000E-01  8.50000000E-01  8.50000000E-01  7.90000000E-01
  7.20000000E-01  7.20000000E-01  8.50000000E-01  8.50000000E-01  8.50000000E-01
  7.90000000E-01  7.20000000E-01  7.20000000E-01  8.50000000E-01  8.50000000E-01
  8.50000000E-01  7.90000000E-01  7.20000000E-01  7.20000000E-01  8.50000000E-01
  8.50000000E-01  8.50000000E-01  7.90000000E-01  7.20000000E-01  7.20000000E-01
  8.50000000E-01  8.50000000E-01  8.50000000E-01  7.90000000E-01  7.20000000E-01
  7.20000000E-01  8.50000000E-01  8.50000000E-01  8.50000000E-01  7.90000000E-01
  7.20000000E-01  7.20000000E-01  8.50000000E-01  8.50000000E-01  8.50000000E-01
  7.90000000E-01  7.20000000E-01  7.20000000E-01  8.50000000E-01  8.50000000E-01
  8.50000000E-01  7.90000000E-01  7.20000000E-01  7.20000000E-01  8.50000000E-01
  8.50000000E-01  8.50000000E-01  7.90000000E-01  7.20000000E-01  7.20000000E-01
  8.50000000E-01  8.50000000E-01  8.50000000E-01  7.90000000E-01  7.20000000E-01
  7.20000000E-01  8.50000000E-01  8.50000000E-01  8.50000000E-01  7.90000000E-01
  7.20000000E-01  7.20000000E-01  8.50000000E-01  8.50000000E-01  8.50000000E-01
  7.90000000E-01  7.20000000E-01  7.20000000E-01  8.50000000E-01  8.50000000E-01
  8.50000000E-01  7.90000000E-01  7.20000000E-01  7.20000000E-01  8.50000000E-01
  8.50000000E-01  8.50000000E-01  7.90000000E-01  7.20000000E-01  7.20000000E-01
  8.50000000E-01  8.50000000E-01  8.50000000E-01  7.90000000E-01  7.20000000E-01
  7.20000000E-01  8.50000000E-01  8.50000000E-01  8.50000000E-01  7.90000000E-01
  7.20000000E-01  7.20000000E-01  8.50000000E-01  8.50000000E-01  8.50000000E-01
  7.90000000E-01  7.20000000E-01  7.20000000E-01  8.50000000E-01  8.50000000E-01
  8.50000000E-01  7.90000000E-01  7.20000000E-01  7.20000000E-01  8.50000000E-01
  8.50000000E-01  8.50000000E-01  7.90000000E-01  7.20000000E-01  7.20000000E-01
  8.50000000E-01  8.50000000E-01  8.50000000E-01  7.90000000E-01  7.20000000E-01
  7.20000000E-01  8.50000000E-01  8.50000000E-01  8.50000000E-01  7.90000000E-01
  7.20000000E-01  7.20000000E-01  8.50000000E-01  8.50000000E-01  8.50000000E-01
  7.90000000E-01  7.20000000E-01  7.20000000E-01  8.50000000E-01  8.50000000E-01
  8.50000000E-01  7.90000000E-01  7.20000000E-01  7.20000000E-01  8.50000000E-01
  8.50000000E-01  8.50000000E-01  7.90000000E-01  7.20000000E-01  7.20000000E-01
  8.50000000E-01  8.50000000E-01  8.50000000E-01  7.90000000E-01  7.20000000E-01
  7.20000000E-01  8.50000000E-01  8.50000000E-01  8.50000000E-01  7.90000000E-01
  7.20000000E-01  7.20000000E-01  8.50000000E-01  8.50000000E-01  8.50000000E-01
  7.90000000E-01  7.20000000E-01  7.20000000E-01  8.50000000E-01  8.50000000E-01
  8.50000000E-01  7.90000000E-01  7.20000000E-01  7.20000000E-01  8.50000000E-01
  8.50000000E-01  8.50000000E-01  7.90000000E-01  7.20000000E-01  7.20000000E-01
  8.50000000E-01  8.50000000E-01  8.50000000E-01  7.90000000E-01  7.20000000E-01
  7.20000000E-01  8.50000000E-01  8.50000000E-01  8.50000000E-01  7.90000000E-01
  7.20000000E-01  7.20000000E-01  8.50000000E-01  8.50000000E-01  8.50000000E-01
  7.90000000E-01  7.20000000E-01  7.20000000E-01  8.50000000E-01  8.50000000E-01
  8.50000000E-01  7.90000000E-01  7.20000000E-01  7.20000000E-01  8.50000000E-01
  8.50000000E-01  8.50000000E-01  7.90000000E-01  7.20000000E-01  7.20000000E-01
  8.50000000E-01  8.50000000E-01  8.50000000E-01  7.90000000E-01  7.20000000E-01
  7.20000000E-01  8.50000000E-01  8.50000000E-01  8.50000000E-01  7.90000000E-01
  7.20000000E-01  7.20000000E-01  8.50000000E-01  8.50000000E-01  8.50000000E-01
  7.90000000E-01  7.20000000E-01  7.20000000E-01  8.50000000E-01  8.50000000E-01
  8.50000000E-01  7.90000000E-01  7.20000000E-01  7.20000000E-01  8.50000000E-01
  8.50000000E-01  8.50000000E-01  7.90000000E-01  7.20000000E-01  7.20000000E-01
  8.50000000E-01  8.50000000E-01  8.50000000E-01  7.90000000E-01  7.20000000E-01
  7.20000000E-01  8.50000000E-01  8.50000000E-01  8.50000000E-01  7.90000000E-01
  7.20000000E-01  7.20000000E-01  8.50000000E-01  8.50000000E-01  8.50000000E-01
  7.90000000E-01  7.20000000E-01  7.20000000E-01  8.50000000E-01  8.50000000E-01
  8.50000000E-01  7.90000000E-01  7.20000000E-01  7.20000000E-01  8.50000000E-01
  8.50000000E-01  8.50000000E-01  7.90000000E-01  7.20000000E-01  7.20000000E-01
  8.50000000E-01  8.50000000E-01  8.50000000E-01  7.90000000E-01  7.20000000E-01
  7.20000000E-01  8.50000000E-01  8.50000000E-01  8.50000000E-01  7.90000000E-01
  7.20000000E-01  7.20000000E-01  8.50000000E-01  8.50000000E-01  8.50000000E-01
  7.90000000E-01  7.20000000E-01  7.20000000E-01  8.50000000E-01  8.50000000E-01
  8.50000000E-01  7.90000000E-01  7.20000000E-01  7.20000000E-01  8.50000000E-01
  8.50000000E-01  8.50000000E-01  7.90000000E-01  7.20000000E-01  7.20000000E-01
  8.50000000E-01  8.50000000E-01  8.50000000E-01  7.90000000E-01  7.20000000E-01
  7.20000000E-01  8.50000000E-01  8.50000000E-01  8.50000000E-01  7.90000000E-01
  7.20000000E-01  7.20000000E-01  8.50000000E-01  8.50000000E-01  8.50000000E-01
  7.90000000E-01  7.20000000E-01  7.20000000E-01  8.50000000E-01  8.50000000E-01
  8.50000000E-01  7.90000000E-01  7.20000000E-01  7.20000000E-01  8.50000000E-01
  8.50000000E-01  8.50000000E-01  7.90000000E-01  7.20000000E-01  7.20000000E-01
  8.50000000E-01  8.50000000E-01  8.50000000E-01  7.90000000E-01  7.20000000E-01
  7.20000000E-01  8.50000000E-01  8.50000000E-01  8.50000000E-01  7.90000000E-01
  7.20000000E-01  7.20000000E-01  8.50000000E-01  8.50000000E-01  8.50000000E-01
  7.90000000E-01  7.20000000E-01  7.20000000E-01  8.50000000E-01  8.50000000E-01
  8.50000000E-01  7.90000000E-01  7.20000000E-01  7.20000000E-01  8.50000000E-01
  8.50000000E-01  8.50000000E-01  7.90000000E-01  7.20000000E-01  7.20000000E-01
  8.50000000E-01  8.50000000E-01  8.50000000E-01  7.90000000E-01  7.20000000E-01
  7.20000000E-01  8.50000000E-01  8.50000000E-01  8.50000000E-01  7.90000000E-01
  7.20000000E-01  7.20000000E-01  8.50000000E-01  8.50000000E-01  8.50000000E-01
  7.90000000E-01  7.20000000E-01  7.20000000E-01  8.50000000E-01  8.50000000E-01
  8.50000000E-01  7.90000000E-01  7.20000000E-01  7.20000000E-01  8.50000000E-01
  8.50000000E-01  8.50000000E-01  7.90000000E-01  7.20000000E-01  7.20000000E-01
  8.50000000E-01  8.50000000E-01  8.50000000E-01  7.90000000E-01  7.20000000E-01
  7.20000000E-01  8.50000000E-01  8.50000000E-01  8.50000000E-01  7.90000000E-01
  7.20000000E-01  7.20000000E-01  8.50000000E-01  8.50000000E-01  8.50000000E-01
  7.90000000E-01  7.20000000E-01  7.20000000E-01  8.50000000E-01  8.50000000E-01
  8.50000000E-01  7.90000000E-01  7.20000000E-01  7.20000000E-01  8.50000000E-01
  8.50000000E-01  8.50000000E-01  7.90000000E-01  7.20000000E-01  7.20000000E-01
  8.50000000E-01  8.50000000E-01  8.50000000E-01  7.90000000E-01  7.20000000E-01
  7.20000000E-01  8.50000000E-01  8.50000000E-01  8.50000000E-01  7.90000000E-01
  7.20000000E-01  7.20000000E-01  8.50000000E-01  8.50000000E-01  8.50000000E-01
  7.90000000E-01  7.20000000E-01  7.20000000E-01  8.50000000E-01  8.50000000E-01
  8.50000000E-01  7.90000000E-01  7.20000000E-01  7.20000000E-01  8.50000000E-01
  8.50000000E-01  8.50000000E-01  7.90000000E-01  7.20000000E-01  7.20000000E-01
  8.50000000E-01  8.50000000E-01  8.50000000E-01  7.90000000E-01  7.20000000E-01
  7.20000000E-01  8.50000000E-01  8.50000000E-01  8.50000000E-01  7.90000000E-01
  7.20000000E-01  7.20000000E-01  8.50000000E-01  8.50000000E-01  8.50000000E-01
  7.90000000E-01  7.20000000E-01  7.20000000E-01  8.50000000E-01  8.50000000E-01
  8.50000000E-01  7.90000000E-01  7.20000000E-01  7.20000000E-01  8.50000000E-01
  8.50000000E-01  8.50000000E-01  7.90000000E-01  7.20000000E-01  7.20000000E-01
  8.50000000E-01  8.50000000E-01  8.50000000E-01  7.90000000E-01  7.20000000E-01
  7.20000000E-01  8.50000000E-01  8.50000000E-01  8.50000000E-01  7.90000000E-01
  7.20000000E-01  7.20000000E-01  8.50000000E-01  8.50000000E-01  8.50000000E-01
  7.90000000E-01  7.20000000E-01  7.20000000E-01  8.50000000E-01  8.50000000E-01
  8.50000000E-01  7.90000000E-01  7.20000000E-01  7.20000000E-01  8.50000000E-01
  8.50000000E-01  8.50000000E-01  7.90000000E-01  7.20000000E-01  7.20000000E-01
  8.50000000E-01  8.50000000E-01  8.50000000E-01  7.90000000E-01  7.20000000E-01
  7.20000000E-01  8.50000000E-01  8.50000000E-01  8.50000000E-01  7.90000000E-01
  7.20000000E-01  7.20000000E-01  8.50000000E-01  8.50000000E-01  8.50000000E-01
  7.90000000E-01  7.20000000E-01  7.20000000E-01  8.50000000E-01  8.50000000E-01
  8.50000000E-01  7.90000000E-01  7.20000000E-01  7.20000000E-01  8.50000000E-01
  8.50000000E-01  8.50000000E-01  7.90000000E-01  7.20000000E-01  7.20000000E-01
  8.50000000E-01  8.50000000E-01  8.50000000E-01  7.90000000E-01  7.20000000E-01
  7.20000000E-01  8.50000000E-01  8.50000000E-01  8.50000000E-01  7.90000000E-01
  7.20000000E-01  7.20000000E-01  8.50000000E-01  8.50000000E-01  8.50000000E-01
  7.90000000E-01  7.20000000E-01  7.20000000E-01  8.50000000E-01  8.50000000E-01
  8.50000000E-01  7.90000000E-01  7.20000000E-01  7.20000000E-01  8.50000000E-01
  8.50000000E-01  8.50000000E-01  7.90000000E-01  7.20000000E-01  7.20000000E-01
  8.50000000E-01  8.50000000E-01  8.50000000E-01  7.90000000E-01  7.20000000E-01
  7.20000000E-01  8.50000000E-01  8.50000000E-01  8.50000000E-01  7.90000000E-01
  7.20000000E-01  7.20000000E-01  8.50000000E-01  8.50000000E-01  8.50000000E-01
  7.90000000E-01  7.20000000E-01  7.20000000E-01  8.50000000E-01  8.50000000E-01
  8.50000000E-01  7.90000000E-01  7.20000000E-01  7.20000000E-01  8.50000000E-01
  8.50000000E-01  8.50000000E-01  7.90000000E-01  7.20000000E-01  7.20000000E-01
  8.50000000E-01  8.50000000E-01  8.50000000E-01  7.90000000E-01  7.20000000E-01
  7.20000000E-01  8.50000000E-01  8.50000000E-01  8.50000000E-01  7.90000000E-01
  7.20000000E-01  7.20000000E-01  8.50000000E-01  8.50000000E-01  8.50000000E-01
  7.90000000E-01  7.20000000E-01  7.20000000E-01  8.50000000E-01  8.50000000E-01
  8.50000000E-01  7.90000000E-01  7.20000000E-01  7.20000000E-01  8.50000000E-01
  8.50000000E-01  8.50000000E-01  7.90000000E-01  7.20000000E-01  7.20000000E-01
  8.50000000E-01  8.50000000E-01  8.50000000E-01  7.90000000E-01  7.20000000E-01
  7.20000000E-01  8.50000000E-01  8.50000000E-01  8.50000000E-01  7.90000000E-01
  7.20000000E-01  7.20000000E-01  8.50000000E-01  8.50000000E-01  8.50000000E-01
  7.90000000E-01  7.20000000E-01  7.20000000E-01  8.50000000E-01  8.50000000E-01
  8.50000000E-01  7.90000000E-01  7.20000000E-01  7.20000000E-01  8.50000000E-01
  8.50000000E-01  8.50000000E-01  7.90000000E-01  7.20000000E-01  7.20000000E-01
  8.50000000E-01  8.50000000E-01  8.50000000E-01  7.90000000E-01  7.20000000E-01
  7.20000000E-01  8.50000000E-01  8.50000000E-01  8.50000000E-01  7.90000000E-01
  7.20000000E-01  7.20000000E-01  8.50000000E-01  8.50000000E-01  8.50000000E-01
  7.90000000E-01  7.20000000E-01  7.20000000E-01  8.50000000E-01  8.50000000E-01
  8.50000000E-01  7.90000000E-01  7.20000000E-01  7.20000000E-01  8.50000000E-01
  8.50000000E-01  8.50000000E-01  7.90000000E-01  7.20000000E-01  7.20000000E-01
  8.50000000E-01  8.50000000E-01  8.50000000E-01  7.90000000E-01  7.20000000E-01
  7.20000000E-01  8.50000000E-01  8.50000000E-01  8.50000000E-01  7.90000000E-01
  7.20000000E-01  7.20000000E-01  8.50000000E-01  8.50000000E-01  8.50000000E-01
  7.90000000E-01  7.20000000E-01  7.20000000E-01  8.50000000E-01  8.50000000E-01
  8.50000000E-01  7.90000000E-01  7.20000000E-01  7.20000000E-01  8.50000000E-01
  8.50000000E-01  8.50000000E-01  7.90000000E-01  7.20000000E-01  7.20000000E-01
  8.50000000E-01  8.50000000E-01  8.50000000E-01  7.90000000E-01  7.20000000E-01
  7.20000000E-01  8.50000000E-01  8.50000000E-01  8.50000000E-01  7.90000000E-01
  7.20000000E-01  7.20000000E-01  8.50000000E-01  8.50000000E-01  8.50000000E-01
  7.90000000E-01  7.20000000E-01  7.20000000E-01  8.50000000E-01  8.50000000E-01
  8.50000000E-01  7.90000000E-01  7.20000000E-01  7.20000000E-01  8.50000000E-01
  8.50000000E-01  8.50000000E-01  7.90000000E-01  7.20000000E-01  7.20000000E-01
  8.50000000E-01  8.50000000E-01  8.50000000E-01  7.90000000E-01  7.20000000E-01
  7.20000000E-01  8.50000000E-01  8.50000000E-01  8.50000000E-01  7.90000000E-01
  7.20000000E-01  7.20000000E-01  8.50000000E-01  8.50000000E-01  8.50000000E-01
  7.90000000E-01  7.20000000E-01  7.20000000E-01  8.50000000E-01  8.50000000E-01
  8.50000000E-01  7.90000000E-01  7.20000000E-01  7.20000000E-01  8.50000000E-01
  8.50000000E-01  8.50000000E-01  7.90000000E-01  7.20000000E-01  7.20000000E-01
  8.50000000E-01  8.50000000E-01  8.50000000E-01  7.90000000E-01  7.20000000E-01
  7.20000000E-01  8.50000000E-01  8.50000000E-01  8.50000000E-01  7.90000000E-01
  7.20000000E-01  7.20000000E-01  8.50000000E-01  8.50000000E-01  8.50000000E-01
  7.90000000E-01  7.20000000E-01  7.20000000E-01  8.50000000E-01  8.50000000E-01
  8.50000000E-01  7.90000000E-01  7.20000000E-01  7.20000000E-01  8.50000000E-01
  8.50000000E-01  8.50000000E-01  7.90000000E-01  7.20000000E-01  7.20000000E-01
  8.50000000E-01  8.50000000E-01  8.50000000E-01  7.90000000E-01  7.20000000E-01
  7.20000000E-01  8.50000000E-01  8.50000000E-01  8.50000000E-01  7.90000000E-01
  7.20000000E-01  7.20000000E-01  8.50000000E-01  8.50000000E-01  8.50000000E-01
  7.90000000E-01  7.20000000E-01  7.20000000E-01  8.50000000E-01  8.50000000E-01
  8.50000000E-01  7.90000000E-01  7.20000000E-01  7.20000000E-01  8.50000000E-01
  8.50000000E-01  8.50000000E-01  7.90000000E-01  7.20000000E-01  7.20000000E-01
  8.50000000E-01  8.50000000E-01  8.50000000E-01  7.90000000E-01  7.20000000E-01
  7.20000000E-01  8.50000000E-01  8.50000000E-01  8.50000000E-01  7.90000000E-01
  7.20000000E-01  7.20000000E-01  8.50000000E-01  8.50000000E-01  8.50000000E-01
  7.90000000E-01  7.20000000E-01  7.20000000E-01  8.50000000E-01  8.50000000E-01
  8.50000000E-01  7.90000000E-01  7.20000000E-01  7.20000000E-01  8.50000000E-01
  8.50000000E-01  8.50000000E-01  7.90000000E-01  7.20000000E-01  7.20000000E-01
  8.50000000E-01  8.50000000E-01  8.50000000E-01  7.90000000E-01  7.20000000E-01
  7.20000000E-01  8.50000000E-01  8.50000000E-01  8.50000000E-01  7.90000000E-01
  7.20000000E-01  7.20000000E-01  8.50000000E-01  8.50000000E-01  8.50000000E-01
  7.90000000E-01  7.20000000E-01  7.20000000E-01  8.50000000E-01  8.50000000E-01
  8.50000000E-01  7.90000000E-01  7.20000000E-01  7.20000000E-01  8.50000000E-01
  8.50000000E-01  8.50000000E-01  7.90000000E-01  7.20000000E-01  7.20000000E-01
  8.50000000E-01  8.50000000E-01  8.50000000E-01  7.90000000E-01  7.20000000E-01
  7.20000000E-01  8.50000000E-01  8.50000000E-01  8.50000000E-01  7.90000000E-01
  7.20000000E-01  7.20000000E-01  8.50000000E-01  8.50000000E-01  8.50000000E-01
  7.90000000E-01  7.20000000E-01  7.20000000E-01  8.50000000E-01  8.50000000E-01
  8.50000000E-01  7.90000000E-01  7.20000000E-01  7.20000000E-01  8.50000000E-01
  8.50000000E-01  8.50000000E-01  7.90000000E-01  7.20000000E-01  7.20000000E-01
  8.50000000E-01  8.50000000E-01  8.50000000E-01  7.90000000E-01  7.20000000E-01
  7.20000000E-01  8.50000000E-01  8.50000000E-01  8.50000000E-01  7.90000000E-01
  7.20000000E-01  7.20000000E-01  8.50000000E-01  8.50000000E-01  8.50000000E-01
  7.90000000E-01  7.20000000E-01  7.20000000E-01  8.50000000E-01  8.50000000E-01
  8.50000000E-01  7.90000000E-01  7.20000000E-01  7.20000000E-01  8.50000000E-01
  8.50000000E-01  8.50000000E-01  7.90000000E-01  7.20000000E-01  7.20000000E-01
  8.50000000E-01  8.50000000E-01  8.50000000E-01  7.90000000E-01  7.20000000E-01
  7.20000000E-01  8.50000000E-01  8.50000000E-01  8.50000000E-01  7.90000000E-01
  7.20000000E-01  7.20000000E-01  8.50000000E-01  8.50000000E-01  8.50000000E-01
  7.90000000E-01  7.20000000E-01  7.20000000E-01  8.50000000E-01  8.50000000E-01
  8.50000000E-01  7.90000000E-01  7.20000000E-01  7.20000000E-01  8.50000000E-01
  8.50000000E-01  8.50000000E-01  7.90000000E-01  7.20000000E-01  7.20000000E-01
  8.50000000E-01  8.50000000E-01  8.50000000E-01  7.90000000E-01  7.20000000E-01
  7.20000000E-01  8.50000000E-01  8.50000000E-01  8.50000000E-01  7.90000000E-01
  7.20000000E-01  7.20000000E-01  8.50000000E-01  8.50000000E-01  8.50000000E-01
  7.90000000E-01  7.20000000E-01  7.20000000E-01  8.50000000E-01  8.50000000E-01
  8.50000000E-01  7.90000000E-01  7.20000000E-01  7.20000000E-01  8.50000000E-01
  8.50000000E-01  8.50000000E-01  7.90000000E-01  7.20000000E-01  7.20000000E-01
  8.50000000E-01  8.50000000E-01  8.50000000E-01  7.90000000E-01  7.20000000E-01
  7.20000000E-01  8.50000000E-01  8.50000000E-01  8.50000000E-01  7.90000000E-01
  7.20000000E-01  7.20000000E-01  8.50000000E-01  8.50000000E-01  8.50000000E-01
  7.90000000E-01  7.20000000E-01  7.20000000E-01  8.50000000E-01  8.50000000E-01
  8.50000000E-01  7.90000000E-01  7.20000000E-01  7.20000000E-01  8.50000000E-01
  8.50000000E-01  8.50000000E-01  7.90000000E-01  7.20000000E-01  7.20000000E-01
  8.50000000E-01  8.50000000E-01  8.50000000E-01  7.90000000E-01  7.20000000E-01
  7.20000000E-01  8.50000000E-01  8.50000000E-01  8.50000000E-01  7.90000000E-01
  7.20000000E-01  7.20000000E-01  8.50000000E-01  8.50000000E-01  8.50000000E-01
  7.90000000E-01  7.20000000E-01  7.20000000E-01  8.50000000E-01  8.50000000E-01
  8.50000000E-01  7.90000000E-01  7.20000000E-01  7.20000000E-01  8.50000000E-01
  8.50000000E-01  8.50000000E-01  7.90000000E-01  7.20000000E-01  7.20000000E-01
  8.50000000E-01  8.50000000E-01  8.50000000E-01  7.90000000E-01  7.20000000E-01
  7.20000000E-01  8.50000000E-01  8.50000000E-01  8.50000000E-01  7.90000000E-01
  7.20000000E-01  7.20000000E-01  8.50000000E-01  8.50000000E-01  8.50000000E-01
  7.90000000E-01  7.20000000E-01  7.20000000E-01  8.50000000E-01  8.50000000E-01
  8.50000000E-01  7.90000000E-01  7.20000000E-01  7.20000000E-01  8.50000000E-01
  8.50000000E-01  8.50000000E-01  7.90000000E-01  7.20000000E-01  7.20000000E-01
  8.50000000E-01  8.50000000E-01  8.50000000E-01  7.90000000E-01  7.20000000E-01
  7.20000000E-01  8.50000000E-01  8.50000000E-01  8.50000000E-01  7.90000000E-01
  7.20000000E-01  7.20000000E-01  8.50000000E-01  8.50000000E-01  8.50000000E-01
  7.90000000E-01  7.20000000E-01  7.20000000E-01  8.50000000E-01  8.50000000E-01
  8.50000000E-01  7.90000000E-01  7.20000000E-01  7.20000000E-01  8.50000000E-01
  8.50000000E-01  8.50000000E-01  7.90000000E-01  7.20000000E-01  7.20000000E-01
  8.50000000E-01  8.50000000E-01  8.50000000E-01  7.90000000E-01  7.20000000E-01
  7.20000000E-01  8.50000000E-01  8.50000000E-01  8.50000000E-01  7.90000000E-01
  7.20000000E-01  7.20000000E-01  8.50000000E-01  8.50000000E-01  8.50000000E-01
  7.90000000E-01  7.20000000E-01  7.20000000E-01  8.50000000E-01  8.50000000E-01
  8.50000000E-01  7.90000000E-01  7.20000000E-01  7.20000000E-01  8.50000000E-01
  8.50000000E-01  8.50000000E-01  7.90000000E-01  7.20000000E-01  7.20000000E-01
  8.50000000E-01  8.50000000E-01  8.50000000E-01  7.90000000E-01  7.20000000E-01
  7.20000000E-01  8.50000000E-01  8.50000000E-01  8.50000000E-01  7.90000000E-01
  7.20000000E-01  7.20000000E-01  8.50000000E-01  8.50000000E-01  8.50000000E-01
  7.90000000E-01  7.20000000E-01  7.20000000E-01  8.50000000E-01  8.50000000E-01
  8.50000000E-01  7.90000000E-01  7.20000000E-01  7.20000000E-01  8.50000000E-01
  8.50000000E-01  8.50000000E-01  7.90000000E-01  7.20000000E-01  7.20000000E-01
  8.50000000E-01  8.50000000E-01  8.50000000E-01  7.90000000E-01  7.20000000E-01
  7.20000000E-01  8.50000000E-01  8.50000000E-01  8.50000000E-01  7.90000000E-01
  7.20000000E-01  7.20000000E-01  8.50000000E-01  8.50000000E-01  8.50000000E-01
  7.90000000E-01  7.20000000E-01  7.20000000E-01  8.50000000E-01  8.50000000E-01
  8.50000000E-01  7.90000000E-01  7.20000000E-01  7.20000000E-01  8.50000000E-01
  8.50000000E-01  8.50000000E-01  7.90000000E-01  7.20000000E-01  7.20000000E-01
  8.50000000E-01  8.50000000E-01  8.50000000E-01  7.90000000E-01  7.20000000E-01
  7.20000000E-01  8.50000000E-01  8.50000000E-01  8.50000000E-01  7.90000000E-01
  7.20000000E-01  7.20000000E-01  8.50000000E-01  8.50000000E-01  8.50000000E-01
  7.90000000E-01  7.20000000E-01  7.20000000E-01  8.50000000E-01  8.50000000E-01
  8.50000000E-01  7.90000000E-01  7.20000000E-01  7.20000000E-01  8.50000000E-01
  8.50000000E-01  8.50000000E-01  7.90000000E-01  7.20000000E-01  7.20000000E-01
  8.50000000E-01  8.50000000E-01  8.50000000E-01  7.90000000E-01  7.20000000E-01
  7.20000000E-01  8.50000000E-01  8.50000000E-01  8.50000000E-01  7.90000000E-01
  7.20000000E-01  7.20000000E-01  8.50000000E-01  8.50000000E-01  8.50000000E-01
  7.90000000E-01  7.20000000E-01  7.20000000E-01  8.50000000E-01  8.50000000E-01
  8.50000000E-01  7.90000000E-01  7.20000000E-01  7.20000000E-01  8.50000000E-01
  8.50000000E-01  8.50000000E-01  7.90000000E-01  7.20000000E-01  7.20000000E-01
  8.50000000E-01  8.50000000E-01  8.50000000E-01  7.90000000E-01  7.20000000E-01
  7.20000000E-01  8.50000000E-01  8.50000000E-01  8.50000000E-01  7.90000000E-01
  7.20000000E-01  7.20000000E-01  8.50000000E-01  8.50000000E-01  8.50000000E-01
  7.90000000E-01  7.20000000E-01  7.20000000E-01  8.50000000E-01  8.50000000E-01
  8.50000000E-01  7.90000000E-01  7.20000000E-01  7.20000000E-01  8.50000000E-01
  8.50000000E-01  8.50000000E-01  7.90000000E-01  7.20000000E-01  7.20000000E-01
  8.50000000E-01  8.50000000E-01  8.50000000E-01  7.90000000E-01  7.20000000E-01
  7.20000000E-01  8.50000000E-01  8.50000000E-01  8.50000000E-01  7.90000000E-01
  7.20000000E-01  7.20000000E-01  8.50000000E-01  8.50000000E-01  8.50000000E-01
  7.90000000E-01  7.20000000E-01  7.20000000E-01  8.50000000E-01  8.50000000E-01
  8.50000000E-01  7.90000000E-01  7.20000000E-01  7.20000000E-01  8.50000000E-01
  8.50000000E-01  8.50000000E-01  7.90000000E-01  7.20000000E-01  7.20000000E-01
  8.50000000E-01  8.50000000E-01  8.50000000E-01  7.90000000E-01  7.20000000E-01
  7.20000000E-01  8.50000000E-01  8.50000000E-01  8.50000000E-01  7.90000000E-01
  7.20000000E-01  7.20000000E-01  8.50000000E-01  8.50000000E-01  8.50000000E-01
  7.90000000E-01  7.20000000E-01  7.20000000E-01  8.50000000E-01  8.50000000E-01
  8.50000000E-01  7.90000000E-01  7.20000000E-01  7.20000000E-01  8.50000000E-01
  8.50000000E-01  8.50000000E-01  7.90000000E-01  7.20000000E-01  7.20000000E-01
  8.50000000E-01  8.50000000E-01  8.50000000E-01  7.90000000E-01  7.20000000E-01
  7.20000000E-01  8.50000000E-01  8.50000000E-01  8.50000000E-01  7.90000000E-01
  7.20000000E-01  7.20000000E-01  8.50000000E-01  8.50000000E-01  8.50000000E-01
  7.90000000E-01  7.20000000E-01  7.20000000E-01  8.50000000E-01  8.50000000E-01
  8.50000000E-01  7.90000000E-01  7.20000000E-01  7.20000000E-01  8.50000000E-01
  8.50000000E-01  8.50000000E-01  7.90000000E-01  7.20000000E-01  7.20000000E-01
  8.50000000E-01  8.50000000E-01  8.50000000E-01  7.90000000E-01  7.20000000E-01
  7.20000000E-01  8.50000000E-01  8.50000000E-01  8.50000000E-01  7.90000000E-01
  7.20000000E-01  7.20000000E-01  8.50000000E-01  8.50000000E-01  8.50000000E-01
  7.90000000E-01  7.20000000E-01  7.20000000E-01  8.50000000E-01  8.50000000E-01
  8.50000000E-01  7.90000000E-01  7.20000000E-01  7.20000000E-01  8.50000000E-01
  8.50000000E-01  8.50000000E-01  7.90000000E-01  7.20000000E-01  7.20000000E-01
  8.50000000E-01  8.50000000E-01  8.50000000E-01  7.90000000E-01  7.20000000E-01
  7.20000000E-01  8.50000000E-01  8.50000000E-01  8.50000000E-01  7.90000000E-01
  7.20000000E-01  7.20000000E-01  8.50000000E-01  8.50000000E-01  8.50000000E-01
  7.90000000E-01  7.20000000E-01  7.20000000E-01  8.50000000E-01  8.50000000E-01
  8.50000000E-01  7.90000000E-01  7.20000000E-01  7.20000000E-01  8.50000000E-01
  8.50000000E-01  8.50000000E-01  7.90000000E-01  7.20000000E-01  7.20000000E-01
  8.50000000E-01  8.50000000E-01  8.50000000E-01  7.90000000E-01  7.20000000E-01
  7.20000000E-01  8.50000000E-01  8.50000000E-01  8.50000000E-01  7.90000000E-01
  7.20000000E-01  7.20000000E-01  8.50000000E-01  8.50000000E-01  8.50000000E-01
  7.90000000E-01  7.20000000E-01  7.20000000E-01  8.50000000E-01  8.50000000E-01
  8.50000000E-01  7.90000000E-01  7.20000000E-01  7.20000000E-01  8.50000000E-01
  8.50000000E-01  8.50000000E-01  7.90000000E-01  7.20000000E-01  7.20000000E-01
  8.50000000E-01  8.50000000E-01  8.50000000E-01  7.90000000E-01  7.20000000E-01
  7.20000000E-01  8.50000000E-01  8.50000000E-01  8.50000000E-01  7.90000000E-01
  7.20000000E-01  7.20000000E-01  8.50000000E-01  8.50000000E-01  8.50000000E-01
  7.90000000E-01  7.20000000E-01  7.20000000E-01  8.50000000E-01  8.50000000E-01
  8.50000000E-01  7.90000000E-01  7.20000000E-01  7.20000000E-01  8.50000000E-01
  8.50000000E-01  8.50000000E-01  7.90000000E-01  7.20000000E-01  7.20000000E-01
  8.50000000E-01  8.50000000E-01  8.50000000E-01  7.90000000E-01  7.20000000E-01
  7.20000000E-01  8.50000000E-01  8.50000000E-01  8.50000000E-01  7.90000000E-01
  7.20000000E-01  7.20000000E-01  8.50000000E-01  8.50000000E-01  8.50000000E-01
  7.90000000E-01  7.20000000E-01  7.20000000E-01  8.50000000E-01  8.50000000E-01
  8.50000000E-01  7.90000000E-01  7.20000000E-01  7.20000000E-01  8.50000000E-01
  8.50000000E-01  8.50000000E-01  7.90000000E-01  7.20000000E-01  7.20000000E-01
  8.50000000E-01  8.50000000E-01  8.50000000E-01  7.90000000E-01  7.20000000E-01
  7.20000000E-01  8.50000000E-01  8.50000000E-01  8.50000000E-01  7.90000000E-01
  7.20000000E-01  7.20000000E-01  8.50000000E-01  8.50000000E-01  8.50000000E-01
  7.90000000E-01  7.20000000E-01  7.20000000E-01  8.50000000E-01  8.50000000E-01
  8.50000000E-01  7.90000000E-01  7.20000000E-01  7.20000000E-01  8.50000000E-01
  8.50000000E-01  8.50000000E-01  7.90000000E-01  7.20000000E-01  7.20000000E-01
  8.50000000E-01  8.50000000E-01  8.50000000E-01  7.90000000E-01  7.20000000E-01
  7.20000000E-01  8.50000000E-01  8.50000000E-01  8.50000000E-01  7.90000000E-01
  7.20000000E-01  7.20000000E-01  8.50000000E-01  8.50000000E-01  8.50000000E-01
  7.90000000E-01  7.20000000E-01  7.20000000E-01  8.50000000E-01  8.50000000E-01
  8.50000000E-01  7.90000000E-01  7.20000000E-01  7.20000000E-01  8.50000000E-01
  8.50000000E-01  8.50000000E-01  7.90000000E-01  7.20000000E-01  7.20000000E-01
  8.50000000E-01  8.50000000E-01  8.50000000E-01  7.90000000E-01  7.20000000E-01
  7.20000000E-01  8.50000000E-01  8.50000000E-01  8.50000000E-01  7.90000000E-01
  7.20000000E-01  7.20000000E-01  8.50000000E-01  8.50000000E-01  8.50000000E-01
  7.90000000E-01  7.20000000E-01  7.20000000E-01  8.50000000E-01  8.50000000E-01
  8.50000000E-01  7.90000000E-01  7.20000000E-01  7.20000000E-01  8.50000000E-01
  8.50000000E-01  8.50000000E-01  7.90000000E-01  7.20000000E-01  7.20000000E-01
  8.50000000E-01  8.50000000E-01  8.50000000E-01  7.90000000E-01  7.20000000E-01
  7.20000000E-01  8.50000000E-01  8.50000000E-01  8.50000000E-01  7.90000000E-01
  7.20000000E-01  7.20000000E-01  8.50000000E-01  8.50000000E-01  8.50000000E-01
  7.90000000E-01  7.20000000E-01  7.20000000E-01  8.50000000E-01  8.50000000E-01
  8.50000000E-01  7.90000000E-01  7.20000000E-01  7.20000000E-01  8.50000000E-01
  8.50000000E-01  8.50000000E-01  7.90000000E-01  7.20000000E-01  7.20000000E-01
  8.50000000E-01  8.50000000E-01  8.50000000E-01  7.90000000E-01  7.20000000E-01
  7.20000000E-01  8.50000000E-01  8.50000000E-01  8.50000000E-01  7.90000000E-01
  7.20000000E-01  7.20000000E-01  8.50000000E-01  8.50000000E-01  8.50000000E-01
  7.90000000E-01  7.20000000E-01  7.20000000E-01  8.50000000E-01  8.50000000E-01
  8.50000000E-01  7.90000000E-01  7.20000000E-01  7.20000000E-01  8.50000000E-01
  8.50000000E-01  8.50000000E-01  7.90000000E-01  7.20000000E-01  7.20000000E-01
  8.50000000E-01  8.50000000E-01  8.50000000E-01  7.90000000E-01  7.20000000E-01
  7.20000000E-01  8.50000000E-01  8.50000000E-01  8.50000000E-01  7.90000000E-01
  7.20000000E-01  7.20000000E-01  8.50000000E-01  8.50000000E-01  8.50000000E-01
  7.90000000E-01  7.20000000E-01  7.20000000E-01  8.50000000E-01  8.50000000E-01
  8.50000000E-01  7.90000000E-01  7.20000000E-01  7.20000000E-01  8.50000000E-01
  8.50000000E-01  8.50000000E-01  7.90000000E-01  7.20000000E-01  7.20000000E-01
  8.50000000E-01  8.50000000E-01  8.50000000E-01  7.90000000E-01  7.20000000E-01
  7.20000000E-01  8.50000000E-01  8.50000000E-01  8.50000000E-01  7.90000000E-01
  7.20000000E-01  7.20000000E-01  8.50000000E-01  8.50000000E-01  8.50000000E-01
  7.90000000E-01  7.20000000E-01  7.20000000E-01  8.50000000E-01  8.50000000E-01
  8.50000000E-01  7.90000000E-01  7.20000000E-01  7.20000000E-01  8.50000000E-01
  8.50000000E-01  8.50000000E-01  7.90000000E-01  7.20000000E-01  7.20000000E-01
  8.50000000E-01  8.50000000E-01  8.50000000E-01  7.90000000E-01  7.20000000E-01
  7.20000000E-01  8.50000000E-01  8.50000000E-01  8.50000000E-01  7.90000000E-01
  7.20000000E-01  7.20000000E-01  8.50000000E-01  8.50000000E-01  8.50000000E-01
  7.90000000E-01  7.20000000E-01  7.20000000E-01  8.50000000E-01  8.50000000E-01
  8.50000000E-01  7.90000000E-01  7.20000000E-01  7.20000000E-01  8.50000000E-01
  8.50000000E-01  8.50000000E-01  7.90000000E-01  7.20000000E-01  7.20000000E-01
  8.50000000E-01  8.50000000E-01  8.50000000E-01  7.90000000E-01  7.20000000E-01
  7.20000000E-01  8.50000000E-01  8.50000000E-01  8.50000000E-01  7.90000000E-01
  7.20000000E-01  7.20000000E-01  8.50000000E-01  8.50000000E-01  8.50000000E-01
  7.90000000E-01  7.20000000E-01  7.20000000E-01  8.50000000E-01  8.50000000E-01
  8.50000000E-01  7.90000000E-01  7.20000000E-01  7.20000000E-01  8.50000000E-01
  8.50000000E-01  8.50000000E-01  7.90000000E-01  7.20000000E-01  7.20000000E-01
  8.50000000E-01  8.50000000E-01  8.50000000E-01  7.90000000E-01  7.20000000E-01
  7.20000000E-01  8.50000000E-01  8.50000000E-01  8.50000000E-01  7.90000000E-01
  7.20000000E-01  7.20000000E-01  8.50000000E-01  8.50000000E-01  8.50000000E-01
  7.90000000E-01  7.20000000E-01  7.20000000E-01  8.50000000E-01  8.50000000E-01
  8.50000000E-01  7.90000000E-01  7.20000000E-01  7.20000000E-01  8.50000000E-01
  8.50000000E-01  8.50000000E-01  7.90000000E-01  7.20000000E-01  7.20000000E-01
  8.50000000E-01  8.50000000E-01  8.50000000E-01  7.90000000E-01  7.20000000E-01
  7.20000000E-01  8.50000000E-01  8.50000000E-01  8.50000000E-01  7.90000000E-01
  7.20000000E-01  7.20000000E-01  8.50000000E-01  8.50000000E-01  8.50000000E-01
  7.90000000E-01  7.20000000E-01  7.20000000E-01  8.50000000E-01  8.50000000E-01
  8.50000000E-01  7.90000000E-01  7.20000000E-01  7.20000000E-01  8.50000000E-01
  8.50000000E-01  8.50000000E-01  7.90000000E-01  7.20000000E-01  7.20000000E-01
  8.50000000E-01  8.50000000E-01  8.50000000E-01  7.90000000E-01  7.20000000E-01
  7.20000000E-01  8.50000000E-01  8.50000000E-01  8.50000000E-01  7.90000000E-01
  7.20000000E-01  7.20000000E-01  8.50000000E-01  8.50000000E-01  8.50000000E-01
  7.90000000E-01  7.20000000E-01  7.20000000E-01  8.50000000E-01  8.50000000E-01
  8.50000000E-01  7.90000000E-01  7.20000000E-01  7.20000000E-01  8.50000000E-01
  8.50000000E-01  8.50000000E-01  7.90000000E-01  7.20000000E-01  7.20000000E-01
  8.50000000E-01  8.50000000E-01  8.50000000E-01  7.90000000E-01  7.20000000E-01
  7.20000000E-01  8.50000000E-01  8.50000000E-01  8.50000000E-01  7.90000000E-01
  7.20000000E-01  7.20000000E-01  8.50000000E-01  8.50000000E-01  8.50000000E-01
  7.90000000E-01  7.20000000E-01  7.20000000E-01  8.50000000E-01  8.50000000E-01
  8.50000000E-01  7.90000000E-01  7.20000000E-01  7.20000000E-01  8.50000000E-01
  8.50000000E-01  8.50000000E-01  7.90000000E-01  7.20000000E-01  7.20000000E-01
  8.50000000E-01  8.50000000E-01  8.50000000E-01  7.90000000E-01  7.20000000E-01
  7.20000000E-01  8.50000000E-01  8.50000000E-01  8.50000000E-01  7.90000000E-01
  7.20000000E-01  7.20000000E-01  8.50000000E-01  8.50000000E-01  8.50000000E-01
  7.90000000E-01  7.20000000E-01  7.20000000E-01  8.50000000E-01  8.50000000E-01
  8.50000000E-01  7.90000000E-01  7.20000000E-01  7.20000000E-01  8.50000000E-01
  8.50000000E-01  8.50000000E-01  7.90000000E-01  7.20000000E-01  7.20000000E-01
  8.50000000E-01  8.50000000E-01  8.50000000E-01  7.90000000E-01  7.20000000E-01
  7.20000000E-01  8.50000000E-01  8.50000000E-01  8.50000000E-01  7.90000000E-01
  7.20000000E-01  7.20000000E-01  8.50000000E-01  8.50000000E-01  8.50000000E-01
  7.90000000E-01  7.20000000E-01  7.20000000E-01  8.50000000E-01  8.50000000E-01
  8.50000000E-01  7.90000000E-01  7.20000000E-01  7.20000000E-01  8.50000000E-01
  8.50000000E-01  8.50000000E-01  7.90000000E-01  7.20000000E-01  7.20000000E-01
  8.50000000E-01  8.50000000E-01  8.50000000E-01  7.90000000E-01  7.20000000E-01
  7.20000000E-01  8.50000000E-01  8.50000000E-01  8.50000000E-01  7.90000000E-01
  7.20000000E-01  7.20000000E-01  8.50000000E-01  8.50000000E-01  8.50000000E-01
  7.90000000E-01  7.20000000E-01  7.20000000E-01  8.50000000E-01  8.50000000E-01
  8.50000000E-01  7.90000000E-01  7.20000000E-01  7.20000000E-01  8.50000000E-01
  8.50000000E-01  8.50000000E-01  7.90000000E-01  7.20000000E-01  7.20000000E-01
  8.50000000E-01  8.50000000E-01  8.50000000E-01  7.90000000E-01  7.20000000E-01
  7.20000000E-01  8.50000000E-01  8.50000000E-01  8.50000000E-01  7.90000000E-01
  7.20000000E-01  7.20000000E-01  8.50000000E-01  8.50000000E-01  8.50000000E-01
  7.90000000E-01  7.20000000E-01  7.20000000E-01  8.50000000E-01  8.50000000E-01
  8.50000000E-01  7.90000000E-01  7.20000000E-01  7.20000000E-01  8.50000000E-01
  8.50000000E-01  8.50000000E-01  7.90000000E-01  7.20000000E-01  7.20000000E-01
  8.50000000E-01  8.50000000E-01  8.50000000E-01  7.90000000E-01  7.20000000E-01
  7.20000000E-01  8.50000000E-01  8.50000000E-01  8.50000000E-01  7.90000000E-01
  7.20000000E-01  7.20000000E-01  8.50000000E-01  8.50000000E-01  8.50000000E-01
  7.90000000E-01  7.20000000E-01  7.20000000E-01  8.50000000E-01  8.50000000E-01
  8.50000000E-01  7.90000000E-01  7.20000000E-01  7.20000000E-01  8.50000000E-01
  8.50000000E-01  8.50000000E-01  7.90000000E-01  7.20000000E-01  7.20000000E-01
  8.50000000E-01  8.50000000E-01  8.50000000E-01  7.90000000E-01  7.20000000E-01
  7.20000000E-01  8.50000000E-01  8.50000000E-01  8.50000000E-01  7.90000000E-01
  7.20000000E-01  7.20000000E-01  8.50000000E-01  8.50000000E-01  8.50000000E-01
  7.90000000E-01  7.20000000E-01  7.20000000E-01  8.50000000E-01  8.50000000E-01
  8.50000000E-01  7.90000000E-01  7.20000000E-01  7.20000000E-01  8.50000000E-01
  8.50000000E-01  8.50000000E-01  7.90000000E-01  7.20000000E-01  7.20000000E-01
  8.50000000E-01  8.50000000E-01  8.50000000E-01  7.90000000E-01  7.20000000E-01
  7.20000000E-01  8.50000000E-01  8.50000000E-01  8.50000000E-01  7.90000000E-01
  7.20000000E-01  7.20000000E-01  8.50000000E-01  8.50000000E-01  8.50000000E-01
  7.90000000E-01  7.20000000E-01  7.20000000E-01  8.50000000E-01  8.50000000E-01
  8.50000000E-01  7.90000000E-01  7.20000000E-01  7.20000000E-01  8.50000000E-01
  8.50000000E-01  8.50000000E-01  7.90000000E-01  7.20000000E-01  7.20000000E-01
  8.50000000E-01  8.50000000E-01  8.50000000E-01  7.90000000E-01  7.20000000E-01
  7.20000000E-01  8.50000000E-01  8.50000000E-01  8.50000000E-01  7.90000000E-01
  7.20000000E-01  7.20000000E-01  8.50000000E-01  8.50000000E-01  8.50000000E-01
  7.90000000E-01  7.20000000E-01  7.20000000E-01  8.50000000E-01  8.50000000E-01
  8.50000000E-01  7.90000000E-01  7.20000000E-01  7.20000000E-01  8.50000000E-01
  8.50000000E-01  8.50000000E-01  7.90000000E-01  7.20000000E-01  7.20000000E-01
  8.50000000E-01  8.50000000E-01  8.50000000E-01  7.90000000E-01  7.20000000E-01
  7.20000000E-01  8.50000000E-01  8.50000000E-01  8.50000000E-01  7.90000000E-01
  7.20000000E-01  7.20000000E-01  8.50000000E-01  8.50000000E-01  8.50000000E-01
  7.90000000E-01  7.20000000E-01  7.20000000E-01  8.50000000E-01  8.50000000E-01
  8.50000000E-01  7.90000000E-01  7.20000000E-01  7.20000000E-01  8.50000000E-01
  8.50000000E-01  8.50000000E-01  7.90000000E-01  7.20000000E-01  7.20000000E-01
  8.50000000E-01  8.50000000E-01  8.50000000E-01  7.90000000E-01  7.20000000E-01
  7.20000000E-01  8.50000000E-01  8.50000000E-01  8.50000000E-01  7.90000000E-01
  7.20000000E-01  7.20000000E-01  8.50000000E-01  8.50000000E-01  8.50000000E-01
  7.90000000E-01  7.20000000E-01  7.20000000E-01  8.50000000E-01  8.50000000E-01
  8.50000000E-01  7.90000000E-01  7.20000000E-01  7.20000000E-01  8.50000000E-01
  8.50000000E-01  8.50000000E-01  7.90000000E-01  7.20000000E-01  7.20000000E-01
  8.50000000E-01  8.50000000E-01  8.50000000E-01  7.90000000E-01  7.20000000E-01
  7.20000000E-01  8.50000000E-01  8.50000000E-01  8.50000000E-01  7.90000000E-01
  7.20000000E-01  7.20000000E-01  8.50000000E-01  8.50000000E-01  8.50000000E-01
  7.90000000E-01  7.20000000E-01  7.20000000E-01  8.50000000E-01  8.50000000E-01
  8.50000000E-01  7.90000000E-01  7.20000000E-01  7.20000000E-01  8.50000000E-01
  8.50000000E-01  8.50000000E-01  7.90000000E-01  7.20000000E-01  7.20000000E-01
  8.50000000E-01  8.50000000E-01  8.50000000E-01  7.90000000E-01  7.20000000E-01
  7.20000000E-01  8.50000000E-01  8.50000000E-01  8.50000000E-01  7.90000000E-01
  7.20000000E-01  7.20000000E-01  8.50000000E-01  8.50000000E-01  8.50000000E-01
  7.90000000E-01  7.20000000E-01  7.20000000E-01  8.50000000E-01  8.50000000E-01
  8.50000000E-01  7.90000000E-01  7.20000000E-01  7.20000000E-01  8.50000000E-01
  8.50000000E-01  8.50000000E-01  7.90000000E-01  7.20000000E-01  7.20000000E-01
  8.50000000E-01  8.50000000E-01  8.50000000E-01  7.90000000E-01  7.20000000E-01
  7.20000000E-01  8.50000000E-01  8.50000000E-01  8.50000000E-01  7.90000000E-01
  7.20000000E-01  7.20000000E-01  8.50000000E-01  8.50000000E-01  8.50000000E-01
  7.90000000E-01  7.20000000E-01  7.20000000E-01  8.50000000E-01  8.50000000E-01
  8.50000000E-01  7.90000000E-01  7.20000000E-01  7.20000000E-01  8.50000000E-01
  8.50000000E-01  8.50000000E-01  7.90000000E-01  7.20000000E-01  7.20000000E-01
  8.50000000E-01  8.50000000E-01  8.50000000E-01  7.90000000E-01  7.20000000E-01
  7.20000000E-01  8.50000000E-01  8.50000000E-01  8.50000000E-01  7.90000000E-01
  7.20000000E-01  7.20000000E-01  8.50000000E-01  8.50000000E-01  8.50000000E-01
  7.90000000E-01  7.20000000E-01  7.20000000E-01  8.50000000E-01  8.50000000E-01
  8.50000000E-01  7.90000000E-01  7.20000000E-01  7.20000000E-01  8.50000000E-01
  8.50000000E-01  8.50000000E-01  7.90000000E-01  7.20000000E-01  7.20000000E-01
  8.50000000E-01  8.50000000E-01  8.50000000E-01  7.90000000E-01  7.20000000E-01
  7.20000000E-01  8.50000000E-01  8.50000000E-01  8.50000000E-01  7.90000000E-01
  7.20000000E-01  7.20000000E-01  8.50000000E-01  8.50000000E-01  8.50000000E-01
  7.90000000E-01  7.20000000E-01  7.20000000E-01  8.50000000E-01  8.50000000E-01
  8.50000000E-01  7.90000000E-01  7.20000000E-01  7.20000000E-01  8.50000000E-01
  8.50000000E-01  8.50000000E-01  7.90000000E-01  7.20000000E-01  7.20000000E-01
  8.50000000E-01  8.50000000E-01  8.50000000E-01  7.90000000E-01  7.20000000E-01
  7.20000000E-01  8.50000000E-01  8.50000000E-01  8.50000000E-01  7.90000000E-01
  7.20000000E-01  7.20000000E-01  8.50000000E-01  8.50000000E-01  8.50000000E-01
  7.90000000E-01  7.20000000E-01  7.20000000E-01  8.50000000E-01  8.50000000E-01
  8.50000000E-01  7.90000000E-01  7.20000000E-01  7.20000000E-01  8.50000000E-01
  8.50000000E-01  8.50000000E-01  7.90000000E-01  7.20000000E-01  7.20000000E-01
  8.50000000E-01  8.50000000E-01  8.50000000E-01  7.90000000E-01  7.20000000E-01
  7.20000000E-01  8.50000000E-01  8.50000000E-01  8.50000000E-01  7.90000000E-01
  7.20000000E-01  7.20000000E-01  8.50000000E-01  8.50000000E-01  8.50000000E-01
  7.90000000E-01  7.20000000E-01  7.20000000E-01  8.50000000E-01  8.50000000E-01
  8.50000000E-01  7.90000000E-01  7.20000000E-01  7.20000000E-01  8.50000000E-01
  8.50000000E-01  8.50000000E-01  7.90000000E-01  7.20000000E-01  7.20000000E-01
  8.50000000E-01  8.50000000E-01  8.50000000E-01  7.90000000E-01  7.20000000E-01
  7.20000000E-01  8.50000000E-01  8.50000000E-01  8.50000000E-01  7.90000000E-01
  7.20000000E-01  7.20000000E-01  8.50000000E-01  8.50000000E-01  8.50000000E-01
  7.90000000E-01  7.20000000E-01  7.20000000E-01  8.50000000E-01  8.50000000E-01
  8.50000000E-01  7.90000000E-01  7.20000000E-01  7.20000000E-01  8.50000000E-01
  8.50000000E-01  8.50000000E-01  7.90000000E-01  7.20000000E-01  7.20000000E-01
  8.50000000E-01  8.50000000E-01  8.50000000E-01  7.90000000E-01  7.20000000E-01
  7.20000000E-01  8.50000000E-01  8.50000000E-01  8.50000000E-01  7.90000000E-01
  7.20000000E-01  7.20000000E-01  8.50000000E-01  8.50000000E-01  8.50000000E-01
  7.90000000E-01  7.20000000E-01  7.20000000E-01  8.50000000E-01  8.50000000E-01
  8.50000000E-01  7.90000000E-01  7.20000000E-01  7.20000000E-01  8.50000000E-01
  8.50000000E-01  8.50000000E-01  7.90000000E-01  7.20000000E-01  7.20000000E-01
  8.50000000E-01  8.50000000E-01  8.50000000E-01  7.90000000E-01  7.20000000E-01
  7.20000000E-01  8.50000000E-01  8.50000000E-01  8.50000000E-01  7.90000000E-01
  7.20000000E-01  7.20000000E-01  8.50000000E-01  8.50000000E-01  8.50000000E-01
  7.90000000E-01  7.20000000E-01  7.20000000E-01  8.50000000E-01  8.50000000E-01
  8.50000000E-01  7.90000000E-01  7.20000000E-01  7.20000000E-01  8.50000000E-01
  8.50000000E-01  8.50000000E-01  7.90000000E-01  7.20000000E-01  7.20000000E-01
  8.50000000E-01  8.50000000E-01  8.50000000E-01  7.90000000E-01  7.20000000E-01
  7.20000000E-01  8.50000000E-01  8.50000000E-01  8.50000000E-01  7.90000000E-01
  7.20000000E-01  7.20000000E-01  8.50000000E-01  8.50000000E-01  8.50000000E-01
  7.90000000E-01  7.20000000E-01  7.20000000E-01  8.50000000E-01  8.50000000E-01
  8.50000000E-01  7.90000000E-01  7.20000000E-01  7.20000000E-01  8.50000000E-01
  8.50000000E-01  8.50000000E-01  7.90000000E-01  7.20000000E-01  7.20000000E-01
  8.50000000E-01  8.50000000E-01  8.50000000E-01  7.90000000E-01  7.20000000E-01
  7.20000000E-01  8.50000000E-01  8.50000000E-01  8.50000000E-01  7.90000000E-01
  7.20000000E-01  7.20000000E-01  8.50000000E-01  8.50000000E-01  8.50000000E-01
  7.90000000E-01  7.20000000E-01  7.20000000E-01  8.50000000E-01  8.50000000E-01
  8.50000000E-01  7.90000000E-01  7.20000000E-01  7.20000000E-01  8.50000000E-01
  8.50000000E-01  8.50000000E-01  7.90000000E-01  7.20000000E-01  7.20000000E-01
  8.50000000E-01  8.50000000E-01  8.50000000E-01  7.90000000E-01  7.20000000E-01
  7.20000000E-01  8.50000000E-01  8.50000000E-01  8.50000000E-01  7.90000000E-01
  7.20000000E-01  7.20000000E-01  8.50000000E-01  8.50000000E-01  8.50000000E-01
  7.90000000E-01  7.20000000E-01  7.20000000E-01  8.50000000E-01  8.50000000E-01
  8.50000000E-01  7.90000000E-01  7.20000000E-01  7.20000000E-01  8.50000000E-01
  8.50000000E-01  8.50000000E-01  7.90000000E-01  7.20000000E-01  7.20000000E-01
  8.50000000E-01  8.50000000E-01  8.50000000E-01  7.90000000E-01  7.20000000E-01
  7.20000000E-01  8.50000000E-01  8.50000000E-01  8.50000000E-01  7.90000000E-01
  7.20000000E-01  7.20000000E-01  8.50000000E-01  8.50000000E-01  8.50000000E-01
  7.90000000E-01  7.20000000E-01  7.20000000E-01  8.50000000E-01  8.50000000E-01
  8.50000000E-01  7.90000000E-01  7.20000000E-01  7.20000000E-01  8.50000000E-01
  8.50000000E-01  8.50000000E-01  7.90000000E-01  7.20000000E-01  7.20000000E-01
  8.50000000E-01  8.50000000E-01  8.50000000E-01  7.90000000E-01  7.20000000E-01
  7.20000000E-01  8.50000000E-01  8.50000000E-01  8.50000000E-01  7.90000000E-01
  7.20000000E-01  7.20000000E-01  8.50000000E-01  8.50000000E-01  8.50000000E-01
  7.90000000E-01  7.20000000E-01  7.20000000E-01  8.50000000E-01  8.50000000E-01
  8.50000000E-01  7.90000000E-01  7.20000000E-01  7.20000000E-01  8.50000000E-01
  8.50000000E-01  8.50000000E-01  7.90000000E-01  7.20000000E-01  7.20000000E-01
  8.50000000E-01  8.50000000E-01  8.50000000E-01  7.90000000E-01  7.20000000E-01
  7.20000000E-01  8.50000000E-01  8.50000000E-01  8.50000000E-01  7.90000000E-01
  7.20000000E-01  7.20000000E-01  8.50000000E-01  8.50000000E-01  8.50000000E-01
  7.90000000E-01  7.20000000E-01  7.20000000E-01  8.50000000E-01  8.50000000E-01
  8.50000000E-01  7.90000000E-01  7.20000000E-01  7.20000000E-01  8.50000000E-01
  8.50000000E-01  8.50000000E-01  7.90000000E-01  7.20000000E-01  7.20000000E-01
  8.50000000E-01  8.50000000E-01  8.50000000E-01  7.90000000E-01  7.20000000E-01
  7.20000000E-01  8.50000000E-01  8.50000000E-01  8.50000000E-01  7.90000000E-01
  7.20000000E-01  7.20000000E-01  8.50000000E-01  8.50000000E-01  8.50000000E-01
  7.90000000E-01  7.20000000E-01  7.20000000E-01  8.50000000E-01  8.50000000E-01
  8.50000000E-01  7.90000000E-01  7.20000000E-01  7.20000000E-01  8.50000000E-01
  8.50000000E-01  8.50000000E-01  7.90000000E-01  7.20000000E-01  7.20000000E-01
  8.50000000E-01  8.50000000E-01  8.50000000E-01  7.90000000E-01  7.20000000E-01
  7.20000000E-01  8.50000000E-01  8.50000000E-01  8.50000000E-01  7.90000000E-01
  7.20000000E-01  7.20000000E-01  8.50000000E-01  8.50000000E-01  8.50000000E-01
  7.90000000E-01  7.20000000E-01  7.20000000E-01  8.50000000E-01  8.50000000E-01
  8.50000000E-01  7.90000000E-01  7.20000000E-01  7.20000000E-01  8.50000000E-01
  8.50000000E-01  8.50000000E-01  7.90000000E-01  7.20000000E-01  7.20000000E-01
  8.50000000E-01  8.50000000E-01  8.50000000E-01  7.90000000E-01  7.20000000E-01
  7.20000000E-01  8.50000000E-01  8.50000000E-01  8.50000000E-01  7.90000000E-01
  7.20000000E-01  7.20000000E-01  8.50000000E-01  8.50000000E-01  8.50000000E-01
  7.90000000E-01  7.20000000E-01  7.20000000E-01  8.50000000E-01  8.50000000E-01
  8.50000000E-01  7.90000000E-01  7.20000000E-01  7.20000000E-01  8.50000000E-01
  8.50000000E-01  8.50000000E-01  7.90000000E-01  7.20000000E-01  7.20000000E-01
  8.50000000E-01  8.50000000E-01  8.50000000E-01  7.90000000E-01  7.20000000E-01
  7.20000000E-01  8.50000000E-01  8.50000000E-01  8.50000000E-01  7.90000000E-01
  7.20000000E-01  7.20000000E-01  8.50000000E-01  8.50000000E-01  8.50000000E-01
  7.90000000E-01  7.20000000E-01  7.20000000E-01  8.50000000E-01  8.50000000E-01
  8.50000000E-01  7.90000000E-01  7.20000000E-01  7.20000000E-01  8.50000000E-01
  8.50000000E-01  8.50000000E-01  7.90000000E-01  7.20000000E-01  7.20000000E-01
  8.50000000E-01  8.50000000E-01  8.50000000E-01  7.90000000E-01  7.20000000E-01
  7.20000000E-01  8.50000000E-01  8.50000000E-01  8.50000000E-01  7.90000000E-01
  7.20000000E-01  7.20000000E-01  8.50000000E-01  8.50000000E-01  8.50000000E-01
  7.90000000E-01  7.20000000E-01  7.20000000E-01  8.50000000E-01  8.50000000E-01
  8.50000000E-01  7.90000000E-01  7.20000000E-01  7.20000000E-01  8.50000000E-01
  8.50000000E-01  8.50000000E-01  7.90000000E-01  7.20000000E-01  7.20000000E-01
  8.50000000E-01  8.50000000E-01  8.50000000E-01  7.90000000E-01  7.20000000E-01
  7.20000000E-01  8.50000000E-01  8.50000000E-01  8.50000000E-01  7.90000000E-01
  7.20000000E-01  7.20000000E-01  8.50000000E-01  8.50000000E-01  8.50000000E-01
  7.90000000E-01  7.20000000E-01  7.20000000E-01  8.50000000E-01  8.50000000E-01
  8.50000000E-01  7.90000000E-01  7.20000000E-01  7.20000000E-01  8.50000000E-01
  8.50000000E-01  8.50000000E-01  7.90000000E-01  7.20000000E-01  7.20000000E-01
  8.50000000E-01  8.50000000E-01  8.50000000E-01  7.90000000E-01  7.20000000E-01
  7.20000000E-01  8.50000000E-01  8.50000000E-01  8.50000000E-01  7.90000000E-01
  7.20000000E-01  7.20000000E-01  8.50000000E-01  8.50000000E-01  8.50000000E-01
  7.90000000E-01  7.20000000E-01  7.20000000E-01  8.50000000E-01  8.50000000E-01
  8.50000000E-01  7.90000000E-01  7.20000000E-01  7.20000000E-01  8.50000000E-01
  8.50000000E-01  8.50000000E-01  7.90000000E-01  7.20000000E-01  7.20000000E-01
  8.50000000E-01  8.50000000E-01  8.50000000E-01  7.90000000E-01  7.20000000E-01
  7.20000000E-01  8.50000000E-01  8.50000000E-01  8.50000000E-01  7.90000000E-01
  7.20000000E-01  7.20000000E-01  8.50000000E-01  8.50000000E-01  8.50000000E-01
  7.90000000E-01  7.20000000E-01  7.20000000E-01  8.50000000E-01  8.50000000E-01
  8.50000000E-01  7.90000000E-01  7.20000000E-01  7.20000000E-01  8.50000000E-01
  8.50000000E-01  8.50000000E-01  7.90000000E-01  7.20000000E-01  7.20000000E-01
  8.50000000E-01  8.50000000E-01  8.50000000E-01  7.90000000E-01  7.20000000E-01
  7.20000000E-01  8.50000000E-01  8.50000000E-01  8.50000000E-01  7.90000000E-01
  7.20000000E-01  7.20000000E-01  8.50000000E-01  8.50000000E-01  8.50000000E-01
  7.90000000E-01  7.20000000E-01  7.20000000E-01  8.50000000E-01  8.50000000E-01
  8.50000000E-01  7.90000000E-01  7.20000000E-01  7.20000000E-01  8.50000000E-01
  8.50000000E-01  8.50000000E-01  7.90000000E-01  7.20000000E-01  7.20000000E-01
  8.50000000E-01  8.50000000E-01  8.50000000E-01  7.90000000E-01  7.20000000E-01
  7.20000000E-01  8.50000000E-01  8.50000000E-01  8.50000000E-01  7.90000000E-01
  7.20000000E-01  7.20000000E-01  8.50000000E-01  8.50000000E-01  8.50000000E-01
  7.90000000E-01  7.20000000E-01  7.20000000E-01  8.50000000E-01  8.50000000E-01
  8.50000000E-01  7.90000000E-01  7.20000000E-01  7.20000000E-01  8.50000000E-01
  8.50000000E-01  8.50000000E-01  7.90000000E-01  7.20000000E-01  7.20000000E-01
  8.50000000E-01  8.50000000E-01  8.50000000E-01  7.90000000E-01  7.20000000E-01
  7.20000000E-01  8.50000000E-01  8.50000000E-01  8.50000000E-01  7.90000000E-01
  7.20000000E-01  7.20000000E-01  8.50000000E-01  8.50000000E-01  8.50000000E-01
  7.90000000E-01  7.20000000E-01  7.20000000E-01  8.50000000E-01  8.50000000E-01
  8.50000000E-01  7.90000000E-01  7.20000000E-01  7.20000000E-01  8.50000000E-01
  8.50000000E-01  8.50000000E-01  7.90000000E-01  7.20000000E-01  7.20000000E-01
  8.50000000E-01  8.50000000E-01  8.50000000E-01  7.90000000E-01  7.20000000E-01
  7.20000000E-01  8.50000000E-01  8.50000000E-01  8.50000000E-01  7.90000000E-01
  7.20000000E-01  7.20000000E-01  8.50000000E-01  8.50000000E-01  8.50000000E-01
  7.90000000E-01  7.20000000E-01  7.20000000E-01  8.50000000E-01  8.50000000E-01
  8.50000000E-01  7.90000000E-01  7.20000000E-01  7.20000000E-01  8.50000000E-01
  8.50000000E-01  8.50000000E-01
%FLAG IPOL                                                                      
%FORMAT(1I8)                                                                    
       0
