default_name
  5597
  51.7590000  43.7420000  43.0190000  50.3880000  43.5020000  43.0820000
  49.8640000  42.2090000  43.1790000  50.7110000  41.1220000  43.2120000
  52.1010000  41.3350000  43.1500000  52.6080000  42.6390000  43.0550000
  48.3480000  42.2820000  43.2320000  48.1230000  43.8000000  43.1520000
  49.3300000  44.4220000  43.0660000  46.9330000  44.5210000  43.1630000
  45.6530000  43.9640000  43.2510000  44.4520000  44.6790000  43.2750000
  43.2000000  44.0310000  43.3180000  41.9480000  44.6800000  43.2750000
  41.9440000  46.1980000  43.2220000  43.2000000  46.8020000  43.8440000
  44.4560000  46.1980000  43.2220000  40.7470000  43.9640000  43.2510000
  39.4670000  44.5210000  43.1630000  38.2770000  43.8000000  43.1520000
  37.0700000  44.4220000  43.0660000  36.0120000  43.5020000  43.0820000
  36.5360000  42.2090000  43.1790000  38.0520000  42.2820000  43.2330000
  34.6410000  43.7420000  43.0190000  33.7920000  42.6390000  43.0550000
  34.2990000  41.3350000  43.1500000  35.6890000  41.1220000  43.2120000
  32.7230000  42.7940000  43.0080000  36.8970000  45.8700000  42.9720000
  38.6660000  41.5430000  42.0190000  43.2000000  42.2550000  43.4110000
  49.5030000  45.8700000  42.9720000  47.8310000  41.6950000  44.5690000
  53.6770000  42.7940000  43.0080000  39.7550000  41.5950000  42.0230000
  38.3030000  41.9640000  41.0790000  38.3790000  40.4900000  42.0560000
  34.2300000  44.7400000  42.9460000  33.4090000  40.1520000  43.1880000
  36.0640000  40.1080000  43.2850000  35.8390000  46.1020000  42.9000000
  37.4010000  46.2520000  42.0830000  37.3040000  46.3570000  43.8600000
  39.3800000  45.5970000  43.0960000  40.8270000  42.8890000  43.2950000
  43.2000000  46.6120000  44.9230000  44.5460000  46.5220000  42.1770000
  41.8540000  46.5220000  42.1770000  43.2000000  47.8860000  43.7080000
  45.3370000  46.5780000  43.7420000  41.0630000  46.5780000  43.7420000
  45.5730000  42.8890000  43.2950000  47.0200000  45.5970000  43.0960000
  46.7440000  41.7430000  44.6380000  48.2550000  42.2300000  45.4210000
  48.1270000  40.6460000  44.6410000  50.3360000  40.1080000  43.2850000
  52.1700000  44.7400000  42.9460000  52.9910000  40.1520000  43.1880000
  50.5610000  46.1020000  42.9000000  48.9990000  46.2520000  42.0830000
  49.0960000  46.3570000  43.8600000  38.5680000  41.6950000  44.5690000
  39.6550000  41.7440000  44.6380000  38.1440000  42.2300000  45.4220000
  38.2720000  40.6460000  44.6410000  32.0960000  40.4680000  43.1270000
  33.7900000  39.0010000  43.2660000  31.5900000  39.6410000  43.1570000
  47.7340000  41.5430000  42.0190000  48.0210000  40.4900000  42.0550000
  46.6450000  41.5950000  42.0220000  48.0970000  41.9640000  41.0790000
  54.3040000  40.4680000  43.1270000  52.6100000  39.0010000  43.2670000
  54.8100000  39.6410000  43.1580000  58.1050000  52.3590000  62.4830000
  60.5590000  51.5610000  62.0160000  59.1910000  52.0060000  62.2760000
  60.7740000  50.6320000  62.5520000  61.2820000  52.3160000  62.3400000
  60.7130000  51.3810000  60.9480000  59.9490000  35.7800000  55.3280000
  62.1780000  37.1210000  55.6550000  60.9350000  36.3730000  55.4730000
  61.9850000  38.0840000  56.1370000  62.6620000  37.3130000  54.6920000
  62.8790000  36.5630000  56.2820000  49.7240000  40.2110000  46.1090000
  52.2300000  40.1700000  46.8770000  50.8330000  40.1930000  46.4490000
  52.8010000  39.4350000  46.3030000  52.3080000  39.9090000  47.9370000
  52.6970000  41.1490000  46.7340000  42.4310000  60.5890000  28.4610000
  43.8400000  61.6390000  30.4070000  43.0540000  61.0530000  29.3220000
  43.4260000  62.6060000  30.7090000  44.8770000  61.7960000  30.0950000
  43.8440000  60.9830000  31.2820000  37.7230000  51.2400000  29.0010000
  35.5430000  52.5010000  28.2710000  36.7590000  51.7980000  28.6780000
  34.6610000  52.0570000  28.7410000  35.4110000  52.4520000  27.1850000
  35.5880000  53.5550000  28.5600000  64.8000000  49.6360000  61.7160000
  62.9870000  47.7640000  62.0130000  63.9980000  48.8080000  61.8480000
  62.0990000  48.1600000  62.5140000  63.3770000  46.9370000  62.6150000
  62.6810000  47.3630000  61.0430000  44.6920000  61.8890000  45.0110000
  46.7090000  63.0070000  46.2580000  45.5850000  62.3840000  45.5630000
  46.4830000  64.0480000  46.5080000  47.6080000  62.9960000  45.6320000
  46.9360000  62.4760000  47.1860000  61.5310000  52.3240000  49.1430000
  61.4200000  53.6180000  51.4210000  61.4820000  52.8960000  50.1510000
  60.4840000  53.4030000  51.9460000  61.4780000  54.6990000  51.2580000
  62.2490000  53.3290000  52.0730000  34.6310000  28.8060000  48.9010000
  35.1630000  26.8960000  47.1850000  34.8660000  27.9610000  48.1420000
  36.2170000  26.9170000  46.8940000  34.5580000  27.0070000  46.2800000
  34.9500000  25.9140000  47.6180000  48.8580000  44.9840000  60.0810000
  49.7270000  42.5160000  60.2470000  49.2420000  43.8920000  60.1540000
  49.8050000  42.2000000  61.2910000  50.7170000  42.4200000  59.7880000
  49.0480000  41.8290000  59.7340000  40.3710000  59.8130000  26.2710000
  41.1940000  57.3400000  25.9880000  40.7350000  58.7190000  26.1460000
  41.4710000  56.9090000  26.9540000  42.0690000  57.2940000  25.3310000
  40.4090000  56.7160000  25.5500000  48.0050000  32.8870000  22.5990000
  48.0760000  35.0800000  24.0340000  48.0360000  33.8570000  23.2340000
  49.0490000  35.5720000  23.9460000  47.9010000  34.8590000  25.0920000
  47.3080000  35.7860000  23.7040000  37.9240000  34.6280000  51.4500000
  40.3410000  35.2160000  52.2800000  38.9930000  34.8890000  51.8170000
  40.3970000  35.1780000  53.3710000  40.6280000  36.2230000  51.9590000
  41.0730000  34.5110000  51.8770000  33.0340000  30.8890000  44.0270000
  31.3620000  29.3480000  42.7210000  32.2950000  30.2080000  43.4490000
  30.5760000  28.9770000  43.3840000  31.8820000  28.4850000  42.2930000
  30.8860000  29.8960000  41.9030000  46.4320000  57.1220000  64.4810000
  44.1590000  56.3030000  63.4620000  45.4260000  56.7600000  64.0310000
  44.0470000  55.2210000  63.5790000  44.1040000  56.5370000  62.3950000
  43.3130000  56.7870000  63.9590000  43.4140000  57.0330000  33.3390000
  41.4020000  58.0720000  32.0170000  42.5240000  57.4920000  32.7540000
  41.0570000  57.3900000  31.2340000  41.6930000  59.0150000  31.5440000
  40.5600000  58.2740000  32.6860000  27.9900000  42.5470000  64.8000000
  29.6130000  42.0040000  62.8140000  28.7080000  42.3070000  63.9210000
  29.7080000  40.9230000  62.6730000  30.6110000  42.4100000  63.0050000
  29.2440000  42.4370000  61.8800000  34.0320000  30.9180000  37.6460000
  35.7630000  29.9780000  35.9160000  34.7980000  30.5020000  36.8810000
  35.2590000  29.6370000  35.0070000  36.3140000  29.1310000  36.3370000
  36.4880000  30.7470000  35.6330000  26.6070000  52.0900000  50.7760000
  24.9620000  50.0510000  50.6660000  25.8790000  51.1880000  50.7270000
  25.1380000  49.3640000  51.4990000  25.0950000  49.4940000  49.7330000
  23.9220000  50.3870000  50.7160000  25.8310000  23.3600000  53.2820000
  23.2350000  22.9980000  53.3410000  24.6830000  23.2000000  53.3080000
  22.9920000  21.9660000  53.6110000  22.7910000  23.2070000  52.3620000
  22.7670000  23.6600000  54.0740000  58.5370000  63.7490000  47.8630000
  56.3500000  64.2040000  49.2360000  57.5700000  63.9510000  48.4700000
  55.8600000  63.2650000  49.5090000  55.6410000  64.8000000  48.6520000
  56.5750000  64.7510000  50.1560000  47.6260000  56.2570000  35.7250000
  47.8040000  53.9530000  34.4860000  47.7050000  55.2370000  35.1770000
  47.7640000  53.1240000  35.1990000  48.7450000  53.8800000  33.9330000
  46.9820000  53.8290000  33.7750000  60.2540000  56.4330000  52.1020000
  57.9100000  56.9500000  53.1580000  59.2170000  56.6620000  52.5690000
  58.0020000  57.6740000  53.9720000  57.4570000  56.0390000  53.5620000
  57.2290000  57.3640000  52.4090000  28.0920000  55.2710000  24.1330000
  27.8170000  52.9450000  22.9560000  27.9710000  54.2420000  23.6120000
  28.4540000  52.1920000  23.4300000  28.0950000  53.0080000  21.8990000
  26.7810000  52.5990000  23.0140000  27.1140000  64.6960000  41.2460000
  29.0650000  63.2320000  40.2840000  27.9770000  64.0480000  40.8200000
  30.0050000  63.7910000  40.2790000  28.8490000  62.9220000  39.2560000
  29.2090000  62.3310000  40.8860000  29.2560000  32.5130000  57.3310000
  31.0950000  30.6510000  57.4920000  30.0690000  31.6890000  57.4020000
  31.9100000  30.9650000  58.1500000  31.5180000  30.4360000  56.5060000
  30.6750000  29.7230000  57.8900000  51.3350000  43.8040000  56.0980000
  53.7550000  43.9490000  55.0990000  52.4060000  43.8680000  55.6560000
  54.4450000  43.3080000  55.6560000  54.1330000  44.9750000  55.1430000
  53.7630000  43.6280000  54.0530000  38.8420000  51.1980000  64.6690000
  40.6820000  49.5920000  63.7140000  39.6560000  50.4880000  64.2470000
  40.2690000  48.5970000  63.5270000  41.5120000  49.4890000  64.4200000
  41.0830000  49.9770000  62.7730000  30.6240000  29.4750000  29.2150000
  31.4890000  27.0140000  29.4870000  31.0060000  28.3860000  29.3350000
  31.8960000  26.8540000  30.4890000  32.2780000  26.7970000  28.7600000
  30.6780000  26.2970000  29.3310000  23.0300000  48.7700000  26.3720000
  24.4060000  50.6490000  25.1680000  23.6390000  49.6010000  25.8390000
  25.3970000  50.2830000  24.8830000  24.5400000  51.5150000  25.8250000
  23.8950000  50.9860000  24.2620000  46.8980000  38.4470000  50.4070000
  45.8080000  36.4620000  49.0870000  46.4160000  37.5690000  49.8230000
  44.8340000  36.2010000  49.5110000  46.4440000  35.5720000  49.1250000
  45.6600000  36.7280000  48.0360000  42.2470000  63.2000000  26.8150000
  42.7070000  61.0630000  25.3660000  42.4500000  62.2550000  26.1740000
  42.0610000  61.0460000  24.4830000  42.5170000  60.1530000  25.9440000
  43.7460000  61.0400000  25.0280000  49.4730000  47.5080000  49.9610000
  51.2800000  49.4080000  49.9320000  50.2720000  48.3490000  49.9480000
  52.0770000  49.1760000  49.2190000  51.7340000  49.5290000  50.9210000
  50.8340000  50.3640000  49.6440000  45.7930000  53.8830000  30.5960000
  43.3920000  54.6670000  31.3000000  44.7310000  54.2300000  30.9070000
  43.0250000  55.4480000  30.6280000  43.3970000  55.0700000  32.3180000
  42.6860000  53.8320000  31.2690000  60.7200000  56.7010000  31.7370000
  58.2400000  56.7280000  30.8880000  59.6230000  56.7130000  31.3610000
  57.6890000  55.8620000  31.2670000  58.2020000  56.7030000  29.7940000
  57.7230000  57.6320000  31.2240000  61.9010000  44.3150000  23.9440000
  59.3600000  44.9300000  24.1390000  60.7770000  44.5870000  24.0300000
  58.8180000  44.1680000  24.7070000  58.9010000  45.0050000  23.1480000
  59.2300000  45.8900000  24.6470000  46.7170000  27.7350000  39.1280000
  45.5630000  30.0670000  39.4500000  46.2060000  28.7660000  39.2710000
  46.2710000  30.8000000  39.8470000  44.7240000  29.9920000  40.1490000
  45.1790000  30.4460000  38.4990000  49.6260000  59.0420000  42.8280000
  49.3310000  59.0110000  45.4330000  49.4960000  59.0280000  43.9810000
  49.4000000  57.9910000  45.8210000  48.3560000  59.4180000  45.7190000
  50.1050000  59.6120000  45.9200000  52.9590000  50.6410000  52.3700000
  51.8880000  49.0260000  54.1360000  52.4850000  49.9270000  53.1510000
  51.4430000  48.1550000  53.6470000  51.1030000  49.5350000  54.7030000
  52.6410000  48.6700000  54.8450000  56.5430000  23.9000000  21.6510000
  55.1880000  24.1710000  23.8790000  55.9430000  24.0200000  22.6370000
  54.1860000  24.5620000  23.6800000  55.6940000  24.8630000  24.5600000
  55.0820000  23.2090000  24.3890000  47.3340000  49.0180000  48.5360000
  47.2770000  46.5100000  49.2970000  47.3090000  47.9090000  48.8730000
  47.9390000  45.9000000  48.6760000  46.2650000  46.1020000  49.2190000
  47.6030000  46.4120000  50.3370000  24.1290000  41.6680000  36.5410000
  26.4050000  42.7410000  37.2800000  25.1360000  42.1430000  36.8680000
  26.9020000  42.1200000  38.0310000  26.2450000  43.7340000  37.7110000
  27.0800000  42.8470000  36.4260000  40.9300000  52.3180000  32.8010000
  40.6560000  50.3330000  34.4930000  40.8090000  51.4400000  33.5490000
  41.6330000  49.9480000  34.8010000  40.0930000  49.5110000  34.0400000
  40.1210000  50.6580000  35.3900000  64.4250000  32.4040000  43.1780000
  62.9450000  33.9120000  41.6250000  63.7710000  33.0710000  42.4910000
  63.0960000  33.6530000  40.5730000  63.1980000  34.9690000  41.7540000
  61.8840000  33.7860000  41.8570000  57.4860000  48.5390000  53.9740000
  55.5340000  47.2610000  55.1710000  56.6220000  47.9730000  54.5030000
  55.9020000  46.3490000  55.6490000  54.7570000  46.9790000  54.4540000
  55.0740000  47.8870000  55.9410000  34.1100000  51.7570000  48.6660000
  34.1230000  49.4790000  49.9640000  34.1160000  50.7490000  49.2400000
  35.1390000  49.2080000  50.2650000  33.7270000  48.6720000  49.3390000
  33.5080000  49.5420000  50.8660000  36.8580000  46.7880000  23.0960000
  36.8480000  44.3190000  22.2130000  36.8540000  45.6960000  22.7060000
  37.7330000  44.1220000  21.6010000  35.9610000  44.1290000  21.6000000
  36.8440000  43.6090000  23.0440000  59.1010000  28.6710000  43.5230000
  60.2150000  28.2200000  45.8530000  59.5940000  28.4720000  44.5540000
  59.7820000  27.3340000  46.3260000  60.0680000  29.0710000  46.5260000
  61.2910000  28.0560000  45.7440000  61.4240000  38.3310000  30.0600000
  61.2660000  38.1860000  32.6730000  61.3540000  38.2670000  31.2160000
  62.1490000  37.6920000  33.0890000  60.3820000  37.6160000  32.9780000
  61.1940000  39.1840000  33.1150000  49.5690000  51.7950000  24.7720000
  47.4580000  52.5820000  23.4310000  48.6350000  52.1430000  24.1790000
  46.5380000  52.3030000  23.9540000  47.4350000  52.1240000  22.4370000
  47.4600000  53.6690000  23.3040000  44.7950000  55.6190000  48.3830000
  43.3520000  54.9410000  50.4650000  44.1560000  55.3190000  49.3040000
  43.8890000  55.1510000  51.3950000  43.1150000  53.8730000  50.4430000
  42.4110000  55.4980000  50.4840000  39.4490000  58.2340000  39.3350000
  36.9580000  59.0510000  39.3470000  38.3470000  58.5950000  39.3400000
  36.4310000  58.7060000  38.4530000  36.9070000  60.1440000  39.3710000
  36.4270000  58.6680000  40.2230000  31.8010000  35.9300000  28.5840000
  33.7150000  35.3880000  26.8760000  32.6480000  35.6910000  27.8290000
  34.2790000  34.5060000  27.1910000  34.4140000  36.2270000  26.7960000
  33.3050000  35.1920000  25.8810000  25.0650000  44.4420000  56.2560000
  22.5010000  44.0690000  56.6600000  23.9310000  44.2770000  56.4340000
  22.3340000  43.2720000  57.3900000  21.9980000  43.7880000  55.7290000
  22.0300000  44.9810000  57.0380000  27.0790000  35.9240000  58.7520000
  24.8390000  35.6390000  60.0860000  26.0880000  35.7980000  59.3420000
  24.1070000  35.0740000  59.5010000  24.4030000  36.6140000  60.3250000
  25.0100000  35.1040000  61.0240000  59.8280000  42.5690000  25.8810000
  60.5840000  44.7800000  27.0700000  60.1620000  43.5470000  26.4070000
  61.6220000  45.0190000  26.8220000  60.5080000  44.6830000  28.1570000
  59.9580000  45.6220000  26.7600000  39.0790000  57.4630000  61.5640000
  40.5120000  55.3630000  60.9220000  39.7130000  56.5340000  61.2800000
  39.8760000  54.5640000  60.5290000  41.0460000  54.9750000  61.7950000
  41.2510000  55.6160000  60.1560000  47.1090000  57.5380000  24.5040000
  45.0500000  56.1940000  25.4140000  46.1980000  56.9430000  24.9070000
  44.1160000  56.5810000  24.9950000  44.9890000  56.2660000  26.5040000
  45.1270000  55.1350000  25.1480000  49.0070000  57.0660000  27.4060000
  49.8720000  56.4890000  24.9990000  49.3900000  56.8110000  26.3410000
  50.7330000  57.1110000  24.7350000  49.0890000  56.6590000  24.2530000
  50.1780000  55.4410000  24.9360000  41.3200000  50.9320000  30.8530000
  40.3830000  53.2870000  30.1820000  40.9050000  51.9740000  30.5560000
  40.9930000  53.7390000  29.3950000  40.3810000  53.9640000  31.0420000
  39.3570000  53.2060000  29.8120000  55.2580000  55.0010000  52.6550000
  54.8840000  52.4070000  52.7300000  55.0930000  53.8540000  52.6880000
  55.8110000  51.8880000  52.9920000  54.5490000  52.0340000  51.7570000
  54.1260000  52.1450000  53.4730000  54.0480000  25.8520000  49.6790000
  55.4170000  23.6320000  49.9480000  54.6540000  24.8690000  49.7980000
  55.5490000  23.1360000  48.9820000  54.9020000  22.9360000  50.6190000
  56.4080000  23.8340000  50.3650000  40.9460000  41.9490000  51.8080000
  40.8430000  42.6980000  49.2980000  40.9000000  42.2800000  50.6980000
  41.8370000  42.6670000  48.8410000  40.4600000  43.7200000  49.2120000
  40.1850000  42.0400000  48.7220000  63.5600000  62.2240000  41.4580000
  63.0600000  60.5100000  43.3790000  63.3390000  61.4660000  42.3080000
  63.9800000  60.0210000  43.7130000  62.3670000  59.7350000  43.0380000
  62.6100000  61.0120000  44.2400000  40.3520000  31.0170000  37.7860000
  41.6250000  28.8980000  36.9120000  40.9150000  30.0800000  37.4000000
  41.9000000  29.0160000  35.8600000  41.0010000  28.0040000  37.0030000
  42.5420000  28.7320000  37.4860000  25.1040000  41.1990000  44.8680000
  24.3640000  41.5250000  47.3620000  24.7760000  41.3430000  45.9710000
  24.8860000  42.3720000  47.8150000  24.5870000  40.6320000  47.9540000
  23.2880000  41.7150000  47.4260000  29.5710000  53.3030000  32.0540000
  30.9960000  55.0950000  30.7750000  30.2020000  54.0960000  31.4880000
  31.6340000  54.6200000  30.0240000  31.6390000  55.6470000  31.4670000
  30.3490000  55.8140000  30.2650000  45.5170000  46.3670000  27.6220000
  43.3620000  44.8740000  27.6820000  44.5640000  45.7060000  27.6490000
  43.5360000  43.9630000  28.2630000  43.0640000  44.5800000  26.6710000
  42.5280000  45.4140000  28.1390000  27.2160000  24.0950000  27.9230000
  25.8690000  26.3170000  27.5730000  26.6200000  25.0780000  27.7680000
  25.8050000  26.5690000  26.5100000  26.3520000  27.1510000  28.0910000
  24.8510000  26.2200000  27.9610000  62.6420000  38.2820000  49.6750000
  60.8750000  38.5630000  47.7590000  61.8600000  38.4060000  48.8270000
  60.3000000  39.4850000  47.8910000  60.1720000  37.7230000  47.7510000
  61.3640000  38.6050000  46.7810000  42.9270000  29.1550000  51.0120000
  41.0920000  28.2350000  49.3810000  42.1150000  28.7480000  50.2900000
  41.0880000  27.1410000  49.3760000  41.2730000  28.5790000  48.3580000
  40.0970000  28.5760000  49.6830000  60.8550000  29.8660000  38.4030000
  62.9280000  28.3080000  38.7910000  61.7720000  29.1770000  38.5750000
  63.1640000  27.7420000  37.8850000  62.7320000  27.5940000  39.5970000
  63.8090000  28.8950000  39.0650000  53.5600000  25.0270000  59.7570000
  54.2520000  24.3680000  57.3160000  53.8660000  24.7350000  58.6770000
  53.9910000  23.3270000  57.1050000  55.3320000  24.4840000  57.1730000
  53.7440000  25.0010000  56.5830000  63.8460000  30.7510000  62.7000000
  63.5250000  28.1500000  62.6510000  63.7040000  29.6000000  62.6780000
  62.8980000  27.8510000  61.8060000  63.0460000  27.7990000  63.5700000
  64.4890000  27.6410000  62.5550000  44.3420000  26.4420000  35.0520000
  46.6300000  25.1910000  34.7720000  45.3540000  25.8890000  34.9280000
  47.3280000  25.4760000  35.5650000  47.0910000  25.4340000  33.8100000
  46.4890000  24.1080000  34.8170000  37.6180000  34.2820000  54.2890000
  38.9510000  32.4780000  52.9320000  38.2080000  33.4840000  53.6890000
  38.4840000  32.2980000  51.9600000  38.9830000  31.5280000  53.4750000
  39.9810000  32.8040000  52.7590000  50.3070000  33.9490000  38.3170000
  50.4010000  31.4990000  39.2460000  50.3490000  32.8650000  38.7280000
  50.7020000  30.7970000  38.4630000  49.4210000  31.1880000  39.6230000
  51.1200000  31.4210000  40.0670000  55.7000000  39.9280000  55.4670000
  54.3310000  38.3800000  57.0810000  55.0950000  39.2430000  56.1810000
  54.8660000  38.2290000  58.0230000  54.1600000  37.3990000  56.6260000
  53.3570000  38.8220000  57.3100000  34.6280000  41.1220000  55.1850000
  33.3750000  39.6600000  56.9650000  34.0730000  40.4750000  55.9720000
  33.7680000  38.6390000  56.9760000  32.3040000  39.6090000  56.7430000
  33.4940000  40.0810000  57.9670000  28.4960000  24.4820000  38.8660000
  30.9200000  25.1540000  38.1260000  29.5690000  24.7790000  38.5390000
  31.6420000  24.3830000  38.4120000  31.2240000  26.0950000  38.5960000
  30.9740000  25.2840000  37.0410000  49.8000000  24.4800000  56.9110000
  48.1460000  22.8700000  55.6670000  49.0680000  23.7680000  56.3610000
  48.4150000  21.8250000  55.8430000  48.1680000  23.0490000  54.5870000
  47.1200000  23.0210000  56.0150000  49.7690000  46.6340000  22.6420000
  49.6710000  44.0410000  23.0180000  49.7250000  45.4870000  22.8080000
  49.3560000  43.5270000  22.1050000  48.9610000  43.7890000  23.8120000
  50.6520000  43.6520000  23.3050000  54.7210000  46.5310000  21.5950000
  56.6750000  48.1770000  22.1870000  55.5850000  47.2590000  21.8570000
  56.5910000  49.1030000  21.6110000  57.6460000  47.7240000  21.9630000
  56.6570000  48.4350000  23.2490000  39.1800000  38.7420000  56.9300000
  40.3050000  36.3740000  56.8960000  39.6780000  37.6950000  56.9150000
  39.9400000  35.7820000  56.0520000  40.0840000  35.8260000  57.8170000
  41.3920000  36.4610000  56.8060000  54.9070000  46.3360000  48.7640000
  53.4590000  44.7400000  50.2590000  54.2660000  45.6300000  49.4260000
  52.4740000  44.5770000  49.8130000  53.3140000  45.1660000  51.2560000
  53.9460000  43.7670000  50.3730000  27.4610000  51.9780000  48.7480000
  29.1580000  53.6270000  49.8760000  28.2120000  52.7070000  49.2470000
  29.2130000  54.5690000  49.3220000  30.1620000  53.1920000  49.9060000
  28.8560000  53.8550000  50.9020000  39.2800000  38.1620000  35.0990000
  37.4670000  38.8160000  33.3220000  38.4780000  38.4510000  34.3130000
  37.8620000  38.7140000  32.3070000  37.1440000  39.8520000  33.4580000
  36.5860000  38.1720000  33.4090000  36.7980000  49.8360000  34.3370000
  34.7480000  48.3150000  34.9360000  35.8910000  49.1630000  34.6020000
  34.3390000  48.5800000  35.9150000  35.0410000  47.2600000  34.9640000
  33.9510000  48.4260000  34.1940000  32.6070000  39.2170000  33.7800000
  34.5550000  37.9710000  35.0160000  33.4690000  38.6660000  34.3270000
  34.2160000  37.5770000  35.9780000  35.3940000  38.6500000  35.2030000
  34.9240000  37.1340000  34.4170000  59.9960000  46.8180000  39.5740000
  58.2880000  48.7920000  39.8210000  59.2400000  47.6910000  39.6830000
  58.0810000  48.9980000  40.8750000  57.3400000  48.5510000  39.3290000
  58.6820000  49.7060000  39.3670000  63.4120000  48.2350000  28.8150000
  63.8980000  48.8710000  31.3120000  63.6270000  48.5170000  29.9190000
  63.0640000  49.4350000  31.7390000  64.7990000  49.4870000  31.3880000
  64.0480000  47.9740000  31.9190000  63.1420000  44.2460000  35.7150000
  63.6880000  46.4670000  34.4320000  63.3840000  45.2290000  35.1480000
  64.4570000  46.2990000  33.6730000  64.0530000  47.2350000  35.1220000
  62.7960000  46.8560000  33.9320000  55.0340000  30.0960000  59.4560000
  54.1760000  27.6600000  59.0090000  54.6550000  29.0180000  59.2580000
  54.8050000  26.9260000  59.5210000  54.1920000  27.4320000  57.9380000
  53.1500000  27.5370000  59.3660000  61.2750000  27.2970000  26.1600000
  59.1690000  26.2720000  27.3390000  60.3440000  26.8440000  26.6820000
  59.1600000  25.1830000  27.2410000  58.2470000  26.6620000  26.8960000
  59.1630000  26.5170000  28.4050000  22.2950000  47.7880000  40.2400000
  23.0380000  45.7360000  41.6920000  22.6240000  46.8800000  40.8820000
  23.8370000  46.0170000  42.3840000  23.4090000  44.9240000  41.0580000
  22.2000000  45.3510000  42.2800000  25.1840000  45.8340000  32.7950000
  22.8460000  45.3070000  33.8590000  24.1490000  45.6010000  33.2660000
  22.4480000  46.1850000  34.3770000  22.9230000  44.4910000  34.5840000
  22.1260000  45.0110000  33.0910000  45.2570000  41.1910000  56.5030000
  43.1920000  42.7080000  55.9450000  44.3430000  41.8620000  56.2560000
  43.4690000  43.5000000  55.2430000  42.7990000  43.1790000  56.8520000
  42.3880000  42.1190000  55.4930000  39.4960000  26.5420000  37.7090000
  39.1110000  24.1440000  38.6950000  39.3260000  25.4810000  38.1450000
  40.0380000  23.5620000  38.6770000  38.3580000  23.6010000  38.1160000
  38.7660000  24.2000000  39.7320000  35.7980000  44.8410000  56.8200000
  37.0100000  42.5280000  57.0680000  36.3340000  43.8180000  56.9300000
  37.0670000  42.0140000  56.1050000  36.4720000  41.8810000  57.7680000
  38.0290000  42.6610000  57.4440000  39.0810000  33.7340000  55.9510000
  37.5290000  31.6460000  55.6270000  38.3940000  32.8100000  55.8080000
  38.1170000  30.7240000  55.6050000  36.9720000  31.7170000  54.6870000
  36.8060000  31.5680000  56.4440000  52.2470000  62.2140000  23.7360000
  49.8620000  63.0020000  24.4870000  51.1920000  62.5630000  24.0680000
  49.3370000  62.2020000  25.0180000  49.2560000  63.2880000  23.6210000
  49.9290000  63.8650000  25.1550000  55.1930000  31.2850000  31.1080000
  54.3310000  32.5790000  28.9970000  54.8120000  31.8580000  30.1740000
  54.1690000  31.8930000  28.1600000  55.0560000  33.3350000  28.6810000
  53.3840000  33.0840000  29.2100000  60.6260000  56.6590000  45.4050000
  62.5990000  58.0950000  46.3630000  61.4990000  57.2940000  45.8290000
  63.2560000  58.4390000  45.5590000  63.2000000  57.5110000  47.0670000
  62.2200000  58.9750000  46.8910000  40.5730000  64.8000000  37.0590000
  40.0190000  62.4320000  36.0770000  40.3280000  63.7520000  36.6240000
  38.9500000  62.2180000  36.1590000  40.5650000  61.6510000  36.6150000
  40.2970000  62.3740000  35.0210000  48.7220000  62.8440000  28.1610000
  50.8090000  61.3000000  27.7920000  49.6450000  62.1610000  27.9980000
  51.6800000  61.6890000  28.3270000  51.0630000  61.2370000  26.7290000
  50.6130000  60.2870000  28.1540000  39.4320000  47.7130000  38.7100000
  37.2720000  46.3210000  39.2300000  38.4760000  47.0970000  38.9400000
  37.5280000  45.2940000  39.5070000  36.6140000  46.2820000  38.3560000
  36.7120000  46.7660000  40.0570000  48.4670000  34.9110000  50.0510000
  48.8350000  36.8680000  48.3450000  48.6300000  35.7770000  49.2960000
  48.5180000  36.5730000  47.3400000  49.8920000  37.1500000  48.2980000
  48.2610000  37.7520000  48.6370000  34.3560000  38.9740000  26.7770000
  31.7920000  38.9170000  27.3190000  33.2220000  38.9490000  27.0160000
  31.3190000  39.8700000  27.0620000  31.6230000  38.7300000  28.3840000
  31.2920000  38.1260000  26.7520000  37.5150000  50.5880000  50.7320000
  36.1980000  49.6250000  52.7850000  36.9330000  50.1620000  51.6400000
  36.8710000  49.0910000  53.4630000  35.4220000  48.9270000  52.4560000
  35.7150000  50.4280000  53.3480000  51.7620000  63.8060000  39.2920000
  52.6650000  62.7780000  37.0540000  52.1620000  63.3520000  38.3020000
  53.7280000  63.0020000  36.9250000  52.1240000  63.1850000  36.1940000
  52.5430000  61.6920000  37.0490000  30.9610000  52.3650000  44.1990000
  29.6570000  54.4340000  45.1440000  30.3840000  53.2800000  44.6170000
  29.6100000  55.2360000  44.4020000  30.1490000  54.8280000  46.0390000
  28.6330000  54.1590000  45.4130000  56.3240000  56.1590000  60.2370000
  56.1940000  54.1740000  58.5300000  56.2670000  55.2810000  59.4820000
  55.1950000  54.1040000  58.0900000  56.4170000  53.2220000  59.0220000
  56.9130000  54.3120000  57.7170000  52.6440000  24.7970000  32.1810000
  51.8280000  25.3770000  34.6040000  52.2830000  25.0540000  33.2530000
  51.1820000  24.5870000  34.9970000  51.2610000  26.3140000  34.6100000
  52.6770000  25.4910000  35.2840000  60.3990000  43.6920000  53.7880000
  59.8060000  45.7570000  52.2850000  60.1360000  44.6050000  53.1230000
  60.4980000  45.8360000  51.4420000  59.8640000  46.6860000  52.8610000
  58.7920000  45.6690000  51.8850000  44.5280000  49.8800000  52.3430000
  44.0080000  47.3380000  51.9630000  44.2980000  48.7550000  52.1750000
  43.2690000  47.2070000  51.1670000  43.6100000  46.8820000  52.8750000
  44.9130000  46.7940000  51.6790000  53.0030000  25.1950000  62.7400000
  54.8040000  27.0810000  62.4610000  53.8000000  26.0290000  62.6160000
  55.6120000  26.7520000  61.8010000  55.2410000  27.3470000  63.4280000
  54.3590000  27.9820000  62.0300000  30.0080000  60.6100000  35.0640000
  28.5770000  61.5350000  33.0710000  29.3750000  61.0190000  34.1820000
  27.5390000  61.2000000  33.1490000  28.9750000  61.1870000  32.1120000
  28.5820000  62.6290000  33.0640000  64.8000000  62.6040000  51.5950000
  62.1940000  62.3680000  51.7610000  63.6470000  62.5000000  51.6690000
  61.9090000  61.3310000  51.9610000  61.7150000  62.6780000  50.8270000
  61.7970000  62.9900000  52.5680000  33.7380000  26.5870000  64.3650000
  33.8520000  28.9640000  63.2630000  33.7880000  27.6390000  63.8780000
  32.9220000  29.5150000  63.4310000  34.0100000  28.8850000  62.1830000
  34.6750000  29.5490000  63.6840000  40.9050000  61.2050000  43.6390000
  42.3390000  63.3950000  43.7860000  41.5390000  62.1740000  43.7040000
  42.0340000  64.1120000  43.0180000  43.4010000  63.1750000  43.6430000
  42.2200000  63.8730000  44.7630000  41.0570000  34.3270000  34.0450000
  41.4290000  34.8580000  31.5040000  41.2220000  34.5620000  32.9210000
  41.0750000  35.8640000  31.2610000  40.8860000  34.1450000  30.8750000
  42.4900000  34.7990000  31.2450000  56.4020000  56.9690000  57.9600000
  53.9320000  57.8470000  57.9180000  55.3090000  57.3580000  57.9410000
  53.2890000  57.2290000  58.5510000  53.5290000  57.8260000  56.9000000
  53.8790000  58.8770000  58.2830000  24.9170000  49.1870000  63.9870000
  23.3810000  47.9300000  62.2740000  24.2370000  48.6310000  63.2290000
  23.9680000  47.5420000  61.4370000  22.6170000  48.6030000  61.8700000
  22.8720000  47.0880000  62.7520000  49.6720000  35.0310000  27.8420000
  51.4130000  36.6780000  26.7790000  50.4420000  35.7590000  27.3720000
  52.3720000  36.1770000  26.6140000  51.5860000  37.5370000  27.4340000
  51.0560000  37.0530000  25.8150000  43.1280000  58.4000000  37.5810000
  45.4450000  58.8860000  36.4540000  44.1530000  58.6150000  37.0830000
  45.9930000  59.6540000  37.0080000  45.3120000  59.2380000  35.4270000
  46.0610000  57.9830000  36.4260000  32.8820000  53.4640000  27.0940000
  30.5840000  54.0460000  25.9730000  31.8650000  53.7220000  26.5980000
  29.9050000  53.1900000  26.0110000  30.7230000  54.3230000  24.9230000
  30.1030000  54.8850000  26.4840000  41.1470000  27.8650000  39.2410000
  43.6530000  27.1120000  39.4140000  42.2560000  27.5320000  39.3180000
  43.7240000  26.0410000  39.6230000  44.1660000  27.6500000  40.2180000
  44.1850000  27.3120000  38.4790000  44.3830000  31.9310000  47.7710000
  42.5020000  33.7310000  47.4690000  43.5510000  32.7270000  47.6370000
  41.5670000  33.3990000  47.9310000  42.3090000  33.9180000  46.4080000
  42.7910000  34.6780000  47.9330000  61.6080000  37.0250000  35.6590000
  62.2380000  37.8730000  38.0590000  61.8870000  37.4000000  36.7210000
  61.3770000  38.3400000  38.5450000  63.0440000  38.6130000  38.0110000
  62.5760000  37.0450000  38.6880000  30.0190000  50.5580000  21.5940000
  31.0220000  52.9280000  22.0970000  30.4630000  51.6060000  21.8160000
  30.3590000  53.7170000  21.7290000  31.9960000  53.0480000  21.6120000
  31.1580000  53.0720000  23.1720000  24.3270000  38.4660000  41.3300000
  26.9490000  38.4590000  41.3140000  25.4870000  38.4630000  41.3230000
  27.3430000  39.2900000  41.9070000  27.3320000  38.5580000  40.2930000
  27.3380000  37.5270000  41.7340000  60.6160000  26.1430000  41.8930000
  62.3720000  24.7330000  43.2350000  61.3930000  25.5190000  42.4870000
  62.6620000  23.8390000  42.6750000  61.9610000  24.4130000  44.1970000
  63.2750000  25.3190000  43.4290000  51.4600000  46.9190000  24.0180000
  52.0910000  44.6350000  25.1410000  51.7390000  45.9080000  24.5150000
  51.1960000  44.1120000  25.4880000  52.7480000  44.7930000  26.0020000
  52.6110000  43.9840000  24.4320000  51.7430000  64.5270000  44.1450000
  52.0090000  63.2160000  46.4000000  51.8610000  63.9470000  45.1420000
  51.0750000  62.7160000  46.6720000  52.2810000  63.8950000  47.2150000
  52.7900000  62.4550000  46.3180000  57.2220000  41.6120000  26.0400000
  54.6580000  42.1540000  26.1080000  56.0880000  41.8520000  26.0700000
  54.0970000  41.3280000  26.5560000  54.2690000  42.3220000  25.0990000
  54.4660000  43.0540000  26.6990000  43.1130000  55.3520000  27.6570000
  42.1900000  54.5180000  25.3480000  42.7050000  54.9830000  26.6350000
  41.1020000  54.4150000  25.3790000  42.6170000  53.5450000  25.0870000
  42.4430000  55.2240000  24.5510000  29.7180000  42.3850000  48.4850000
  32.0950000  42.0720000  49.5450000  30.7690000  42.2470000  48.9540000
  32.8660000  42.0440000  48.7700000  32.1490000  41.1370000  50.1110000
  32.3290000  42.8950000  50.2270000  28.8900000  34.8000000  59.4400000
  27.3960000  33.5070000  61.1640000  28.2290000  34.2280000  60.2030000
  27.9990000  32.8140000  61.7590000  26.6220000  32.9280000  60.6510000
  26.9030000  34.2020000  61.8490000  49.5010000  56.0080000  58.0170000
  50.2140000  58.3500000  58.9570000  49.8160000  57.0440000  58.4330000
  49.5280000  58.6780000  59.7440000  50.2090000  59.1050000  58.1650000
  51.2210000  58.3090000  59.3800000  24.4430000  31.5780000  26.0880000
  22.2890000  32.4740000  24.8920000  23.4900000  31.9750000  25.5580000
  21.6000000  32.9220000  25.6140000  21.7620000  31.6630000  24.3790000
  22.5440000  33.2360000  24.1490000  57.1340000  42.4930000  24.0270000
  55.1560000  44.1760000  23.6660000  56.2590000  43.2370000  23.8670000
  55.4960000  45.0650000  23.1260000  54.7410000  44.4990000  24.6250000
  54.3520000  43.7140000  23.0860000  62.5870000  34.7190000  58.5310000
  60.5230000  33.1190000  58.7660000  61.6740000  34.0110000  58.6350000
  60.7820000  32.1010000  58.4600000  59.6920000  33.4600000  58.1400000
  60.1740000  33.0840000  59.8020000  27.5420000  28.1920000  29.8970000
  25.0680000  27.7520000  30.6450000  26.4480000  27.9970000  30.2280000
  24.4780000  28.6720000  30.5960000  25.0330000  27.3800000  31.6730000
  24.5930000  27.0090000  29.9980000  28.8660000  40.6860000  46.1910000
  27.2460000  39.3980000  44.5810000  28.1490000  40.1160000  45.4790000
  26.4580000  38.8920000  45.1460000  27.7890000  38.6420000  44.0050000
  26.7700000  40.0850000  43.8760000  60.0480000  61.6280000  28.1210000
  61.7590000  60.3770000  26.5760000  60.8050000  61.0750000  27.4370000
  61.2380000  59.8030000  25.8040000  62.3740000  59.6840000  27.1580000
  62.4260000  61.0870000  26.0790000  23.3430000  38.2520000  57.3130000
  25.4990000  39.5650000  56.6050000  24.2970000  38.8330000  57.0000000
  25.3290000  40.6450000  56.6470000  25.7940000  39.3070000  55.5830000
  26.3350000  39.3270000  57.2690000  61.1190000  31.1190000  43.3010000
  61.9360000  28.6700000  42.8410000  61.4800000  30.0350000  43.0980000
  62.7880000  28.4180000  43.4780000  62.2450000  28.5530000  41.7980000
  61.1380000  27.9500000  43.0410000  61.0540000  33.5270000  32.0080000
  59.1500000  35.3300000  32.0230000  60.2120000  34.3250000  32.0150000
  59.3290000  36.0910000  31.2580000  59.0960000  35.8310000  32.9950000
  58.1780000  34.8700000  31.8250000  31.9750000  40.4850000  35.5040000
  33.8850000  41.8320000  34.3160000  32.8200000  41.0810000  34.9780000
  33.8120000  42.8980000  34.5490000  33.8240000  41.7160000  33.2290000
  34.8680000  41.4800000  34.6400000  26.2140000  28.0120000  54.5830000
  25.3350000  30.4820000  54.6190000  25.8250000  29.1050000  54.5990000
  25.9960000  31.1380000  54.0460000  25.2840000  30.8620000  55.6440000
  24.3340000  30.5450000  54.1830000  31.6960000  48.0030000  22.2980000
  33.1160000  48.3070000  24.4820000  32.3240000  48.1370000  23.2640000
  32.7700000  49.1750000  25.0520000  34.1730000  48.4580000  24.2410000
  33.0360000  47.4250000  25.1240000  64.3880000  36.7300000  36.6030000
  62.8320000  34.6510000  36.9680000  63.7000000  35.8100000  36.7640000
  63.0030000  33.8970000  36.1940000  61.7780000  34.9430000  36.9310000
  63.0220000  34.1890000  37.9410000  25.2260000  26.3370000  58.8640000
  23.5000000  24.5330000  58.0610000  24.4630000  25.5390000  58.5090000
  23.7870000  23.5370000  58.4100000  23.4450000  24.5080000  56.9680000
  22.5000000  24.7530000  58.4460000  25.5540000  51.1160000  41.2360000
  27.8630000  52.2140000  40.6560000  26.5760000  51.6020000  40.9790000
  27.8650000  53.2770000  40.9140000  28.0790000  52.1240000  39.5860000
  28.6740000  51.7290000  41.2070000  42.7580000  30.5300000  23.7200000
  40.3310000  29.5450000  23.6030000  41.6840000  30.0940000  23.6690000
  40.3450000  28.5200000  23.2210000  39.6990000  30.1450000  22.9420000
  39.8690000  29.5310000  24.5940000  60.7190000  24.6350000  39.8990000
  58.5690000  26.0920000  40.2550000  59.7680000  25.2790000  40.0560000
  58.2590000  26.5630000  39.3170000  58.7520000  26.8830000  40.9890000
  57.7380000  25.4780000  40.6170000  35.1810000  44.2880000  48.0670000
  32.6430000  44.9450000  48.0660000  34.0580000  44.5780000  48.0670000
  32.0110000  44.0550000  47.9830000  32.4120000  45.6050000  47.2240000
  32.3750000  45.4670000  48.9890000  36.9400000  54.3610000  42.0960000
  35.6880000  56.3750000  43.2140000  36.3860000  55.2520000  42.5910000
  35.8050000  57.2850000  42.6180000  36.0830000  56.5710000  44.2150000
  34.6180000  56.1650000  43.3060000  49.4190000  25.0380000  47.1420000
  49.3370000  22.7830000  45.8050000  49.3830000  24.0400000  46.5500000
  48.3630000  22.6510000  45.3250000  49.5070000  21.9310000  46.4700000
  50.1050000  22.7650000  45.0260000  57.5740000  58.5410000  61.2010000
  55.0130000  57.9770000  61.1600000  56.4410000  58.2910000  61.1830000
  54.8230000  57.0000000  61.6130000  54.6370000  57.9540000  60.1320000
  54.4410000  58.7260000  61.7140000  39.5210000  54.9720000  49.3330000
  40.3180000  53.6080000  47.2390000  39.8740000  54.3690000  48.4070000
  41.3400000  53.8830000  46.9620000  39.6690000  53.8020000  46.3790000
  40.2990000  52.5340000  47.4440000  23.3390000  44.8860000  54.3750000
  22.4930000  47.3470000  54.7020000  22.9650000  45.9750000  54.5190000
  21.6010000  47.5340000  54.0980000  23.2630000  48.0650000  54.4030000
  22.2410000  47.5350000  55.7490000  25.5750000  43.7050000  22.7700000
  25.1930000  45.8390000  24.2440000  25.4060000  44.6490000  23.4220000
  24.2780000  46.3600000  23.9460000  26.0300000  46.5370000  24.1420000
  25.1010000  45.5710000  25.3010000  29.4090000  40.4160000  41.5660000
  29.3870000  39.7890000  39.0200000  29.3990000  40.1390000  40.4390000
  29.9510000  38.8700000  38.8410000  29.8360000  40.5860000  38.4190000
  28.3630000  39.6340000  38.6660000  56.1320000  29.8140000  41.0560000
  53.6260000  30.5450000  41.3000000  55.0240000  30.1370000  41.1640000
  53.1350000  29.9900000  42.1040000  53.0750000  30.3590000  40.3730000
  53.5530000  31.6120000  41.5290000  31.1050000  46.4210000  55.8590000
  31.6050000  46.0450000  53.3120000  31.3270000  46.2540000  54.7320000
  31.9760000  45.0310000  53.1340000  32.3620000  46.7510000  52.9560000
  30.7010000  46.1860000  52.7130000  55.6440000  53.8350000  47.3280000
  58.0290000  52.7480000  47.4200000  56.6990000  53.3540000  47.3690000
  57.9580000  51.6700000  47.5920000  58.6230000  53.1830000  48.2300000
  58.5660000  52.9080000  46.4810000  54.6490000  48.1850000  28.8980000
  53.9410000  50.2900000  27.5040000  54.3360000  49.1160000  28.2810000
  53.1900000  50.8770000  28.0400000  53.5170000  49.9930000  26.5400000
  54.8020000  50.9360000  27.3110000  62.1820000  37.2340000  60.8930000
  60.1520000  35.9560000  61.9520000  61.2840000  36.6690000  61.3620000
  59.6440000  35.3430000  61.2020000  59.4230000  36.6600000  62.3670000
  60.4850000  35.2980000  62.7600000  30.0170000  42.7660000  50.9660000
  28.8540000  40.4210000  51.1170000  29.5030000  41.7280000  51.0330000
  29.1060000  39.9210000  52.0570000  29.1730000  39.7750000  50.2930000
  27.7660000  40.5220000  51.0670000  31.0040000  42.9300000  25.3310000
  28.4640000  43.5520000  25.1430000  29.8800000  43.2050000  25.2480000
  27.8490000  42.6520000  25.0490000  28.2810000  44.1810000  24.2670000
  28.1310000  44.0990000  26.0290000  53.9580000  37.5510000  28.2730000
  55.9170000  38.1060000  29.9240000  54.8250000  37.7970000  29.0030000
  55.5890000  38.8090000  30.6950000  56.7600000  38.5560000  29.3900000
  56.2760000  37.2000000  30.4210000  32.9970000  40.8770000  46.2770000
  31.6660000  42.9980000  45.5020000  32.4090000  41.8150000  45.9340000
  32.3380000  43.8500000  45.3640000  30.9120000  43.2770000  46.2440000
  31.1560000  42.8120000  44.5520000  57.7730000  48.4230000  28.5430000
  56.2360000  46.4780000  27.6900000  57.0930000  47.5630000  28.1650000
  55.6970000  46.7760000  26.7850000  55.4980000  46.2030000  28.4500000
  56.8280000  45.5890000  27.4550000  32.1450000  62.9020000  39.8470000
  32.6390000  61.5060000  42.0110000  32.3630000  62.2840000  40.8040000
  32.4160000  62.0890000  42.9090000  33.6910000  61.2090000  42.0510000
  32.0290000  60.5980000  42.0360000  27.3800000  51.3600000  43.1190000
  28.3430000  49.0280000  42.4030000  27.8060000  50.3280000  42.8020000
  27.7620000  48.6040000  41.5790000  28.3140000  48.3220000  43.2380000
  29.3820000  49.1210000  42.0730000  49.8250000  58.5080000  23.3260000
  48.8050000  59.3720000  25.5810000  49.3740000  58.8900000  24.3240000
  49.5950000  59.6630000  26.2800000  48.1990000  58.5940000  26.0580000
  48.1650000  60.2430000  25.4100000  29.8320000  26.4820000  44.7940000
  27.3010000  27.1660000  44.7500000  28.7130000  26.7840000  44.7750000
  27.0840000  27.7970000  43.8830000  27.0340000  27.7240000  45.6530000
  26.6600000  26.2810000  44.6960000  32.9760000  26.0170000  59.9080000
  30.9100000  27.5600000  59.4320000  32.0620000  26.7000000  59.6970000
  30.0320000  27.2170000  59.9870000  30.6600000  27.5580000  58.3660000
  31.1180000  28.5920000  59.7290000  42.5410000  35.1660000  58.7770000
  44.9490000  34.3600000  59.4340000  43.6060000  34.8090000  59.0670000
  45.1810000  33.4020000  58.9590000  45.0340000  34.2320000  60.5170000
  45.7020000  35.0870000  59.1170000  62.4420000  58.3020000  24.7070000
  64.0810000  57.8470000  22.7120000  63.1670000  58.1010000  23.8240000
  64.6440000  58.7490000  22.4570000  63.5300000  57.5270000  21.8210000
  64.7970000  57.0610000  22.9680000  40.4620000  25.9210000  54.6510000
  42.3850000  27.7010000  54.7420000  41.3130000  26.7080000  54.6920000
  42.1350000  28.5090000  55.4360000  42.5550000  28.1410000  53.7550000
  43.3220000  27.2440000  55.0760000  64.8010000  36.7470000  30.5260000
  63.9600000  39.2140000  30.8140000  64.4290000  37.8380000  30.6530000
  63.2520000  39.2890000  31.6440000  63.4580000  39.5620000  29.9060000
  64.7970000  39.8880000  31.0190000  37.8450000  21.6000000  24.1940000
  35.9840000  23.4470000  24.1620000  37.0220000  22.4170000  24.1800000
  36.2940000  24.3010000  23.5520000  35.7770000  23.8090000  25.1740000
  35.0530000  23.0530000  23.7450000  27.2240000  30.5970000  21.8240000
  25.2170000  30.8230000  23.4960000  26.3360000  30.6970000  22.5640000
  24.3680000  30.2150000  23.1690000  24.8840000  31.8630000  23.5650000
  25.5060000  30.4910000  24.4970000  36.8510000  59.8460000  29.4530000
  35.4190000  57.6510000  29.5560000  36.2170000  58.8750000  29.4980000
  34.6470000  57.6540000  28.7810000  34.9250000  57.5540000  30.5270000
  36.0480000  56.7690000  29.4050000  49.6060000  27.3240000  49.9280000
  47.8080000  25.4160000  49.9300000  48.8100000  26.4800000  49.9290000
  48.1180000  24.5890000  50.5750000  47.6580000  25.0210000  48.9200000
  46.8460000  25.7880000  50.2940000  55.9920000  58.9930000  53.3100000
  54.9400000  60.4010000  51.3640000  55.5270000  59.6160000  52.4490000
  54.0340000  60.9130000  51.7010000  54.6730000  59.7580000  50.5190000
  55.6440000  61.1570000  51.0070000  49.5050000  51.4150000  47.7670000
  48.6210000  51.5790000  50.2300000  49.1140000  51.4870000  48.8570000
  49.0410000  50.7800000  50.8480000  47.5300000  51.4930000  50.2580000
  48.8980000  52.5370000  50.6800000  58.8230000  33.7060000  41.1820000
  56.9020000  32.4990000  39.8670000  57.9730000  33.1720000  40.6010000
  56.7730000  32.9410000  38.8750000  55.9510000  32.5840000  40.4030000
  57.1260000  31.4360000  39.7400000  26.7640000  64.5040000  52.4200000
  24.4190000  63.7730000  53.3360000  25.7270000  64.1810000  52.8250000
  24.4990000  62.8500000  53.9180000  23.7170000  63.5980000  52.5150000
  23.9960000  64.5470000  53.9840000  44.1280000  27.0490000  22.3150000
  45.5860000  28.6390000  23.8040000  44.7730000  27.7520000  22.9730000
  45.8910000  29.5270000  23.2420000  46.4910000  28.1290000  24.1480000
  45.0270000  28.9700000  24.6840000  26.3700000  61.3620000  45.3080000
  27.5520000  62.7280000  43.4070000  26.8930000  61.9660000  44.4670000
  26.9910000  63.6380000  43.1750000  27.6290000  62.1330000  42.4910000
  28.5630000  63.0190000  43.7090000  35.1050000  26.2280000  61.1460000
  33.4180000  24.4640000  62.1040000  34.3590000  25.4480000  61.5700000
  33.9360000  23.7290000  62.7270000  32.9140000  23.9280000  61.2940000
  32.6540000  24.9500000  62.7170000  39.1470000  61.7770000  55.6080000
  38.4700000  64.1280000  54.6630000  38.8480000  62.8170000  55.1900000
  37.7330000  64.6100000  55.3110000  38.0350000  64.0340000  53.6630000
  39.3420000  64.7840000  54.5930000  51.1120000  36.5900000  35.3820000
  53.5790000  37.4460000  35.6140000  52.2030000  36.9690000  35.4850000
  53.6010000  38.4730000  35.9920000  54.0900000  37.4290000  34.6460000
  54.1450000  36.8170000  36.3080000  32.1060000  23.4690000  49.7420000
  30.2840000  22.4410000  51.3230000  31.3000000  23.0140000  50.4420000
  29.7790000  21.6000000  50.8390000  29.5280000  23.1880000  51.5830000
  30.7350000  22.0770000  52.2510000  37.8750000  54.4730000  44.6100000
  39.5720000  56.1830000  45.6450000  38.6260000  55.2290000  45.0680000
  40.6020000  55.8450000  45.5010000  39.3990000  56.3010000  46.7190000
  39.4680000  57.1660000  45.1750000  21.6000000  48.7410000  46.2550000
  23.0070000  49.8700000  48.1580000  22.2230000  49.2400000  47.0970000
  22.9770000  49.2710000  49.0720000  22.6170000  50.8660000  48.3910000
  24.0530000  49.9780000  47.8560000  39.7650000  24.3640000  36.3010000
  41.9270000  25.6100000  35.4950000  40.7210000  24.9150000  35.9450000
  41.7380000  26.6810000  35.3790000  42.2650000  25.2180000  34.5310000
  42.7400000  25.4850000  36.2160000  29.6030000  41.8950000  35.6960000
  27.5720000  40.2370000  35.6940000  28.7050000  41.1620000  35.6950000
  27.4100000  39.8200000  36.6920000  27.7480000  39.4070000  35.0040000
  26.6550000  40.7470000  35.3860000  42.8340000  35.1770000  35.4690000
  44.0570000  37.4360000  34.9450000  43.3750000  36.1760000  35.2370000
  44.8990000  37.2740000  34.2650000  44.4430000  37.8910000  35.8620000
  43.3730000  38.1480000  34.4740000  38.2760000  61.8030000  33.5910000
  38.5070000  59.4750000  34.7760000  38.3780000  60.7730000  34.1150000
  37.8000000  58.7540000  34.3580000  38.3080000  59.5640000  35.8490000
  39.5170000  59.0740000  34.6510000  25.5030000  46.1660000  59.7890000
  22.9150000  45.7800000  59.9660000  24.3580000  45.9950000  59.8680000
  22.6550000  45.3220000  60.9250000  22.5650000  45.1190000  59.1680000
  22.3740000  46.7270000  59.8840000  51.8720000  28.9470000  27.8060000
  53.5890000  30.0400000  26.1540000  52.6320000  29.4300000  27.0750000
  53.8430000  29.3490000  25.3440000  54.5140000  30.3070000  26.6750000
  53.1760000  30.9490000  25.7080000  47.7630000  59.5200000  29.0570000
  46.3040000  57.8760000  27.6280000  47.1180000  58.7930000  28.4250000
  46.1050000  58.2940000  26.6370000  45.3430000  57.6840000  28.1160000
  46.8150000  56.9180000  27.4960000  36.3940000  48.9590000  42.8880000
  36.9140000  51.5240000  42.7200000  36.6240000  50.0940000  42.8140000
  37.2790000  51.9100000  43.6760000  36.0150000  52.0860000  42.4480000
  37.6770000  51.7170000  41.9610000  35.2140000  59.4830000  49.2460000
  36.0750000  61.9080000  49.7490000  35.5950000  60.5560000  49.4680000
  35.3730000  62.4440000  50.3950000  36.1880000  62.4810000  48.8230000
  37.0460000  61.8800000  50.2520000  40.1620000  43.0600000  61.5520000
  41.0090000  40.5810000  61.4420000  40.5370000  41.9630000  61.5030000
  40.2130000  39.9130000  61.1020000  41.3420000  40.2400000  62.4270000
  41.8500000  40.4880000  60.7480000  55.9160000  56.9110000  63.5220000
  58.0450000  55.3810000  63.5310000  56.8580000  56.2340000  63.5260000
  57.9080000  54.5190000  62.8710000  58.2520000  55.0080000  64.5390000
  58.9240000  55.9350000  63.1870000  21.6780000  36.9650000  51.6570000
  22.9090000  36.0350000  49.5370000  22.2230000  36.5540000  50.7190000
  22.4200000  36.3780000  48.6210000  22.9060000  34.9400000  49.5350000
  23.9500000  36.3710000  49.5130000  29.3690000  59.7040000  26.2830000
  30.8840000  61.7380000  26.9490000  30.0390000  60.6040000  26.5780000
  31.7740000  61.7840000  26.3150000  31.2120000  61.6550000  27.9900000
  30.3400000  62.6810000  26.8390000  34.4720000  32.0780000  51.5590000
  35.0260000  34.5190000  52.3420000  34.7170000  33.1580000  51.9050000
  35.7300000  34.9970000  51.6540000  35.4760000  34.5140000  53.3400000
  34.1200000  35.1300000  52.3810000  39.9200000  56.6740000  55.5000000
  37.6940000  55.3120000  55.7540000  38.9350000  56.0720000  55.6120000
  36.9230000  55.6970000  55.0810000  37.3140000  55.3760000  56.7780000
  37.8550000  54.2560000  55.5170000  45.2970000  24.6900000  26.4230000
  44.9930000  26.1180000  28.6010000  45.1620000  25.3220000  27.3860000
  44.2000000  25.7030000  29.2300000  44.7250000  27.1500000  28.3550000
  45.9170000  26.1370000  29.1860000  25.5760000  32.6460000  41.9690000
  27.0270000  34.4520000  40.7430000  26.2180000  33.4450000  41.4270000
  28.0870000  34.1830000  40.7690000  26.9130000  35.4310000  41.2190000
  26.7260000  34.5480000  39.6960000  24.5350000  26.8920000  55.9340000
  22.2110000  26.9540000  57.1480000  23.5070000  26.9190000  56.4710000
  21.6010000  26.0910000  56.8650000  21.6600000  27.8620000  56.8860000
  22.3390000  26.9370000  58.2340000  50.2000000  35.7100000  58.4000000
  51.6420000  37.4460000  59.7330000  50.8380000  36.4780000  58.9900000
  51.0020000  38.1470000  60.2780000  52.2790000  38.0240000  59.0560000
  52.2870000  36.9410000  60.4580000  51.6650000  47.1350000  51.6820000
  54.0940000  48.1040000  51.4850000  52.7400000  47.5640000  51.5950000
  54.0700000  49.1550000  51.1850000  54.6740000  47.5510000  50.7390000
  54.6180000  48.0350000  52.4420000  32.5740000  24.4920000  54.4270000
  30.4870000  22.9190000  54.6360000  31.6510000  23.7960000  54.5200000
  30.7740000  21.8720000  54.5000000  29.7360000  23.1670000  53.8800000
  30.0230000  23.0180000  55.6220000  50.6840000  35.3720000  32.8100000
  51.1730000  37.9480000  32.8350000  50.9000000  36.5120000  32.8210000
  50.8100000  38.4040000  33.7610000  50.6790000  38.4460000  31.9950000
  52.2470000  38.1410000  32.7600000  28.0930000  60.3170000  36.1250000
  25.9170000  61.3060000  35.0460000  27.1300000  60.7550000  35.6470000
  26.1380000  62.2270000  34.4990000  25.1720000  61.5360000  35.8140000
  25.4730000  60.5940000  34.3450000  31.9070000  46.5380000  38.4660000
  32.5930000  45.8690000  36.0250000  32.2100000  46.2420000  37.3860000
  33.4860000  45.2380000  36.0320000  32.8080000  46.7580000  35.4240000
  31.7890000  45.3140000  35.5340000  36.0120000  27.6550000  41.9070000
  36.9620000  29.6350000  40.4740000  36.4330000  28.5310000  41.2730000
  37.7670000  29.2890000  39.8180000  37.3650000  30.4230000  41.1180000
  36.1790000  30.0740000  39.8490000  38.9150000  22.6120000  42.5910000
  37.2820000  24.6000000  43.0980000  38.1930000  23.4920000  42.8150000
  37.5510000  25.4840000  42.5120000  37.3180000  24.8720000  44.1580000
  36.2510000  24.3300000  42.8520000  43.3570000  48.5350000  29.2480000
  43.7310000  50.0040000  31.3870000  43.5220000  49.1850000  30.1940000
  44.6190000  49.6740000  31.9350000  42.8710000  49.9370000  32.0610000
  43.8690000  51.0550000  31.1180000  56.6150000  58.5100000  50.5560000
  56.1820000  57.2600000  48.2920000  56.4240000  57.9570000  49.5540000
  56.8840000  57.5950000  47.5220000  55.1660000  57.4500000  47.9310000
  56.3030000  56.1800000  48.4150000  64.8000000  63.2010000  46.1190000
  62.7740000  63.7340000  44.5420000  63.9040000  63.4370000  45.4210000
  62.7390000  64.8000000  44.3000000  61.8280000  63.4620000  45.0190000
  62.8540000  63.1760000  43.6040000  28.1200000  26.4070000  22.5150000
  25.5480000  25.9250000  22.3480000  26.9820000  26.1940000  22.4410000
  25.0780000  26.5750000  21.6040000  25.0570000  26.0990000  23.3100000
  25.3650000  24.8870000  22.0560000  53.8380000  43.6590000  58.0870000
  52.1600000  41.7900000  57.3360000  53.0960000  42.8320000  57.7550000
  52.3950000  40.8380000  57.8220000  52.2050000  41.6390000  56.2530000
  51.1330000  42.0610000  57.5990000  45.2220000  23.3230000  30.7140000
  44.5540000  25.6340000  31.7560000  44.9260000  24.3450000  31.1750000
  44.9480000  26.4600000  31.1560000  44.9500000  25.7330000  32.7710000
  43.4660000  25.7390000  31.8050000  34.1000000  29.0210000  22.9170000
  33.9610000  31.6130000  22.5490000  34.0390000  30.1680000  22.7540000
  34.4260000  31.8970000  21.6000000  34.4760000  32.1480000  23.3530000
  32.9200000  31.9480000  22.5300000  34.2330000  33.5020000  40.7790000
  32.5930000  33.5000000  38.7330000  33.5070000  33.5010000  39.8740000
  33.1390000  33.3490000  37.7970000  32.0560000  34.4510000  38.6640000
  31.8540000  32.6990000  38.8280000  40.6370000  25.2180000  47.8610000
  39.4030000  23.7620000  46.0630000  40.0910000  24.5740000  47.0660000
  39.5320000  22.6960000  46.2710000  39.7980000  23.9640000  45.0620000
  38.3310000  23.9800000  46.0550000  29.1130000  28.7100000  45.7600000
  30.0170000  31.1160000  46.2820000  29.5130000  29.7740000  45.9910000
  30.5650000  31.5200000  45.4250000  30.6950000  31.0980000  47.1410000
  29.1950000  31.7990000  46.5120000  29.2320000  58.5980000  61.2900000
  30.8240000  60.6470000  60.9110000  29.9360000  59.5050000  61.1220000
  30.4390000  61.2970000  60.1190000  31.8250000  60.3140000  60.6210000
  30.9160000  61.2420000  61.8240000  25.6890000  25.3780000  37.0090000
  27.7190000  26.8740000  36.2920000  26.5870000  26.0400000  36.6920000
  28.2880000  26.3970000  35.4880000  28.3970000  27.0400000  37.1350000
  27.3770000  27.8490000  35.9340000  25.9350000  61.4810000  48.2910000
  25.5160000  58.8930000  48.2880000  25.7500000  60.3360000  48.2890000
  26.2620000  58.3770000  48.9000000  25.5730000  58.4900000  47.2720000
  24.5260000  58.6590000  48.6910000  38.2290000  40.7010000  58.5020000
  40.6910000  40.4410000  57.6380000  39.3190000  40.5860000  58.1200000
  41.1720000  39.5680000  58.0890000  41.2870000  41.3250000  57.8890000
  40.7110000  40.3160000  56.5520000  44.2970000  21.9880000  58.0580000
  42.1980000  23.5030000  58.4740000  43.3680000  22.6580000  58.2420000
  41.9550000  24.0860000  57.5800000  42.3790000  24.2020000  59.2970000
  41.3250000  22.8960000  58.7300000  36.8380000  60.4240000  32.0550000
  34.4440000  60.2450000  31.0020000  35.7790000  60.3450000  31.5890000
  33.8300000  61.1070000  31.2820000  33.9340000  59.3390000  31.3460000
  34.5000000  60.2090000  29.9100000  51.9700000  36.6170000  40.1530000
  53.4590000  34.4750000  39.8920000  52.6280000  35.6700000  40.0380000
  54.4970000  34.6870000  40.1650000  53.4460000  34.1160000  38.8590000
  53.0970000  33.6690000  40.5360000  50.7850000  56.0550000  28.2150000
  52.4490000  57.8360000  27.2470000  51.5210000  56.8430000  27.7870000
  52.5260000  57.7450000  26.1600000  53.4490000  57.7050000  27.6720000
  52.1120000  58.8500000  27.4800000  56.4740000  29.4750000  31.1670000
  54.1970000  28.5380000  32.0690000  55.4670000  29.0600000  31.5660000
  53.4070000  29.2890000  31.9850000  54.2840000  28.2520000  33.1220000
  53.8880000  27.6550000  31.5030000  49.9990000  24.9620000  51.7150000
  49.5480000  27.4620000  52.3660000  49.8000000  26.0680000  52.0030000
  50.3790000  28.1010000  52.0530000  49.4280000  27.5660000  53.4490000
  48.6370000  27.8300000  51.8870000  30.6460000  64.8000000  54.7410000
  32.9000000  63.4610000  54.7120000  31.6430000  64.2070000  54.7280000
  32.8940000  62.7060000  53.9200000  33.0610000  62.9500000  55.6660000
  33.7470000  64.1290000  54.5370000  44.2950000  48.1530000  55.9310000
  42.5810000  46.1790000  55.7220000  43.5360000  47.2800000  55.8380000
  42.8600000  45.3500000  56.3790000  42.5460000  45.8020000  54.6950000
  41.5740000  46.5070000  55.9970000  43.8540000  59.1410000  55.8050000
  42.2000000  59.6240000  53.8290000  43.1220000  59.3550000  54.9300000
  42.5650000  60.4480000  53.2080000  41.2100000  59.8970000  54.2080000
  42.0880000  58.7420000  53.1910000  45.4500000  52.5270000  32.6220000
  47.7680000  52.3650000  31.4080000  46.4750000  52.4550000  32.0850000
  48.5540000  52.8330000  32.0070000  47.7350000  52.8680000  30.4370000
  48.0460000  51.3200000  31.2390000  60.0900000  59.9770000  41.6520000
  61.5300000  57.7990000  41.4080000  60.7270000  59.0140000  41.5440000
  62.1050000  57.6090000  42.3190000  62.2350000  57.8900000  40.5750000
  60.8930000  56.9310000  41.2200000  51.3670000  45.1640000  37.6400000
  49.8500000  43.0270000  37.7280000  50.6960000  44.2190000  37.6790000
  50.4570000  42.1230000  37.8300000  49.2530000  42.9360000  36.8140000
  49.1630000  43.0730000  38.5780000  42.7640000  21.6030000  27.0540000
  42.2380000  24.0190000  27.9260000  42.5320000  22.6720000  27.4400000
  43.0350000  24.7150000  27.6470000  42.1460000  24.0280000  29.0160000
  41.3000000  24.3900000  27.5030000  32.4070000  24.1630000  31.2930000
  29.9530000  25.0370000  31.5900000  31.3210000  24.5500000  31.4240000
  29.2760000  24.5430000  30.8860000  29.9000000  26.1160000  31.4120000
  29.5900000  24.8420000  32.6030000  51.6240000  26.2160000  60.9920000
  51.8180000  23.6030000  60.8890000  51.7100000  25.0600000  60.9460000
  52.8630000  23.2870000  60.9590000  51.4110000  23.2190000  59.9480000
  51.2670000  23.1390000  61.7110000  47.4270000  33.6030000  57.6210000
  45.0920000  33.2510000  56.4800000  46.3940000  33.4470000  57.1160000
  44.5990000  32.3570000  56.8710000  45.2020000  33.1330000  55.3970000
  44.4370000  34.1080000  56.6630000  36.4400000  56.6470000  27.2390000
  37.1610000  58.8180000  25.9580000  36.7590000  57.6070000  26.6720000
  36.4750000  59.6420000  26.1730000  37.1600000  58.6490000  24.8760000
  38.1680000  59.1270000  26.2520000  28.3130000  49.6680000  57.9790000
  29.4790000  48.8760000  55.7680000  28.8280000  49.3180000  57.0000000
  29.4410000  49.6600000  55.0060000  28.9850000  47.9860000  55.3650000
  30.5290000  48.6290000  55.9490000  58.1740000  21.9990000  51.4250000
  59.2310000  24.3770000  51.1070000  58.6420000  23.0510000  51.2840000
  59.1470000  24.9660000  52.0250000  58.7260000  24.9240000  50.3050000
  60.2920000  24.3000000  50.8490000  39.3350000  32.2860000  57.7510000
  41.8700000  32.9160000  57.5250000  40.4560000  32.5650000  57.6510000
  41.9870000  33.8890000  57.0390000  42.4040000  32.1710000  56.9260000
  42.3470000  32.9680000  58.5070000  48.4810000  24.9310000  38.2450000
  48.8280000  27.2580000  37.0870000  48.6350000  25.9610000  37.7330000
  49.7950000  27.6890000  37.3610000  48.0450000  27.9620000  37.3880000
  48.7960000  27.1600000  35.9980000  48.0760000  53.7040000  57.9890000
  50.6480000  53.3570000  57.6140000  49.2140000  53.5510000  57.8230000
  51.2050000  54.2610000  57.8800000  50.8610000  53.1230000  56.5670000
  51.0230000  52.5340000  58.2290000  32.2480000  41.2480000  38.5930000
  30.4660000  43.1070000  38.1000000  31.4600000  42.0700000  38.3750000
  30.2620000  43.6980000  38.9970000  29.5240000  42.6630000  37.7630000
  30.8200000  43.7870000  37.3190000  23.0680000  31.1980000  47.8260000
  25.4230000  30.7910000  48.9030000  24.1100000  31.0180000  48.3020000
  25.3500000  30.1010000  49.7490000  25.8530000  31.7300000  49.2660000
  26.1160000  30.3610000  48.1730000  28.5550000  55.6500000  28.7680000
  29.1820000  53.1250000  29.0880000  28.8320000  54.5330000  28.9100000
  28.7320000  52.5100000  28.3030000  28.8260000  52.7550000  30.0550000
  30.2660000  52.9850000  29.0500000  44.5990000  60.6990000  33.3290000
  42.8670000  59.3270000  34.7410000  43.8330000  60.0920000  33.9540000
  42.5580000  59.8870000  35.6280000  43.3000000  58.3780000  35.0720000
  41.9730000  59.1050000  34.1510000  31.1330000  41.3480000  33.0990000
  30.9030000  43.6330000  31.8340000  31.0310000  42.3590000  32.5390000
  30.1700000  43.5580000  31.0260000  31.8600000  43.9340000  31.3980000
  30.5770000  44.4240000  32.5160000  46.7050000  28.0780000  42.1180000
  45.4400000  30.2820000  42.7630000  46.1450000  29.0530000  42.4040000
  45.3190000  30.3580000  43.8480000  44.4450000  30.3070000  42.3080000
  45.9920000  31.1620000  42.4210000  22.8370000  31.8110000  59.9520000
  22.4870000  33.9480000  61.4290000  22.6820000  32.7560000  60.6060000
  23.3510000  34.1190000  62.0780000  21.6010000  33.8420000  62.0640000
  22.3510000  34.8360000  60.8040000  64.4420000  41.0040000  54.2360000
  63.7450000  42.8850000  52.5470000  64.1330000  41.8360000  53.4890000
  64.5810000  43.1520000  51.8950000  63.4280000  43.7880000  53.0800000
  62.9150000  42.5540000  51.9170000  42.2620000  51.6080000  42.5120000
  40.1920000  50.6700000  43.8190000  41.3460000  51.1930000  43.0900000
  40.1250000  51.1170000  44.8150000  40.2660000  49.5840000  43.9380000
  39.2630000  50.8890000  43.2850000  29.3590000  45.9410000  37.8480000
  29.8230000  48.0290000  39.3640000  29.5640000  46.8650000  38.5190000
  30.3900000  47.7450000  40.2550000  28.8860000  48.4890000  39.6910000
  30.4000000  48.7830000  38.8210000  36.3420000  27.0110000  33.6760000
  36.6120000  29.4290000  32.6980000  36.4610000  28.0810000  33.2430000
  37.4590000  29.4770000  32.0080000  36.7840000  30.1550000  33.4990000
  35.7130000  29.7310000  32.1530000  49.9710000  44.8950000  33.7350000
  49.9340000  46.4290000  35.8600000  49.9540000  45.5740000  34.6750000
  49.4930000  45.9040000  36.7120000  49.3450000  47.3340000  35.6770000
  50.9470000  46.7350000  36.1370000  39.2730000  31.4530000  35.9190000
  38.8820000  28.8930000  35.5070000  39.1000000  30.3200000  35.7370000
  37.9640000  28.7270000  34.9360000  38.7930000  28.3560000  36.4570000
  39.7140000  28.4570000  34.9470000  31.8470000  64.8000000  26.9400000
  33.4810000  63.2800000  28.3160000  32.5700000  64.1280000  27.5490000
  34.2440000  63.8840000  28.8180000  33.9900000  62.5650000  27.6630000
  32.9380000  62.7160000  29.0800000  21.6000000  33.8240000  57.9010000
  22.4390000  32.5760000  55.7530000  21.9710000  33.2720000  56.9510000
  21.6000000  32.3140000  55.1030000  22.9640000  31.6530000  56.0200000
  23.1280000  33.2050000  55.1820000  52.6960000  33.2480000  23.4750000
  53.9170000  34.1500000  25.6130000  53.2360000  33.6470000  24.4210000
  54.8900000  33.6640000  25.7390000  53.3220000  33.9570000  26.5110000
  54.0830000  35.2280000  25.5410000  58.0980000  43.5070000  41.1420000
  57.1210000  45.9200000  40.8300000  57.6660000  44.5740000  41.0040000
  56.9880000  46.1520000  39.7690000  57.7920000  46.6700000  41.2600000
  56.1490000  46.0120000  41.3220000  31.0980000  26.0120000  33.7000000
  33.5870000  25.7980000  32.9070000  32.1990000  25.9180000  33.3490000
  34.2090000  26.5760000  33.3610000  33.6590000  25.8970000  31.8190000
  34.0030000  24.8260000  33.1870000  42.1130000  55.2630000  36.8760000
  40.1350000  56.9580000  36.5730000  41.2380000  56.0130000  36.7420000
  40.5120000  57.9550000  36.3250000  39.5460000  57.0360000  37.4920000
  39.4680000  56.6370000  35.7680000  40.9780000  56.0660000  53.5420000
  38.5920000  55.4270000  52.6620000  39.9230000  55.7830000  53.1530000
  38.0510000  54.8300000  53.4020000  38.6620000  54.8430000  51.7390000
  38.0020000  56.3240000  52.4520000  31.8040000  60.2430000  24.4080000
  29.9750000  58.7240000  23.3040000  30.9950000  59.5710000  23.9190000
  29.3070000  59.3170000  22.6720000  29.3680000  58.2280000  24.0680000
  30.4350000  57.9520000  22.6810000  26.1870000  62.0040000  55.7440000
  23.6040000  61.5810000  55.9120000  25.0440000  61.8170000  55.8180000
  23.0440000  62.4320000  55.5140000  23.3020000  61.4300000  56.9530000
  23.3180000  60.6910000  55.3430000  40.1440000  38.2520000  54.7770000
  37.8390000  37.0020000  54.7690000  39.1240000  37.6990000  54.7730000
  37.7030000  36.4440000  53.8380000  37.0110000  37.7110000  54.8650000
  37.7780000  36.2940000  55.6010000  43.2800000  58.4430000  30.1320000
  45.4410000  58.6430000  31.6030000  44.2360000  58.5310000  30.7820000
  45.2790000  58.2100000  32.5940000  45.7270000  59.6910000  31.7330000
  46.2790000  58.1180000  31.1360000  40.2540000  40.7240000  31.1300000
  37.7010000  41.1580000  30.7180000  39.1250000  40.9160000  30.9480000
  37.1150000  40.2590000  30.9310000  37.5180000  41.4440000  29.6780000
  37.3350000  41.9630000  31.3610000  64.2620000  62.6410000  48.1770000
  63.6700000  60.3470000  49.3010000  64.0000000  61.6260000  48.6740000
  64.4270000  60.0700000  50.0420000  63.6190000  59.5490000  48.5540000
  62.7020000  60.4000000  49.8080000  47.0600000  56.2490000  47.4310000
  49.0530000  54.8320000  48.3780000  47.9420000  55.6220000  47.8500000
  49.7930000  55.4770000  48.8610000  49.5530000  54.2800000  47.5760000
  48.6980000  54.1090000  49.1180000  25.3530000  57.6410000  60.6200000
  23.0840000  58.9340000  60.3850000  24.3490000  58.2130000  60.5160000
  22.5140000  58.5670000  59.5270000  23.2600000  60.0050000  60.2440000
  22.4700000  58.8070000  61.2810000  31.3150000  28.1580000  51.7580000
  30.9150000  25.7340000  50.8410000  31.1380000  27.0860000  51.3520000
  30.9600000  25.7190000  49.7480000  29.9320000  25.3610000  51.1450000
  31.6730000  25.0440000  51.2210000  28.8270000  25.9770000  26.7680000
  27.4750000  27.4360000  25.0590000  28.2290000  26.6220000  26.0120000
  26.9500000  28.2480000  25.5710000  26.7320000  26.8290000  24.5320000
  28.1420000  27.8790000  24.3140000  40.0730000  38.0580000  62.5310000
  40.2950000  37.1770000  60.0720000  40.1710000  37.6680000  61.4430000
  39.4820000  36.4850000  59.8310000  41.2430000  36.6480000  59.9320000
  40.2590000  38.0040000  59.3570000  26.4670000  64.7820000  38.9430000
  24.9220000  62.6660000  39.0540000  25.7840000  63.8460000  38.9920000
  25.4980000  61.7540000  38.8760000  24.1320000  62.7220000  38.2990000
  24.4470000  62.5820000  40.0360000  38.2650000  60.1410000  53.6430000
  36.4410000  61.9630000  54.1180000  37.4580000  60.9470000  53.8530000
  36.3610000  62.6610000  53.2800000  36.6900000  62.5380000  55.0160000
  35.4610000  61.5020000  54.2720000  50.8990000  29.7730000  36.3050000
  53.4900000  29.6340000  35.9260000  52.0450000  29.7120000  36.1370000
  54.0120000  30.3790000  36.5330000  53.7400000  29.8160000  34.8760000
  53.8700000  28.6460000  36.1990000  56.9370000  54.8900000  22.5880000
  58.6810000  56.8390000  22.7750000  57.7080000  55.7530000  22.6710000
  58.1880000  57.8120000  22.6840000  59.4330000  56.7650000  21.9840000
  59.1970000  56.8080000  23.7390000  42.5860000  22.1310000  61.4020000
  43.4100000  24.2480000  62.7120000  42.9510000  23.0680000  61.9810000
  42.8950000  24.3360000  63.6730000  43.2170000  25.1600000  62.1380000
  44.4850000  24.1910000  62.9070000  51.0710000  33.0130000  26.8250000
  48.4590000  32.7810000  26.8600000  49.9160000  32.9110000  26.8410000
  48.0010000  33.6200000  27.3930000  48.1580000  31.8550000  27.3610000
  48.0570000  32.7640000  25.8440000  27.2910000  62.0960000  63.9760000
  26.8210000  60.8250000  61.7310000  27.0830000  61.5340000  62.9820000
  26.6880000  59.7550000  61.9100000  27.6530000  60.9520000  61.0310000
  25.9140000  61.2050000  61.2520000  53.7520000  46.3830000  23.7750000
  53.6980000  48.9810000  23.4260000  53.7280000  47.5330000  23.6200000
  53.7300000  49.5040000  24.3860000  52.7850000  49.2850000  22.9040000
  54.5540000  49.3120000  22.8310000  48.7590000  58.0000000  49.6710000
  46.5630000  57.9690000  51.1040000  47.7870000  57.9860000  50.3050000
  46.7800000  57.7080000  52.1430000  45.8520000  57.2350000  50.7110000
  46.0780000  58.9500000  51.0940000  62.8340000  52.6480000  30.1990000
  61.2510000  50.5580000  30.2460000  62.1340000  51.7230000  30.2200000
  60.2870000  50.7900000  29.7860000  61.0670000  50.2320000  31.2750000
  61.6960000  49.7210000  29.7000000  27.0880000  57.2320000  54.5380000
  27.2330000  59.1050000  52.7100000  27.1520000  58.0610000  53.7290000
  26.6720000  59.9930000  53.0170000  26.8200000  58.7540000  51.7590000
  28.2710000  59.4030000  52.5390000  33.0300000  31.9560000  46.5640000
  32.6420000  29.3740000  46.3240000  32.8580000  30.8130000  46.4580000
  33.3790000  28.9310000  45.6460000  31.6450000  29.1660000  45.9240000
  32.7300000  28.8750000  47.2930000  56.0690000  32.2480000  58.0180000
  55.5250000  34.8120000  58.0170000  55.8290000  33.3820000  58.0180000
  56.2770000  35.3690000  57.4510000  55.5080000  35.2070000  59.0380000
  54.5480000  35.0030000  57.5640000  37.4460000  43.4510000  28.6210000
  37.7110000  44.5510000  30.9870000  37.5630000  43.9380000  29.6680000
  38.6250000  44.2030000  31.4780000  36.8620000  44.2980000  31.6300000
  37.7630000  45.6400000  30.9060000  36.2320000  35.8570000  46.3770000
  35.5850000  33.5820000  47.5090000  35.9460000  34.8500000  46.8780000
  36.4430000  33.1480000  48.0290000  35.2400000  32.8600000  46.7620000
  34.7820000  33.7250000  48.2380000  27.0330000  27.1210000  49.6220000
  27.6770000  26.3480000  52.0430000  27.3180000  26.7790000  50.6930000
  28.5410000  26.9070000  52.4130000  27.9310000  25.2830000  52.0570000
  26.8470000  26.5070000  52.7370000  30.0600000  56.6080000  60.6470000
  32.1320000  55.1520000  61.3250000  30.9770000  55.9640000  60.9470000
  32.1430000  54.2090000  60.7700000  32.1100000  54.9170000  62.3940000
  33.0660000  55.6810000  61.1130000  49.9160000  50.1040000  23.3100000
  49.6130000  48.8790000  25.6080000  49.7820000  49.5620000  24.3260000
  48.5710000  48.9250000  25.9390000  50.2350000  49.3410000  26.3800000
  49.8980000  47.8260000  25.5280000  41.7840000  27.5350000  31.5600000
  41.1140000  30.0700000  31.5920000  41.4880000  28.6570000  31.5740000
  40.1450000  30.2100000  32.0790000  41.0430000  30.4660000  30.5740000
  41.8560000  30.6620000  32.1350000  58.0670000  48.4490000  26.0250000
  56.8090000  46.5730000  24.6940000  57.5100000  47.6190000  25.4360000
  57.2950000  46.3860000  23.7310000  55.7710000  46.8620000  24.5000000
  56.8000000  45.6350000  25.2570000  63.1080000  32.9470000  29.8770000
  61.2640000  31.0840000  29.8750000  62.2920000  32.1230000  29.8760000
  60.4020000  31.3890000  29.2740000  60.9140000  30.8810000  30.8920000
  61.6540000  30.1500000  29.4590000  45.8590000  52.9270000  50.2690000
  46.4130000  52.8680000  47.7070000  46.1040000  52.9010000  49.1360000
  47.4480000  53.1740000  47.5260000  45.7560000  53.5440000  47.1510000
  46.2820000  51.8600000  47.3040000  51.9980000  45.6590000  54.4250000
  49.6040000  46.7120000  54.2320000  50.9390000  46.1250000  54.3390000
  48.8580000  46.0740000  54.7130000  49.3180000  46.8380000  53.1830000
  49.5710000  47.6940000  54.7120000  55.1060000  33.2390000  36.0880000
  52.5080000  33.5960000  36.0980000  53.9570000  33.3970000  36.0920000
  52.2290000  34.4400000  35.4610000  52.1480000  33.8010000  37.1110000
  51.9920000  32.7060000  35.7270000  28.9140000  55.2730000  33.0310000
  28.9710000  57.8890000  33.1950000  28.9390000  56.4300000  33.1040000
  29.0340000  58.2120000  34.2390000  28.0670000  58.3260000  32.7580000
  29.8360000  58.2930000  32.6620000  31.9470000  37.8010000  38.8450000
  32.0080000  36.6800000  41.2140000  31.9740000  37.3050000  39.8930000
  31.0050000  36.6310000  41.6480000  32.6460000  37.2500000  41.8980000
  32.4020000  35.6620000  41.1530000  43.6270000  21.6000000  50.8620000
  42.2640000  22.8980000  49.0360000  43.0240000  22.1740000  50.0540000
  41.5040000  23.5350000  49.4970000  41.7590000  22.2010000  48.3590000
  42.9230000  23.5340000  48.4380000  35.2490000  44.1000000  30.1470000
  35.9430000  46.2230000  28.7740000  35.5560000  45.0390000  29.5400000
  36.1640000  45.9590000  27.7350000  36.8360000  46.6890000  29.2030000
  35.1400000  46.9650000  28.7720000  22.8070000  51.9390000  27.8480000
  22.6130000  53.8770000  26.0930000  22.7210000  52.7960000  27.0720000
  23.4540000  53.8540000  25.3940000  22.6100000  54.8530000  26.5900000
  21.6880000  53.7880000  25.5160000  53.5630000  35.4370000  51.3490000
  51.0930000  36.2200000  51.7480000  52.4710000  35.7840000  51.5250000
  50.8440000  37.0670000  51.1020000  50.9470000  36.5320000  52.7870000
  50.3890000  35.4110000  51.5340000  54.7990000  47.4730000  33.2610000
  53.0410000  48.4680000  31.5890000  54.0210000  47.9130000  32.5210000
  52.0250000  48.1790000  31.8750000  53.2240000  48.1070000  30.5720000
  53.0920000  49.5600000  31.5750000  47.3890000  25.7630000  62.1490000
  48.3470000  26.8550000  59.9660000  47.8130000  26.2460000  61.1830000
  49.1420000  27.5680000  60.2040000  47.5620000  27.3900000  59.4220000
  48.7620000  26.0930000  59.3000000  58.8990000  22.3160000  25.9800000
  56.5980000  22.5510000  27.2140000  57.8810000  22.4200000  26.5260000
  56.0580000  21.6000000  27.2150000  55.9680000  23.3000000  26.7230000
  56.7440000  22.8600000  28.2540000  51.1360000  64.7560000  49.0120000
  49.1770000  63.8200000  47.5420000  50.2690000  64.3420000  48.3620000
  48.2210000  64.2570000  47.8440000  49.1010000  62.7330000  47.6420000
  49.3380000  64.0530000  46.4850000  39.9530000  63.0920000  23.3380000
  39.2350000  60.5730000  23.4510000  39.6350000  61.9780000  23.3880000
  38.2640000  60.4230000  22.9690000  39.1540000  60.2380000  24.4900000
  39.9670000  59.9370000  22.9450000  23.3810000  26.9930000  39.5490000
  23.2090000  26.4980000  42.1180000  23.3050000  26.7740000  40.6860000
  22.1650000  26.4780000  42.4420000  23.7300000  27.2670000  42.6980000
  23.6580000  25.5300000  42.3590000  43.0510000  32.2210000  25.6990000
  40.5740000  32.4360000  26.5290000  41.9550000  32.3160000  26.0670000
  40.3010000  33.4860000  26.6740000  40.4360000  31.9150000  27.4820000
  39.8810000  32.0030000  25.8030000  47.5470000  58.8230000  61.4710000
  47.0670000  58.6480000  58.8990000  47.3350000  58.7460000  60.3330000
  47.1560000  59.6280000  58.4190000  46.0560000  58.2720000  58.7170000
  47.7750000  57.9680000  58.4160000  45.6620000  51.5210000  29.8910000
  44.0040000  51.0730000  27.9100000  44.9290000  51.3230000  29.0140000
  43.0070000  51.4580000  28.1420000  43.9170000  50.0010000  27.7100000
  44.3510000  51.5610000  26.9940000  38.7480000  58.1600000  23.3610000
  37.2290000  56.0250000  23.2590000  38.0760000  57.2160000  23.3160000
  36.3050000  56.2320000  22.7120000  36.9610000  55.6900000  24.2660000
  37.7460000  55.2040000  22.7540000  25.1950000  24.9310000  40.3370000
  26.9630000  26.8010000  39.8340000  25.9770000  25.7580000  40.1150000
  26.8090000  27.2230000  38.8370000  27.9790000  26.3970000  39.8790000
  26.8880000  27.6130000  40.5620000  53.5450000  33.5480000  33.9300000
  51.2700000  32.4840000  33.1760000  52.5390000  33.0770000  33.5960000
  50.7110000  33.1730000  32.5370000  50.6470000  32.2440000  34.0430000
  51.4400000  31.5610000  32.6140000  30.8470000  58.9950000  58.8480000
  33.4640000  59.1440000  58.7890000  32.0050000  59.0610000  58.8220000
  33.8100000  60.0910000  59.2140000  33.8350000  59.0770000  57.7610000
  33.9130000  58.3300000  59.3660000  49.1410000  26.2400000  55.7690000
  51.3280000  27.3880000  54.8890000  50.1090000  26.7480000  55.3790000
  51.1250000  28.4120000  54.5620000  51.7420000  26.8360000  54.0390000
  52.0900000  27.4260000  55.6720000  47.3640000  57.5010000  21.6840000
  45.9130000  59.4830000  22.6000000  46.7220000  58.3780000  22.0890000
  45.4510000  60.0380000  21.7790000  46.5270000  60.1800000  23.1780000
  45.1150000  59.1130000  23.2510000  24.6750000  64.8000000  42.0210000
  22.2610000  64.0750000  41.3000000  23.6070000  64.4790000  41.7020000
  21.8280000  64.8000000  40.6040000  21.6000000  64.0030000  42.1700000
  22.2790000  63.0990000  40.8060000  57.8120000  43.4730000  52.1990000
  56.1040000  45.4620000  52.1970000  57.0560000  44.3530000  52.1980000
  55.2210000  45.2170000  52.7960000  55.7720000  45.6880000  51.1790000
  56.5580000  46.3650000  52.6150000  31.5470000  52.2490000  34.7770000
  33.7630000  51.2170000  35.7250000  32.5270000  51.7930000  35.1960000
  34.4700000  52.0030000  36.0030000  34.2440000  50.5760000  34.9790000
  33.5610000  50.6110000  36.6130000  44.0420000  64.7750000  21.7550000
  46.1490000  63.7630000  22.9430000  44.9740000  64.3270000  22.2810000
  46.4310000  62.8090000  22.4890000  45.9500000  63.5880000  24.0050000
  47.0030000  64.4420000  22.8650000  21.6000000  35.1900000  24.5910000
  22.3030000  37.4170000  23.3970000  21.9110000  36.1750000  24.0630000
  22.3210000  38.2490000  24.1070000  21.6000000  37.6680000  22.5970000
  23.3000000  37.3240000  22.9570000  59.6540000  44.0060000  34.8160000
  59.4340000  41.9710000  33.1760000  59.5570000  43.1060000  34.0900000
  60.3810000  41.4280000  33.1010000  59.1550000  42.3090000  32.1730000
  58.6680000  41.2720000  33.5250000  49.3340000  28.0450000  25.4240000
  49.8860000  30.4660000  24.5820000  49.5780000  29.1160000  25.0510000
  49.0270000  31.1300000  24.7180000  50.1450000  30.4590000  23.5190000
  50.7310000  30.8870000  25.1340000  55.4370000  28.1280000  39.0570000
  54.5050000  25.6900000  39.3120000  55.0250000  27.0490000  39.1700000
  54.3010000  25.2480000  38.3320000  53.5740000  25.6880000  39.8870000
  55.2260000  25.0510000  39.8300000  47.2500000  57.1100000  45.1380000
  45.9260000  59.3670000  45.2980000  46.6640000  58.1080000  45.2090000
  46.4910000  60.1830000  44.8400000  45.7340000  59.6320000  46.3430000
  44.9630000  59.2910000  44.7850000  39.6350000  45.4590000  21.8010000
  39.0530000  44.9200000  24.3000000  39.3780000  45.2200000  22.9060000
  37.9740000  44.9800000  24.4700000  39.5440000  45.6280000  24.9750000
  39.3820000  43.9120000  24.5670000  48.9180000  27.7080000  62.3910000
  49.7530000  30.0460000  63.2320000  49.2880000  28.7420000  62.7630000
  48.9180000  30.6490000  63.6000000  50.2400000  30.6000000  62.4220000
  50.4750000  29.9320000  64.0460000  34.5520000  59.2490000  62.5100000
  34.1500000  61.7000000  61.6680000  34.3740000  60.3330000  62.1380000
  35.0990000  62.1940000  61.4420000  33.6300000  62.2920000  62.4280000
  33.5400000  61.7040000  60.7600000  24.6500000  38.1980000  46.3240000
  22.1120000  38.7050000  46.7420000  23.5270000  38.4220000  46.5090000
  21.6140000  37.8440000  47.1980000  21.6010000  38.9350000  45.8020000
  21.9920000  39.5610000  47.4120000  24.4620000  32.2710000  46.2950000
  23.4240000  34.6760000  46.4000000  24.0030000  33.3350000  46.3420000
  22.3830000  34.6360000  46.7330000  23.4480000  35.1530000  45.4160000
  23.9800000  35.3090000  47.0980000  58.3300000  28.1140000  55.1080000
  56.5460000  28.9950000  53.4010000  57.5410000  28.5040000  54.3530000
  56.2640000  28.2100000  52.6930000  56.9380000  29.8420000  52.8300000
  55.6410000  29.3250000  53.9200000  55.7450000  24.4860000  60.1500000
  54.5210000  22.2370000  59.5910000  55.2030000  23.4910000  59.9030000
  54.2940000  21.6800000  60.5050000  55.1440000  21.6030000  58.9520000
  53.5800000  22.4260000  59.0660000  43.9740000  32.1920000  31.0210000
  43.8840000  29.8280000  29.8910000  43.9340000  31.1460000  30.5210000
  44.4960000  29.1090000  30.4440000  44.2590000  29.8730000  28.8630000
  42.8590000  29.4490000  29.8610000  51.4210000  59.9040000  36.3460000
  49.4050000  58.5100000  35.4130000  50.5290000  59.2870000  35.9330000
  49.1140000  58.8650000  34.4200000  48.5360000  58.5940000  36.0730000
  49.6690000  57.4520000  35.3320000  55.7040000  41.7870000  56.6430000
  55.4090000  41.2090000  59.1840000  55.5740000  41.5310000  57.7670000
  55.9690000  41.9100000  59.8100000  55.7720000  40.1980000  59.3970000
  54.3560000  41.2600000  59.4740000  50.7920000  32.6980000  54.1710000
  49.1340000  31.4250000  52.5890000  50.0580000  32.1350000  53.4710000
  48.5180000  32.1300000  52.0230000  48.4660000  30.7770000  53.1650000
  49.6790000  30.8020000  51.8740000  45.0680000  56.0970000  29.5960000
  45.1100000  53.9340000  28.1150000  45.0860000  55.1410000  28.9410000
  44.1550000  53.4040000  28.1750000  45.8990000  53.2520000  28.4450000
  45.2940000  54.1850000  27.0660000  27.8750000  26.9800000  60.9630000
  29.4810000  27.1600000  63.0280000  28.5850000  27.0600000  61.8760000
  30.4920000  26.8380000  62.7630000  29.1280000  26.5310000  63.8510000
  29.5370000  28.1910000  63.3880000  26.5400000  42.3690000  43.3040000
  23.9790000  42.8670000  43.0460000  25.4070000  42.5900000  43.1900000
  23.7840000  43.9420000  43.1100000  23.4050000  42.3700000  43.8330000
  23.6090000  42.5120000  42.0800000  43.8040000  31.7170000  33.7390000
  43.1050000  29.1940000  33.6050000  43.4950000  30.6010000  33.6800000
  43.5470000  28.6230000  34.4270000  43.4380000  28.7470000  32.6630000
  42.0180000  29.0880000  33.6640000  36.6490000  48.6200000  24.4280000
  35.4620000  50.0480000  22.5770000  36.1240000  49.2520000  23.6090000
  35.9250000  49.8810000  21.6000000  35.5280000  51.1160000  22.8070000
  34.4030000  49.7830000  22.5010000  34.7070000  60.1670000  38.4410000
  33.1700000  58.0490000  38.5980000  34.0270000  59.2300000  38.5100000
  32.2140000  58.2240000  38.0950000  32.9630000  57.7950000  39.6420000
  33.6480000  57.1850000  38.1270000  40.5470000  41.7480000  54.3100000
  42.3900000  40.1770000  53.3060000  41.3620000  41.0530000  53.8660000
  43.3770000  40.6450000  53.3690000  42.1840000  39.9590000  52.2530000
  42.4290000  39.2280000  53.8470000  56.5520000  41.7550000  21.7330000
  54.1530000  40.8030000  22.1940000  55.4910000  41.3340000  21.9370000
  53.9710000  39.9030000  21.6000000  53.3860000  41.5400000  21.9380000
  54.0340000  40.5430000  23.2500000  46.2170000  30.5090000  46.6370000
  48.1330000  29.3990000  45.2320000  47.0650000  30.0180000  46.0150000
  49.0990000  29.8580000  45.4630000  47.9480000  29.5170000  44.1600000
  48.2050000  28.3300000  45.4490000  44.1870000  47.4070000  38.1610000
  46.0380000  49.2060000  37.6990000  45.0060000  48.2030000  37.9570000
  46.7300000  48.8620000  36.9250000  46.6170000  49.4100000  38.6060000
  45.5920000  50.1460000  37.3630000  21.9690000  52.7300000  37.1370000
  24.0100000  51.1250000  36.7720000  22.8720000  52.0200000  36.9750000
  23.8510000  50.4860000  35.8980000  24.1570000  50.4790000  37.6430000
  24.9300000  51.6950000  36.6130000  64.5800000  29.4170000  42.0060000
  62.7970000  30.9470000  40.8400000  63.7910000  30.0940000  41.4900000
  61.9810000  30.3470000  40.4260000  63.2490000  31.5160000  40.0210000
  62.3700000  31.6580000  41.5520000  60.8700000  55.7980000  36.4260000
  62.5620000  54.3420000  37.8010000  61.6180000  55.1540000  37.0340000
  62.2840000  54.3170000  38.8590000  63.5750000  54.7480000  37.7250000
  62.5800000  53.3130000  37.4300000  55.7700000  35.0140000  31.9530000
  56.9390000  35.1740000  34.2940000  56.2870000  35.0850000  32.9890000
  57.8510000  34.5710000  34.3160000  56.2750000  34.8130000  35.0860000
  57.2100000  36.2090000  34.5240000  38.5030000  23.1310000  63.0920000
  40.2240000  24.3920000  61.5680000  39.2650000  23.6890000  62.4170000
  40.7180000  23.6980000  60.8820000  40.9960000  24.8790000  62.1730000
  39.7250000  25.1620000  60.9720000  48.1130000  43.6320000  54.4430000
  48.9650000  41.1610000  54.2330000  48.4900000  42.5390000  54.3500000
  48.3030000  40.5740000  53.5900000  49.0020000  40.6780000  55.2150000
  49.9700000  41.1310000  53.8030000  46.5430000  51.6040000  58.9590000
  45.9800000  49.0440000  58.9130000  46.2940000  50.4720000  58.9390000
  45.1650000  48.8370000  58.2140000  45.6740000  48.6950000  59.9050000
  46.8510000  48.4600000  58.6020000  57.1810000  39.0190000  58.0800000
  57.8350000  38.3490000  55.6310000  57.4700000  38.7230000  56.9960000
  56.9420000  38.1660000  55.0260000  58.4410000  37.4380000  55.6260000
  58.4130000  39.1440000  55.1510000  30.2380000  53.1180000  60.5470000
  28.6620000  54.6090000  59.0750000  29.5400000  53.7770000  59.8960000
  28.4520000  55.5610000  59.5710000  27.7080000  54.1040000  58.8910000
  29.1230000  54.8250000  58.1070000  47.5070000  44.1590000  51.6620000
  50.0610000  44.7010000  51.4170000  48.6370000  44.3990000  51.5540000
  50.5440000  44.7490000  52.3980000  50.2080000  45.6640000  50.9180000
  50.5670000  43.9320000  50.8270000  27.6690000  62.4390000  46.8760000
  28.8800000  60.9230000  48.6390000  28.2050000  61.7680000  47.6560000
  28.8550000  59.8730000  48.3320000  28.3970000  61.0020000  49.6180000
  29.9270000  61.2180000  48.7520000  32.1220000  34.9780000  64.3150000
  30.6620000  34.2320000  62.2680000  31.4760000  34.6480000  63.4090000
  30.2540000  33.2300000  62.4270000  31.2590000  34.2150000  61.3510000
  29.8250000  34.9200000  62.1160000  35.8770000  56.9450000  37.2550000
  35.5380000  55.9170000  39.6430000  35.7270000  56.4900000  38.3120000
  36.1700000  56.4240000  40.3790000  35.7970000  54.8530000  39.6490000
  34.4970000  56.0140000  39.9650000  41.0530000  49.5990000  25.4470000
  41.8270000  47.6780000  23.8390000  41.3960000  48.7490000  24.7360000
  41.7510000  47.9910000  22.7940000  41.2070000  46.7860000  23.9720000
  42.8670000  47.4010000  24.0350000  27.7200000  61.6580000  28.4220000
  26.6680000  60.1170000  26.5800000  27.2550000  60.9770000  27.6070000
  27.1230000  60.3120000  25.6040000  25.5910000  60.2930000  26.4940000
  26.8220000  59.0620000  26.8210000  45.1860000  27.0940000  51.8880000
  42.9270000  25.7690000  51.9960000  44.1870000  26.5080000  51.9360000
  43.1080000  24.7050000  52.1720000  42.3720000  25.8690000  51.0570000
  42.2930000  26.1440000  52.8050000  60.6810000  21.9070000  44.4210000
  59.6590000  24.3000000  44.7430000  60.2290000  22.9660000  44.5640000
  58.5980000  24.2380000  45.0050000  59.7480000  24.8880000  43.8240000
  60.1750000  24.8390000  45.5430000  21.8530000  42.9680000  59.9760000
  22.9410000  41.0790000  58.5200000  22.3340000  42.1320000  59.3320000
  22.1730000  40.4990000  57.9980000  23.5210000  40.3920000  59.1440000
  23.6130000  41.5050000  57.7690000  40.2840000  32.0430000  62.2690000
  38.8830000  34.1910000  62.8130000  39.6640000  32.9930000  62.5100000
  38.5100000  34.1620000  63.8410000  38.0220000  34.2740000  62.1420000
  39.4910000  35.0920000  62.6970000  61.9940000  34.2130000  44.7460000
  60.2750000  36.1930000  44.7450000  61.2330000  35.0890000  44.7460000
  59.2580000  35.8250000  44.9080000  60.2950000  36.7250000  43.7880000
  60.5070000  36.9110000  45.5370000  31.6270000  26.0440000  26.7980000
  30.2350000  23.8290000  26.9740000  31.0110000  25.0640000  26.8760000
  30.8570000  23.0060000  27.3360000  29.8310000  23.5450000  25.9970000
  29.3960000  23.9510000  27.6650000  41.7590000  57.3570000  61.7240000
  43.5930000  57.2500000  59.8530000  42.5700000  57.3100000  60.8960000
  43.1480000  56.9950000  58.8870000  44.3470000  56.4940000  60.0910000
  44.0990000  58.2140000  59.7490000  55.1980000  38.5250000  23.1910000
  55.6620000  38.5780000  25.7720000  55.4030000  38.5480000  24.3330000
  55.1770000  37.7340000  26.2710000  55.2790000  39.5020000  26.2160000
  56.7350000  38.5220000  25.9750000  37.8430000  51.6300000  23.5240000
  39.7690000  53.3000000  22.9120000  38.6950000  52.3690000  23.2530000
  40.7400000  52.7960000  22.9260000  39.8060000  54.1290000  23.6260000
  39.6190000  53.7190000  21.9130000  24.9090000  32.8320000  28.6120000
  26.8440000  33.2600000  26.8950000  25.7650000  33.0210000  27.8520000
  27.8000000  32.9030000  27.2890000  26.9430000  34.3280000  26.6780000
  26.6500000  32.7390000  25.9520000  21.6020000  25.7380000  52.8230000
  22.6720000  25.4690000  50.4450000  22.0750000  25.6190000  51.7710000
  22.2970000  26.2350000  49.7610000  22.4350000  24.4880000  50.0200000
  23.7610000  25.5620000  50.4960000  35.5150000  36.2410000  24.4130000
  37.4990000  37.5880000  25.4730000  36.3930000  36.8370000  24.8820000
  38.4310000  37.3990000  24.9330000  37.6480000  37.3020000  26.5190000
  37.3000000  38.6630000  25.4410000  50.4420000  55.7350000  34.1390000
  50.9030000  53.4360000  35.3140000  50.6460000  54.7180000  34.6590000
  50.3080000  52.6400000  34.8570000  50.6460000  53.4850000  36.3770000
  51.9580000  53.1620000  35.2320000  24.6750000  39.5270000  43.5040000
  22.1500000  40.1540000  43.1820000  23.5580000  39.8040000  43.3610000
  22.0460000  41.0330000  42.5390000  21.6790000  40.3790000  44.1440000
  21.6000000  39.3290000  42.7190000  49.5390000  32.7420000  57.5640000
  49.4320000  33.5560000  60.0540000  49.4920000  33.1020000  58.6660000
  50.4380000  33.6650000  60.4710000  48.8830000  32.8410000  60.6740000
  48.9280000  34.5240000  60.1260000  34.6020000  64.3080000  60.3190000
  35.7170000  63.4810000  58.0940000  35.0950000  63.9420000  59.3350000
  35.6900000  64.2640000  57.3310000  35.1940000  62.6040000  57.7000000
  36.7620000  63.2060000  58.2620000  40.3870000  62.5740000  30.1570000
  37.8170000  62.4080000  29.6640000  39.2500000  62.5010000  29.9390000
  37.6300000  61.7910000  28.7800000  37.3910000  63.4000000  29.4820000
  37.2870000  61.9610000  30.5090000  44.9120000  39.3710000  31.8090000
  43.2210000  41.3660000  32.0000000  44.1640000  40.2530000  31.8940000
  42.5050000  41.1930000  32.8090000  42.6590000  41.4890000  31.0690000
  43.7470000  42.3030000  32.2050000  27.2810000  31.6570000  56.1090000
  29.2130000  32.6970000  54.6740000  28.1360000  32.1180000  55.4740000
  29.7310000  33.4840000  55.2310000  28.8200000  33.1360000  53.7520000
  29.9480000  31.9350000  54.4000000  41.2650000  25.9570000  45.2520000
  38.9540000  26.6980000  46.2430000  40.2430000  26.2850000  45.6910000
  38.1280000  26.2550000  45.6790000  38.8460000  27.7870000  46.2050000
  38.8590000  26.3850000  47.2870000  26.6250000  29.5020000  33.0970000
  25.2640000  31.2760000  31.7280000  26.0230000  30.2870000  32.4920000
  25.7860000  32.2370000  31.7100000  24.2760000  31.4340000  32.1710000
  25.1240000  30.9460000  30.6950000  47.8670000  24.7430000  25.3190000
  47.5230000  22.2060000  25.8860000  47.7150000  23.6210000  25.5700000
  48.3340000  21.8360000  26.5210000  47.5040000  21.6030000  24.9730000
  46.5790000  22.0510000  26.4160000  56.0150000  29.3380000  24.5510000
  55.2320000  31.4500000  23.2070000  55.6690000  30.2720000  23.9560000
  55.9870000  31.7450000  22.4720000  55.0620000  32.2970000  23.8780000
  54.2990000  31.2470000  22.6730000  45.3210000  27.7050000  54.2600000
  45.5540000  30.3130000  54.3820000  45.4240000  28.8590000  54.3140000
  46.3360000  30.6660000  53.7030000  45.8140000  30.6340000  55.3960000
  44.6160000  30.8010000  54.1020000  52.5600000  33.4210000  31.3330000
  53.2620000  35.8570000  30.6660000  52.8710000  34.4980000  31.0380000
  53.1520000  36.5400000  31.5130000  52.6410000  36.2300000  29.8450000
  54.3060000  35.8850000  30.3400000  48.6560000  25.2550000  32.2660000
  49.0170000  22.7090000  31.7540000  48.8160000  24.1290000  32.0400000
  49.8640000  22.3140000  32.3220000  49.2180000  22.5510000  30.6900000
  48.1290000  22.1290000  32.0210000  58.8020000  59.3130000  28.2880000
  59.9080000  57.3950000  26.8840000  59.2910000  58.4650000  27.6670000
  59.1650000  56.6460000  26.5960000  60.6910000  56.8930000  27.4610000
  60.3610000  57.7930000  25.9710000  43.6340000  62.8070000  41.1910000
  45.8390000  62.8700000  42.6070000  44.6090000  62.8350000  41.8170000
  45.9470000  61.9570000  43.1990000  45.8360000  63.7220000  43.2950000
  46.7150000  62.9610000  41.9590000  58.5820000  54.9050000  38.7340000
  59.9580000  57.1330000  38.6190000  59.1900000  55.8910000  38.6830000
  59.4700000  57.9220000  39.1990000  60.0520000  57.4800000  37.5850000
  60.9650000  56.9900000  39.0210000  60.3220000  29.4820000  35.9150000
  59.8570000  26.9500000  35.4200000  60.1160000  28.3620000  35.6960000
  58.8360000  26.6790000  35.7030000  60.5460000  26.3110000  35.9800000
  59.9830000  26.7320000  34.3550000  40.8880000  40.8150000  64.5910000
  42.1360000  43.0270000  63.9410000  41.4400000  41.7940000  64.3030000
  43.1570000  42.8150000  63.6090000  42.1910000  43.7080000  64.7960000
  41.6160000  43.5430000  63.1290000  57.6870000  45.0550000  37.9500000
  57.4060000  46.0560000  35.5430000  57.5630000  45.4980000  36.8850000
  58.1780000  45.6720000  34.8700000  57.4860000  47.1480000  35.5640000
  56.4300000  45.7960000  35.1250000  22.8790000  29.5210000  51.9180000
  24.9410000  27.9180000  51.6920000  23.7910000  28.8120000  51.8180000
  25.8390000  28.3770000  52.1160000  25.1410000  27.6880000  50.6410000
  24.7610000  26.9760000  52.2180000  39.6910000  42.4670000  34.4560000
  39.1950000  43.5080000  36.8100000  39.4720000  42.9270000  35.4980000
  38.8110000  44.5280000  36.7120000  40.1040000  43.5450000  37.4190000
  38.4500000  42.9150000  37.3490000  44.1300000  57.9520000  49.5440000
  44.3160000  60.5630000  49.7000000  44.2120000  59.1070000  49.6130000
  43.4500000  60.9850000  50.2170000  44.3670000  61.0100000  48.7020000
  45.2160000  60.8570000  50.2490000  52.3550000  36.4410000  37.9930000
  54.2870000  38.0620000  38.7100000  53.2100000  37.1580000  38.3100000
  55.2540000  37.6980000  38.3510000  54.3380000  38.1480000  39.8000000
  54.1280000  39.0630000  38.2980000  30.4390000  34.1030000  31.6370000
  28.7990000  32.0580000  31.5920000  29.7130000  33.1990000  31.6170000
  27.9180000  32.2790000  30.9830000  28.4590000  31.8090000  32.6030000
  29.2890000  31.1750000  31.1720000  45.0220000  43.3470000  49.7690000
  43.0500000  44.0550000  51.3460000  44.1490000  43.6600000  50.4660000
  42.1850000  44.3840000  50.7630000  43.3520000  44.8780000  52.0010000
  42.7360000  43.2170000  51.9760000  27.7940000  48.2370000  32.1180000
  29.1420000  50.3630000  31.3860000  28.3900000  49.1780000  31.7940000
  28.6320000  51.2760000  31.7070000  29.2510000  50.3990000  30.2970000
  30.1430000  50.3600000  31.8270000  60.6790000  49.6130000  41.3290000
  59.2300000  51.7930000  41.1830000  60.0380000  50.5770000  41.2640000
  59.8650000  52.6730000  41.0430000  58.6480000  51.9360000  42.0990000
  58.5320000  51.7400000  40.3420000  47.0940000  46.3960000  31.6370000
  46.0850000  44.4230000  30.2340000  46.6480000  45.5230000  31.0160000
  45.2300000  43.9770000  30.7500000  46.8320000  43.6390000  30.0730000
  45.7460000  44.7750000  29.2560000  61.7470000  22.6990000  48.4310000
  63.9590000  23.8070000  49.2970000  62.7260000  23.1890000  48.8140000
  64.2010000  23.4580000  50.3050000  63.8620000  24.8970000  49.3290000
  64.8000000  23.5610000  48.6410000  28.3350000  38.3890000  53.7700000
  26.9860000  40.6370000  53.7280000  27.7390000  39.3840000  53.7520000
  27.5040000  41.3900000  53.1270000  26.8630000  41.0360000  54.7400000
  25.9920000  40.4860000  53.2990000  56.9360000  56.5930000  26.7800000
  57.0220000  54.2150000  25.6810000  56.9740000  55.5410000  26.2940000
  56.2910000  54.1340000  24.8710000  56.8000000  53.4370000  26.4180000
  58.0130000  54.0140000  25.2650000  54.3880000  54.4660000  21.6020000
  54.1160000  52.4230000  23.2230000  54.2670000  53.5620000  22.3190000
  54.8960000  51.6780000  23.0430000  53.1450000  51.9390000  23.0800000
  54.1860000  52.7430000  24.2660000  30.1520000  59.3690000  36.8790000
  29.9800000  57.6760000  38.8740000  30.0760000  58.6200000  37.7610000
  28.9770000  57.6910000  39.3100000  30.6970000  57.9290000  39.6610000
  30.1900000  56.6570000  38.5380000  42.7820000  30.1720000  47.1520000
  40.2520000  30.0920000  46.4720000  41.6630000  30.1370000  46.8510000
  40.1220000  29.5770000  45.5160000  39.8440000  31.1030000  46.3710000
  39.6620000  29.5620000  47.2260000  46.0460000  21.6000000  54.0800000
  47.8870000  22.1550000  52.2980000  46.8610000  21.8460000  53.2920000
  48.8100000  21.6050000  52.5070000  48.1210000  23.2240000  52.3000000
  47.5510000  21.8830000  51.2930000  39.7030000  55.9270000  28.9670000
  40.1700000  58.5050000  28.8620000  39.9090000  57.0680000  28.9210000
  40.2710000  58.9230000  29.8680000  39.3520000  59.0280000  28.3580000
  41.0940000  58.7110000  28.3140000  34.8940000  41.8650000  22.8760000
  36.3800000  41.5190000  25.0090000  35.5510000  41.7120000  23.8190000
  37.3440000  41.0760000  24.7430000  35.8850000  40.8550000  25.7240000
  36.5710000  42.4730000  25.5080000  39.5320000  54.7960000  37.9050000
  37.1780000  54.4440000  36.8060000  38.4910000  54.6400000  37.4190000
  36.9950000  55.1930000  36.0300000  36.3830000  54.5280000  37.5540000
  37.1080000  53.4540000  36.3460000  21.6000000  41.5650000  25.0100000
  24.0060000  42.5130000  25.4450000  22.6640000  41.9840000  25.2020000
  23.9910000  43.2560000  26.2470000  24.4040000  42.9920000  24.5450000
  24.6920000  41.7130000  25.7350000  28.5700000  27.6930000  55.4330000
  27.9280000  25.1680000  55.1370000  28.2860000  26.5760000  55.3020000
  28.3770000  24.5580000  55.9260000  28.2780000  24.7880000  54.1720000
  26.8430000  25.0350000  55.1810000  46.3070000  33.3230000  28.9010000
  46.8330000  30.7550000  28.9760000  46.5400000  32.1870000  28.9340000
  46.6060000  30.2840000  28.0150000  46.2370000  30.2580000  29.7480000
  47.8900000  30.5810000  29.1980000  35.7650000  56.2010000  32.1730000
  34.2330000  54.0730000  32.1720000  35.0870000  55.2600000  32.1730000
  33.3340000  54.2410000  31.5710000  33.9190000  53.8200000  33.1890000
  34.7640000  53.2120000  31.7560000  49.7950000  39.6810000  37.4700000
  48.3440000  39.4430000  35.3000000  49.1530000  39.5760000  36.5100000
  48.7960000  38.7290000  34.6060000  48.2520000  40.4050000  34.7860000
  47.3370000  39.0910000  35.5420000  33.4190000  25.1330000  45.2220000
  31.6410000  24.3770000  46.9940000  32.6320000  24.7990000  46.0060000
  31.8790000  24.7830000  47.9820000  31.6110000  23.2850000  47.0740000
  30.6420000  24.7240000  46.7160000  36.4470000  48.7440000  60.2700000
  38.0930000  50.6710000  60.9410000  37.1750000  49.5970000  60.5670000
  39.0120000  50.6220000  60.3490000  38.3660000  50.5990000  61.9990000
  37.6350000  51.6500000  60.7760000  62.3550000  31.7650000  53.7740000
  60.6220000  32.6880000  55.5110000  61.5880000  32.1730000  54.5420000
  61.1140000  32.9420000  56.4540000  59.8470000  31.9430000  55.7210000
  60.1320000  33.5880000  55.1300000  51.6750000  48.2500000  62.0100000
  50.5390000  49.5530000  63.9810000  51.1730000  48.8260000  62.8820000
  49.6850000  48.9950000  64.3760000  50.1790000  50.5310000  63.6450000
  51.2470000  49.7160000  64.7990000  33.5220000  61.5510000  52.1430000
  33.9800000  64.0400000  51.4590000  33.7240000  62.6520000  51.8400000
  34.9490000  64.3760000  51.8370000  33.2090000  64.7030000  51.8640000
  33.9840000  64.1500000  50.3700000  50.0570000  24.6390000  49.5400000
  51.8760000  23.3940000  48.1210000  50.8620000  24.0880000  48.9130000
  51.5840000  23.3480000  47.0680000  52.0170000  22.3700000  48.4810000
  52.8390000  23.9110000  48.1840000  55.1380000  47.6290000  36.9420000
  57.3890000  48.9720000  36.9040000  56.1340000  48.2240000  36.9260000
  57.3300000  49.8490000  37.5550000  57.6200000  49.3160000  35.8910000
  58.2200000  48.3490000  37.2480000  32.2860000  24.4300000  34.9680000
  31.2990000  22.5540000  33.4250000  31.8490000  23.6000000  34.2850000
  31.2470000  21.6000000  33.9570000  31.9210000  22.4140000  32.5360000
  30.2890000  22.8140000  33.0940000  41.1900000  38.8540000  39.2960000
  42.2050000  37.0100000  40.8600000  41.6390000  38.0380000  39.9880000
  41.9950000  37.2320000  41.9100000  43.2910000  36.9490000  40.7360000
  41.7810000  36.0280000  40.6290000  42.7300000  37.5470000  31.2770000
  42.7650000  36.1970000  29.0290000  42.7450000  36.9500000  30.2820000
  41.7560000  36.1020000  28.6170000  43.1630000  35.1900000  29.1870000
  43.3900000  36.6970000  28.2850000  22.8100000  52.3430000  55.5660000
  25.2860000  52.9500000  56.1760000  23.9050000  52.6110000  55.8360000
  25.3290000  53.5090000  57.1160000  25.7400000  53.5650000  55.3930000
  25.8910000  52.0460000  56.2910000  59.2470000  34.4500000  36.1580000
  59.3770000  32.1670000  37.4410000  59.3050000  33.4400000  36.7260000
  60.4100000  31.9340000  37.7160000  58.9970000  31.3500000  36.8200000
  58.7810000  32.2020000  38.3580000  42.5260000  33.9770000  61.7250000
  40.3950000  33.8050000  60.2080000  41.5840000  33.9010000  61.0540000
  40.6150000  34.1390000  59.1890000  39.5850000  34.4270000  60.6020000
  40.0360000  32.7730000  60.1560000  59.2590000  49.1460000  50.9720000
  58.5560000  51.6720000  50.9690000  58.9480000  50.2630000  50.9710000
  59.2530000  52.2690000  50.3730000  58.5480000  52.0750000  51.9870000
  57.5550000  51.7960000  50.5470000  28.6390000  52.0540000  55.7410000
  29.0250000  51.4920000  53.2100000  28.8100000  51.8050000  54.6210000
  28.3270000  52.0480000  52.5770000  28.8760000  50.4240000  53.0210000
  30.0420000  51.7520000  52.9040000  44.3580000  39.0610000  26.3520000
  43.8830000  39.3750000  23.7930000  44.1480000  39.2000000  25.2200000
  44.2480000  40.3460000  23.4460000  42.8090000  39.3220000  23.5870000
  44.3790000  38.5960000  23.2070000  23.0050000  28.5970000  26.5780000
  25.0980000  29.6800000  27.7270000  23.9310000  29.0760000  27.0860000
  25.4060000  29.1000000  28.6020000  24.8760000  30.7000000  28.0570000
  25.9430000  29.7240000  27.0350000  46.3490000  24.4740000  46.9680000
  46.1460000  22.5220000  48.7070000  46.2590000  23.6100000  47.7370000
  47.1100000  22.3250000  49.1850000  45.8130000  21.6000000  48.2200000
  45.4240000  22.7720000  49.4900000  54.8290000  63.4520000  56.1430000
  54.2810000  61.2200000  57.4040000  54.5870000  62.4640000  56.7010000
  54.9830000  61.0550000  58.2260000  54.3460000  60.3630000  56.7250000
  53.2700000  61.2460000  57.8200000  51.4630000  58.7330000  54.8920000
  51.1150000  58.3120000  52.3270000  51.3090000  58.5470000  53.7570000
  50.4180000  57.4860000  52.1600000  52.0630000  58.0620000  51.8420000
  50.7090000  59.2030000  51.8390000  47.1820000  44.8890000  22.8990000
  47.5850000  47.4620000  23.2070000  47.3600000  46.0270000  23.0360000
  46.6630000  47.9660000  23.5110000  47.9280000  47.9160000  22.2730000
  48.3420000  47.6480000  23.9740000  55.4470000  52.5390000  38.5230000
  57.6790000  52.7010000  37.1570000  56.4350000  52.6110000  37.9190000
  57.6250000  53.5060000  36.4170000  57.8800000  51.7650000  36.6260000
  58.5260000  52.9040000  37.8180000  28.8910000  57.3530000  44.3730000
  30.2470000  59.4190000  43.4980000  29.4910000  58.2670000  43.9860000
  29.8860000  60.3440000  43.9570000  30.1490000  59.5180000  42.4120000
  31.3100000  59.3160000  43.7340000  46.0140000  27.8490000  36.5510000
  45.6600000  25.5990000  37.8500000  45.8570000  26.8540000  37.1260000
  44.6510000  25.2100000  37.6860000  45.7970000  25.7450000  38.9260000
  46.3750000  24.8410000  37.5170000  41.3010000  41.5910000  28.5730000
  42.1220000  39.3040000  29.5590000  41.6640000  40.5790000  29.0090000
  42.3970000  38.6120000  28.7570000  41.3370000  38.8350000  30.1590000
  42.9980000  39.4480000  30.1980000  33.9340000  45.4940000  38.7480000
  33.9120000  43.1350000  39.8920000  33.9240000  44.4510000  39.2540000
  32.9040000  42.8740000  40.2250000  34.5730000  43.1200000  40.7640000
  34.2510000  42.3620000  39.1960000  49.0420000  39.2410000  26.5700000
  50.5320000  39.9720000  28.6000000  49.7010000  39.5640000  27.4680000
  51.2720000  39.2020000  28.8370000  49.9190000  40.1410000  29.4910000
  51.0670000  40.9000000  28.3760000  64.7810000  50.2190000  43.5890000
  63.5770000  48.0570000  42.7200000  64.2490000  49.2620000  43.2040000
  62.8910000  48.2960000  41.9030000  63.0010000  47.5850000  43.5210000
  64.3050000  47.3290000  42.3500000  39.4530000  35.6740000  27.0450000
  39.3600000  37.8860000  28.4500000  39.4120000  36.6530000  27.6670000
  39.3090000  37.6650000  29.5200000  38.4810000  38.4800000  28.1830000
  40.2500000  38.4970000  28.2720000  47.8180000  22.1780000  60.7400000
  45.2310000  22.3230000  61.1410000  46.6740000  22.2420000  60.9170000
  44.8580000  23.3260000  60.9150000  44.9860000  22.0960000  62.1840000
  44.6980000  21.6110000  60.5050000  39.1860000  52.9040000  25.3280000
  41.1970000  52.1310000  26.8230000  40.0760000  52.5620000  25.9890000
  42.0190000  51.7570000  26.2060000  40.8900000  51.3300000  27.5030000
  41.5750000  52.9620000  27.4260000  59.4790000  58.2050000  43.3580000
  59.7540000  55.5980000  43.3230000  59.6010000  57.0510000  43.3420000
  59.1310000  55.1510000  42.5430000  59.4590000  55.1630000  44.2830000
  60.7930000  55.3180000  43.1290000  46.3350000  55.1730000  59.0770000
  46.9840000  55.6080000  56.5740000  46.6220000  55.3660000  57.9700000
  47.2430000  54.6720000  56.0710000  47.8450000  56.2800000  56.5070000
  46.1530000  56.0670000  56.0310000  39.3620000  22.4930000  25.5150000
  38.3060000  24.8400000  26.0160000  38.8950000  23.5310000  25.7370000
  37.8030000  25.2380000  25.1300000  39.0760000  25.5560000  26.3200000
  37.5700000  24.7710000  26.8220000  57.2720000  31.3090000  45.9070000
  55.7170000  30.2520000  44.0800000  56.5840000  30.8420000  45.0990000
  55.9260000  30.6820000  43.0950000  54.6630000  30.4340000  44.3130000
  55.8690000  29.1710000  44.0170000  51.2460000  29.9830000  56.0920000
  50.3640000  28.0980000  57.6850000  50.8560000  29.1490000  56.7970000
  50.8380000  27.1390000  57.4540000  49.2810000  27.9750000  57.5800000
  50.5780000  28.3390000  58.7300000  42.6970000  51.3860000  50.7010000
  43.2330000  52.2840000  48.2970000  42.9340000  51.7830000  49.6370000
  43.3380000  53.3720000  48.3020000  42.4330000  52.0230000  47.5970000
  44.1660000  51.8550000  47.9200000  23.2480000  33.2970000  32.7330000
  25.3920000  34.7650000  33.0800000  24.1960000  33.9470000  32.8870000
  26.2980000  34.1790000  32.9010000  25.4350000  35.1550000  34.1030000
  25.3960000  35.6160000  32.3930000  61.5710000  29.5110000  63.3600000
  59.5580000  28.9490000  61.7780000  60.6800000  29.2630000  62.6600000
  59.5850000  27.8990000  61.4710000  59.5880000  29.5670000  60.8750000
  58.6040000  29.1310000  62.2820000  42.1650000  43.6080000  31.3950000
  43.3700000  45.9150000  31.0780000  42.6980000  44.6290000  31.2550000
  42.8320000  46.7100000  31.6030000  43.4240000  46.1840000  30.0180000
  44.3900000  45.8790000  31.4710000  26.8980000  21.9650000  29.5430000
  25.3330000  23.9370000  30.2740000  26.2060000  22.8370000  29.8670000
  25.7030000  24.4100000  31.1880000  24.3170000  23.5770000  30.4650000
  25.2800000  24.7020000  29.4940000  42.4710000  54.6370000  21.6500000
  40.7580000  56.4770000  22.3950000  41.7130000  55.4510000  21.9800000
  39.7650000  56.0440000  22.5500000  40.6730000  57.2600000  21.6350000
  41.0730000  56.9460000  23.3320000  33.1490000  43.3070000  37.2240000
  35.7050000  43.1900000  36.6510000  34.2800000  43.2550000  36.9700000
  36.3100000  43.5160000  37.5020000  35.9430000  43.8350000  35.7980000
  36.0000000  42.1690000  36.3960000  30.2450000  40.8890000  54.8620000
  31.8820000  42.4010000  53.4800000  30.9690000  41.5580000  54.2510000
  32.6400000  41.7940000  52.9770000  32.3950000  43.1150000  54.1320000
  31.3390000  42.9670000  52.7180000  25.9120000  59.0530000  38.7900000
  24.1600000  58.1430000  40.5150000  25.1370000  58.6500000  39.5530000
  23.8370000  57.1330000  40.2460000  23.2740000  58.7850000  40.5460000
  24.5870000  58.1060000  41.5210000  61.8840000  49.5110000  22.8680000
  60.2260000  47.4850000  22.7270000  61.1500000  48.6150000  22.8060000
  59.3440000  47.6600000  23.3510000  60.7070000  46.5640000  23.0690000
  59.8880000  47.3300000  21.6980000  34.5810000  38.2950000  32.4640000
  33.0060000  36.2200000  32.1670000  33.8840000  37.3770000  32.3330000
  32.0560000  36.3750000  32.6880000  33.4720000  35.3160000  32.5730000
  32.7890000  36.0440000  31.1100000  55.9400000  22.4160000  35.9330000
  58.0760000  22.9080000  34.4930000  56.8850000  22.6340000  35.2960000
  58.5850000  23.8080000  34.8480000  57.8100000  23.0590000  33.4420000
  58.7820000  22.0740000  34.5480000  56.6540000  55.2550000  41.3870000
  57.0930000  54.0280000  43.6620000  56.8480000  54.7120000  42.3930000
  57.1980000  54.7480000  44.4790000  58.0120000  53.4340000  43.6130000
  56.2670000  53.3540000  43.9070000  24.7830000  51.0390000  31.3680000
  24.5280000  52.4340000  33.5730000  24.6700000  51.6560000  32.3430000
  24.2130000  53.4580000  33.3510000  25.4780000  52.4810000  34.1160000
  23.7820000  51.9840000  34.2340000  28.1540000  31.6700000  59.0550000
  27.8550000  29.3630000  57.8440000  28.0210000  30.6490000  58.5190000
  27.9950000  28.5350000  58.5450000  28.5830000  29.2510000  57.0350000
  26.8530000  29.2780000  57.4130000  38.8940000  60.4730000  31.2820000
  38.1320000  57.9770000  31.0230000  38.5560000  59.3690000  31.1680000
  38.0280000  57.7100000  29.9670000  37.1660000  57.8130000  31.5120000
  38.8610000  57.2990000  31.4750000  47.5070000  53.5730000  45.0470000
  44.9680000  52.9480000  44.8520000  46.3840000  53.2960000  44.9610000
  44.3530000  53.6280000  45.4490000  44.7910000  51.9280000  45.2080000
  44.6320000  53.0080000  43.8130000  42.8440000  63.1750000  32.7520000
  45.4010000  63.7270000  32.5830000  43.9750000  63.4190000  32.6770000
  45.9780000  62.8300000  32.3370000  45.7770000  64.1230000  33.5310000
  45.5880000  64.4730000  31.8050000  31.3200000  44.3360000  42.3030000
  29.1290000  45.5760000  41.5730000  30.3510000  44.8840000  41.9800000
  28.2480000  44.9560000  41.7650000  29.1520000  45.8110000  40.5040000
  29.0110000  46.5140000  42.1230000  26.4980000  56.3390000  58.9220000
  27.4580000  58.7610000  58.6260000  26.9230000  57.4110000  58.7910000
  26.6680000  59.4600000  58.3340000  28.2320000  58.7810000  57.8530000
  27.9010000  59.1210000  59.5590000  32.6190000  32.5600000  56.4680000
  34.7570000  33.9680000  55.9000000  33.5650000  33.1830000  56.2170000
  35.4270000  33.4080000  55.2400000  35.3100000  34.2210000  56.8100000
  34.4860000  34.9000000  55.3960000  62.5490000  62.8670000  29.4990000
  60.1690000  62.9670000  30.5940000  61.4960000  62.9110000  29.9830000
  59.7130000  61.9730000  30.6260000  59.5060000  63.6270000  30.0250000
  60.2280000  63.3470000  31.6180000  38.2270000  51.7800000  35.3280000
  36.3620000  52.6030000  33.6790000  37.4020000  52.1440000  34.5980000
  36.2040000  53.6810000  33.7780000  35.4120000  52.1000000  33.8850000
  36.6390000  52.3940000  32.6420000  53.6690000  29.3230000  56.6220000
  56.2160000  29.2170000  57.2350000  54.7960000  29.2760000  56.8930000
  56.4340000  28.3330000  57.8410000  56.5160000  30.1020000  57.8050000
  56.8320000  29.1710000  56.3320000  39.3940000  53.9100000  64.7440000
  37.0220000  53.1350000  63.9370000  38.3440000  53.5670000  64.3870000
  36.5730000  53.8820000  63.2760000  36.3510000  52.9860000  64.7880000
  37.0880000  52.1910000  63.3870000  53.3980000  26.9800000  45.1010000
  50.9120000  27.5370000  45.7210000  52.2980000  27.2260000  45.3760000
  50.8090000  28.5870000  46.0110000  50.5720000  26.9190000  46.5580000
  50.2490000  27.3530000  44.8710000  52.6720000  53.6110000  28.7280000
  50.4830000  52.1680000  28.7540000  51.7030000  52.9730000  28.7400000
  50.5890000  51.3130000  29.4280000  50.2570000  51.7860000  27.7540000
  49.6290000  52.7620000  29.0910000  55.5140000  54.7610000  55.9120000
  54.0350000  56.2350000  54.3270000  54.8600000  55.4130000  55.2110000
  54.6600000  56.8550000  53.6770000  53.3850000  56.8980000  54.9070000
  53.4010000  55.6090000  53.6920000  40.2440000  22.9130000  34.4240000
  39.1990000  25.2330000  33.7880000  39.7820000  23.9390000  34.1430000
  39.9820000  25.9730000  33.5980000  38.5650000  25.6090000  34.5970000
  38.5860000  25.1490000  32.8870000  50.8460000  31.5130000  60.2020000
  52.6750000  30.0570000  61.3890000  51.6550000  30.8690000  60.7270000
  53.0270000  29.2600000  60.7280000  52.2750000  29.5940000  62.2970000
  53.5360000  30.6690000  61.6720000  55.0530000  56.4990000  50.7650000
  56.7760000  54.5530000  50.4200000  55.8150000  55.6380000  50.6120000
  57.7750000  54.8560000  50.7470000  56.8360000  54.2680000  49.3650000
  56.4850000  53.6690000  50.9940000  61.5140000  52.1710000  57.5220000
  58.8950000  52.1550000  57.3960000  60.3550000  52.1640000  57.4660000
  58.5310000  52.9770000  56.7730000  58.4570000  52.2650000  58.3930000
  58.5320000  51.2170000  56.9680000  33.2940000  63.5260000  23.5810000
  34.8460000  61.4670000  24.0540000  33.9810000  62.6150000  23.7900000
  34.8680000  60.7900000  23.1940000  34.4900000  60.9020000  24.9210000
  35.8710000  61.7900000  24.2570000  27.6880000  58.8320000  63.8090000
  30.2510000  58.2800000  63.7870000  28.8220000  58.5880000  63.7990000
  30.4540000  57.3970000  63.1740000  30.6160000  58.0830000  64.8000000
  30.8250000  59.1160000  63.3770000  27.2580000  48.6760000  29.5700000
  28.4690000  46.4430000  30.2230000  27.7940000  47.6880000  29.8590000
  27.8050000  45.5850000  30.0840000  28.7830000  46.4630000  31.2720000
  29.3580000  46.2880000  29.6060000  60.1340000  23.5850000  41.9260000
  57.7380000  22.6650000  42.4630000  59.0740000  23.1780000  42.1640000
  57.0720000  22.7900000  41.6050000  57.2990000  23.1960000  43.3140000
  57.7760000  21.6000000  42.7110000  51.8140000  21.7590000  52.4280000
  51.2890000  22.9260000  54.7170000  51.5820000  22.2750000  53.4410000
  52.1700000  22.9240000  55.3650000  50.4800000  22.4080000  55.2410000
  50.9830000  23.9650000  54.5630000  31.9500000  38.7880000  31.5830000
  33.7720000  38.1110000  29.8230000  32.7560000  38.4890000  30.8050000
  33.9970000  38.9480000  29.1550000  33.4290000  37.2710000  29.2120000
  34.7000000  37.8130000  30.3190000  32.0680000  44.8400000  25.5760000
  31.5580000  47.0220000  26.9380000  31.8420000  45.8050000  26.1790000
  31.2050000  47.8190000  26.2780000  32.4570000  47.3780000  27.4520000
  30.7870000  46.8380000  27.6920000  45.3290000  61.2860000  40.4140000
  47.5110000  59.8310000  40.4310000  46.2940000  60.6420000  40.4210000
  47.3770000  58.9230000  39.8350000  47.7720000  59.5330000  41.4510000
  48.3540000  60.3890000  40.0130000  47.6890000  30.8300000  31.7390000
  47.7230000  28.3960000  30.7640000  47.7040000  29.7540000  31.3080000
  48.2770000  28.3620000  29.8220000  46.7060000  28.0390000  30.5740000
  48.2000000  27.7040000  31.4640000  52.8140000  50.8610000  55.1170000
  53.9790000  51.9660000  57.1900000  53.3290000  51.3500000  56.0340000
  55.0200000  52.2130000  56.9650000  53.9680000  51.2880000  58.0490000
  53.4660000  52.8880000  57.4780000  38.9050000  50.7580000  32.6580000
  37.9580000  48.3300000  32.3680000  38.4860000  49.6840000  32.5290000
  36.9670000  48.2420000  32.8220000  38.6160000  47.5970000  32.8440000
  37.8710000  48.0710000  31.3090000  55.1950000  27.9100000  45.9650000
  57.2170000  26.4750000  45.1130000  56.0890000  27.2760000  45.5880000
  56.8670000  25.5580000  44.6320000  57.8720000  26.1950000  45.9440000
  57.8120000  27.0350000  44.3860000  28.9280000  41.1960000  33.0730000
  26.6900000  41.7010000  31.8040000  27.9380000  41.4200000  32.5120000
  25.9520000  42.1450000  32.4790000  26.2620000  40.7830000  31.3900000
  26.8590000  42.3990000  30.9790000  38.8660000  44.9350000  62.2030000
  37.7090000  42.6510000  62.7690000  38.3540000  43.9240000  62.4530000
  36.7240000  42.5860000  62.2970000  37.5760000  42.5390000  63.8490000
  38.3120000  41.8110000  62.4120000  26.0610000  58.2630000  43.6560000
  23.5250000  57.6010000  43.7340000  24.9390000  57.9700000  43.6910000
  22.9230000  58.2960000  43.1410000  23.1500000  57.6170000  44.7620000
  23.3730000  56.5940000  43.3330000  44.3830000  36.7670000  38.8340000
  45.3690000  39.1940000  38.9340000  44.8190000  37.8410000  38.8780000
  44.5960000  39.9170000  39.2100000  45.7780000  39.4880000  37.9620000
  46.1730000  39.2570000  39.6730000  27.3670000  28.6920000  64.3450000
  25.5340000  28.7090000  62.4690000  26.5560000  28.7000000  63.5150000
  24.5310000  28.7010000  62.9060000  25.6310000  27.8310000  61.8230000
  25.6250000  29.6020000  61.8440000  51.0150000  62.0680000  21.5960000
  48.7000000  61.0090000  22.2260000  49.9910000  61.5990000  21.8750000
  48.7130000  59.9260000  22.0720000  47.8990000  61.4310000  21.6100000
  48.4570000  61.2010000  23.2750000  43.8680000  60.2670000  38.9940000
  42.2160000  62.2680000  38.6160000  43.1370000  61.1520000  38.8270000
  42.4010000  63.0670000  39.3390000  41.1770000  61.9410000  38.7290000
  42.3330000  62.6840000  37.6120000  27.4380000  47.3930000  59.9820000
  27.3350000  48.0830000  62.5100000  27.3920000  47.6980000  61.1000000
  27.2840000  49.1700000  62.6140000  28.2230000  47.7310000  63.0450000
  26.4550000  47.6520000  62.9950000  29.8370000  35.5020000  29.4790000
  27.4250000  34.5450000  29.8550000  28.7700000  35.0780000  29.6450000
  27.2370000  34.3710000  30.9190000  27.2970000  33.5940000  29.3280000
  26.6680000  35.2420000  29.4860000  54.5210000  56.7030000  30.1140000
  55.4660000  54.2580000  30.1080000  54.9390000  55.6210000  30.1110000
  56.5460000  54.2570000  30.2830000  55.2780000  53.7700000  29.1460000
  54.9950000  53.6560000  30.8910000  40.8340000  61.4610000  21.6180000
  42.8890000  60.0520000  22.4350000  41.7430000  60.8370000  21.9790000
  43.3290000  59.4890000  21.6060000  42.5880000  59.3380000  23.2080000
  43.6630000  60.7000000  22.8540000  27.5930000  31.8710000  36.1590000
  29.9770000  32.3080000  35.1580000  28.6480000  32.0640000  35.7160000
  30.1890000  33.3800000  35.1110000  30.0530000  31.9020000  34.1440000
  30.7490000  31.8350000  35.7720000  34.9620000  53.5710000  61.2770000
  37.5120000  54.1170000  61.0090000  36.0900000  53.8130000  61.1590000
  38.1080000  53.5650000  61.7420000  37.6990000  55.1860000  61.1560000
  37.8660000  53.8450000  60.0100000  43.2110000  29.1170000  58.7640000
  45.5480000  28.6300000  57.6800000  44.2450000  28.9020000  58.2840000
  46.3140000  29.2930000  58.0920000  45.5140000  28.7830000  56.5970000
  45.8560000  27.5980000  57.8670000  39.6580000  56.1040000  39.8580000
  39.0030000  56.4210000  42.3770000  39.3690000  56.2440000  40.9730000
  38.9430000  55.4550000  42.8880000  38.0310000  56.9140000  42.4670000
  39.7440000  57.0350000  42.8980000  59.9330000  40.5690000  35.5960000
  62.5350000  40.2470000  35.5860000  61.0840000  40.4270000  35.5920000
  62.9550000  40.5000000  34.6080000  62.8000000  39.2090000  35.8110000
  63.0090000  40.8880000  36.3350000  57.3710000  37.8640000  46.5260000
  58.5450000  39.8030000  45.2080000  57.8900000  38.7220000  45.9430000
  58.3300000  39.7310000  44.1370000  59.6300000  39.7610000  45.3400000
  58.1970000  40.7790000  45.5590000  64.0400000  34.9920000  29.0790000
  61.5360000  35.2130000  29.8230000  62.9320000  35.0900000  29.4080000
  60.9630000  35.7930000  29.0940000  61.4610000  35.7150000  30.7920000
  61.0690000  34.2280000  29.9150000  53.9620000  42.9190000  63.2590000
  51.8890000  41.3990000  62.7420000  53.0450000  42.2460000  63.0300000
  52.0110000  40.4100000  63.1930000  51.7630000  41.2680000  61.6630000
  50.9720000  41.8430000  63.1400000  51.8100000  30.7980000  53.6190000
  53.4640000  30.2720000  51.6540000  52.5420000  30.5650000  52.7500000
  52.9440000  29.7730000  50.8300000  54.2740000  29.6170000  51.9910000
  53.9120000  31.1910000  51.2650000  29.4670000  21.6000000  37.5360000
  28.9170000  23.3140000  35.6290000  29.2240000  22.3580000  36.6920000
  28.0140000  23.8830000  35.8670000  28.7520000  22.7980000  34.6780000
  29.7390000  24.0220000  35.4930000  26.5740000  56.1330000  29.6820000
  25.8920000  53.8010000  30.6690000  26.2720000  55.1010000  30.1190000
  25.0250000  53.3940000  30.1410000  25.6340000  53.8880000  31.7290000
  26.7130000  53.0840000  30.5770000  45.2760000  45.6750000  55.4610000
  46.9370000  47.6360000  55.9790000  46.0110000  46.5420000  55.6900000
  46.4110000  48.4810000  56.4340000  47.4200000  47.9900000  55.0630000
  47.7190000  47.3110000  56.6710000  48.4180000  22.6190000  42.8690000
  50.0310000  24.6660000  43.1560000  49.1320000  23.5240000  42.9960000
  49.5170000  25.5010000  43.6390000  50.4000000  25.0090000  42.1840000
  50.8950000  24.3970000  43.7710000  40.1750000  61.0680000  28.3630000
  38.5840000  62.1910000  26.6080000  39.4710000  61.5650000  27.5870000
  37.8040000  61.4940000  26.2870000  39.1430000  62.5070000  25.7210000
  38.0960000  63.0730000  27.0330000  56.4770000  40.7130000  27.9240000
  54.6040000  42.1680000  29.0430000  55.6490000  41.3570000  28.4190000
  54.5600000  41.9830000  30.1200000  53.6240000  41.9340000  28.6170000
  54.7960000  43.2340000  28.8890000  57.4280000  36.4910000  53.6850000
  57.2200000  34.3250000  52.2230000  57.3360000  35.5320000  53.0380000
  56.3520000  34.3850000  51.5600000  57.1050000  33.4380000  52.8540000
  58.1120000  34.1860000  51.6040000  64.8000000  37.1220000  50.7980000
  64.0340000  36.9470000  48.2960000  64.4610000  37.0440000  49.6910000
  63.1080000  36.3710000  48.2120000  64.7980000  36.4510000  47.6890000
  63.8570000  37.9400000  47.8730000  35.0930000  57.4550000  25.2450000
  35.0070000  54.8390000  25.0960000  35.0550000  56.2980000  25.1790000
  35.8450000  54.3910000  25.6380000  35.0610000  54.5070000  24.0540000
  34.0790000  54.4550000  25.5270000  37.1790000  48.0620000  36.0640000
  36.8400000  50.3760000  37.2500000  37.0290000  49.0860000  36.5890000
  36.4310000  51.1140000  36.5530000  37.7900000  50.7600000  37.6330000
  36.1470000  50.2840000  38.0920000  59.1790000  42.4630000  36.6970000
  56.7010000  42.2270000  35.8720000  58.0830000  42.3590000  36.3320000
  56.1680000  41.4690000  36.4520000  56.6690000  41.9340000  34.8180000
  56.1640000  43.1740000  35.9770000  27.3710000  26.4820000  57.3400000
  26.4640000  24.0250000  57.4640000  26.9700000  25.3950000  57.3950000
  27.2810000  23.3040000  57.3630000  25.7430000  23.8350000  56.6630000
  25.9660000  23.8420000  58.4200000  44.8650000  61.7230000  37.4370000
  45.1500000  64.3080000  37.1020000  44.9910000  62.8670000  37.2890000
  45.7170000  64.5220000  36.1920000  45.6830000  64.7530000  37.9480000
  44.1760000  64.7990000  37.0180000  58.7380000  22.9140000  36.8530000
  57.8870000  22.6860000  39.3220000  58.3610000  22.8130000  37.9450000
  58.5060000  23.2770000  40.0030000  57.9210000  21.6420000  39.6510000
  56.8540000  23.0360000  39.4120000  26.7880000  35.7850000  23.4580000
  24.7070000  35.5250000  25.0320000  25.8670000  35.6700000  24.1540000
  24.9990000  35.1020000  25.9970000  23.9600000  34.8620000  24.5830000
  24.2340000  36.4940000  25.2150000  36.6250000  39.7760000  62.8150000
  36.4450000  37.1640000  62.6620000  36.5450000  38.6200000  62.7470000
  37.1780000  36.6850000  63.3180000  36.6280000  36.8210000  61.6390000
  35.4490000  36.8250000  62.9610000  39.8230000  25.7490000  28.4040000
  38.2020000  27.1690000  29.8970000  39.1060000  26.3770000  29.0650000
  37.4020000  27.6090000  29.2940000  38.7410000  27.9820000  30.3920000
  37.7410000  26.5470000  30.6710000  30.5950000  32.2420000  52.2350000
  28.2610000  31.0480000  52.2560000  29.5630000  31.7130000  52.2440000
  28.2310000  30.2650000  53.0200000  28.0520000  30.5840000  51.2870000
  27.4610000  31.7620000  52.4700000  33.2320000  48.5640000  29.1610000
  34.9950000  49.1870000  27.3230000  34.0120000  48.8400000  28.3480000
  35.0800000  50.2730000  27.2170000  34.7080000  48.7730000  26.3510000
  35.9820000  48.7930000  27.5810000  36.2970000  27.9500000  38.8560000
  36.6070000  26.4400000  36.7350000  36.4340000  27.2820000  37.9170000
  37.6680000  26.3050000  36.5060000  36.1250000  26.8910000  35.8620000
  36.1660000  25.4520000  36.8930000  28.8760000  55.4190000  39.9880000
  26.3060000  55.9370000  39.9920000  27.7390000  55.6480000  39.9900000
  25.7540000  55.1650000  40.5360000  25.9160000  55.9770000  38.9700000
  26.1040000  56.9000000  40.4700000  55.1500000  63.6610000  46.8350000
  53.9890000  61.7740000  48.2370000  54.6370000  62.8260000  47.4550000
  54.6050000  61.4930000  49.0970000  53.8290000  60.8790000  47.6280000
  53.0170000  62.1090000  48.6110000  38.9100000  48.9300000  29.2900000
  40.7380000  47.6590000  30.6750000  39.7190000  48.3680000  29.9030000
  40.2830000  47.0980000  31.4960000  41.4610000  48.3610000  31.1020000
  41.2840000  46.9520000  30.0420000  34.7850000  51.8890000  59.1560000
  32.1950000  51.6010000  59.4480000  33.6390000  51.7610000  59.2850000
  31.6580000  52.4450000  59.0070000  31.9270000  51.5440000  60.5070000
  31.8480000  50.6850000  58.9600000  31.4970000  49.0200000  30.6630000
  33.2950000  47.4770000  31.7860000  32.2930000  48.3370000  31.1600000
  32.9050000  47.0290000  32.7050000  34.1940000  48.0480000  32.0410000
  33.5880000  46.6670000  31.1120000  44.8500000  34.2090000  46.1730000
  43.7430000  32.1220000  45.0350000  44.3600000  33.2860000  45.6700000
  42.6550000  32.1500000  45.1470000  44.1080000  31.1940000  45.4850000
  43.9740000  32.0940000  43.9660000  41.9660000  47.6670000  33.3850000
  40.5770000  45.4430000  33.3640000  41.3510000  46.6830000  33.3760000
  41.0790000  44.6660000  33.9480000  40.4510000  45.0720000  32.3420000
  39.5830000  45.6010000  33.7920000  28.1580000  54.1860000  37.2140000
  29.3200000  51.8350000  37.2490000  28.6720000  53.1460000  37.2290000
  30.2370000  51.8630000  37.8440000  29.5810000  51.5160000  36.2350000
  28.6570000  51.0800000  37.6820000  48.4860000  52.7750000  41.0710000
  46.3560000  52.3010000  39.6170000  47.5440000  52.5650000  40.4280000
  45.5290000  52.9510000  39.9160000  46.0310000  51.2620000  39.7310000
  46.5610000  52.4780000  38.5580000  37.3380000  51.7030000  26.4820000
  38.0710000  54.0270000  27.4480000  37.6620000  52.7310000  26.9100000
  37.7290000  54.1450000  28.4810000  37.6500000  54.8450000  26.8550000
  39.1600000  54.1270000  27.4380000  44.5240000  29.7760000  49.6320000
  46.8830000  29.0500000  50.5190000  45.5680000  29.4550000  50.0250000
  47.0320000  27.9740000  50.3890000  46.9860000  29.2820000  51.5840000
  47.6780000  29.5710000  49.9790000  25.2970000  30.7150000  59.8350000
  23.7090000  29.3670000  58.2420000  24.5940000  30.1190000  59.1300000
  23.3690000  29.9930000  57.4120000  22.8270000  29.0110000  58.7830000
  24.2250000  28.4990000  57.8230000  51.6620000  34.6760000  47.4810000
  52.6710000  36.8720000  48.4970000  52.1090000  35.6470000  47.9300000
  53.6600000  37.0770000  48.0760000  52.7760000  36.7850000  49.5840000
  52.0270000  37.7300000  48.2860000  26.3530000  34.2050000  45.1710000
  28.9460000  34.3360000  45.5390000  27.5000000  34.2630000  45.3340000
  29.4460000  33.4680000  45.0980000  29.1870000  34.3610000  46.6060000
  29.3600000  35.2360000  45.0760000  42.1390000  52.7580000  44.8720000
  42.5880000  50.3360000  45.7700000  42.3370000  51.6870000  45.2700000
  43.3730000  50.3430000  46.5320000  42.9060000  49.6730000  44.9600000
  41.6840000  49.9140000  46.2190000  57.5110000  60.1960000  51.6760000
  59.6060000  60.0730000  50.1030000  58.4380000  60.1410000  50.9800000
  59.6100000  60.9070000  49.3960000  59.6070000  59.1410000  49.5290000
  60.5310000  60.1150000  50.6840000  53.2810000  29.3930000  54.4580000
  54.4470000  27.0830000  54.8770000  53.7970000  28.3710000  54.6440000
  55.2510000  26.9160000  54.1540000  53.7290000  26.2620000  54.7830000
  54.8790000  27.0410000  55.8810000  49.0910000  59.1610000  47.8190000
  51.3360000  57.8820000  48.2620000  50.0840000  58.5950000  48.0150000
  51.2750000  56.8520000  47.9010000  51.5630000  57.8550000  49.3320000
  52.1700000  58.3720000  47.7510000  37.8230000  57.5220000  48.2110000
  38.9940000  59.5750000  49.3460000  38.3410000  58.4300000  48.7130000
  38.3070000  60.0890000  50.0240000  39.3320000  60.2950000  48.5940000
  39.8650000  59.2550000  49.9250000  57.9360000  43.1210000  38.9510000
  55.3560000  43.5860000  38.9910000  56.7950000  43.3260000  38.9690000
  54.8350000  42.8340000  39.5910000  54.9400000  43.5600000  37.9790000
  55.1450000  44.5690000  39.4200000  57.2050000  42.4750000  29.4980000
  56.0750000  42.0350000  31.8220000  56.7050000  42.2800000  30.5260000
  56.8140000  42.0750000  32.6280000  55.6010000  41.0480000  31.8440000
  55.3060000  42.7850000  32.0290000  33.8660000  56.2610000  57.4690000
  31.3550000  55.5590000  57.7450000  32.7550000  55.9510000  57.5920000
  31.2300000  54.4860000  57.5720000  30.7210000  56.0950000  57.0320000
  30.9970000  55.7840000  58.7540000  64.8000000  60.9600000  29.2090000
  63.9360000  60.9110000  31.6840000  64.4180000  60.9390000  30.3040000
  63.7750000  61.9260000  32.0600000  64.6610000  60.4170000  32.3390000
  62.9900000  60.3690000  31.7550000  46.2790000  31.1370000  33.8700000
  46.5190000  28.5260000  33.8640000  46.3850000  29.9820000  33.8670000
  46.5410000  28.1400000  32.8410000  45.6790000  28.0570000  34.3870000
  47.4430000  28.2190000  34.3630000  36.0260000  30.1930000  42.8600000
  37.5080000  28.3740000  44.0300000  36.6810000  29.3890000  43.3780000
  38.4980000  28.7730000  44.2670000  37.6390000  27.5030000  43.3810000
  37.0450000  28.0370000  44.9620000  64.3640000  30.7840000  44.7650000
  62.1580000  30.8520000  46.1800000  63.3880000  30.8140000  45.3910000
  61.2880000  30.6270000  45.5560000  62.0110000  31.8420000  46.6230000
  62.1930000  30.1190000  46.9910000  43.2630000  31.2090000  52.4070000
  40.9730000  29.9430000  52.5680000  42.2500000  30.6490000  52.4780000
  41.0900000  28.8900000  52.2940000  40.2340000  30.3890000  51.8960000
  40.5760000  29.9860000  53.5860000  44.4100000  44.0970000  58.2970000
  46.8020000  43.0250000  58.3400000  45.4680000  43.6230000  58.3160000
  46.8180000  42.0860000  57.7780000  47.1140000  42.8110000  59.3680000
  47.5390000  43.6990000  57.8960000  44.3150000  24.8740000  58.3570000
  42.4930000  26.6760000  57.8050000  43.5090000  25.6710000  58.1130000
  42.9210000  27.4990000  57.2250000  42.0680000  27.0940000  58.7240000
  41.6770000  26.2390000  57.2230000  43.8900000  21.6020000  54.6960000
  41.5760000  22.7600000  54.2680000  42.8660000  22.1140000  54.5070000
  41.6630000  23.5280000  53.4950000  41.2050000  23.2360000  55.1810000
  40.8310000  22.0300000  53.9400000  43.6890000  27.2560000  49.9280000
  45.0110000  27.3890000  47.6670000  44.2740000  27.3150000  48.9280000
  45.5620000  26.4620000  47.4840000  45.7300000  28.2140000  47.6850000
  44.3300000  27.5500000  46.8270000  37.3030000  63.9080000  38.7640000
  36.3560000  63.2380000  36.4120000  36.8840000  63.6120000  37.7230000
  35.2620000  63.2600000  36.4130000  36.6760000  62.2280000  36.1370000
  36.7090000  63.9280000  35.6400000  31.6760000  44.0520000  23.5200000
  34.0030000  45.1950000  23.1270000  32.7060000  44.5580000  23.3460000
  34.0510000  46.1640000  23.6340000  34.1800000  45.3610000  22.0600000
  34.8140000  44.5710000  23.5130000  25.9810000  38.0160000  31.7310000
  23.3820000  38.3380000  31.8660000  24.8310000  38.1590000  31.7910000
  23.0360000  39.0380000  31.1000000  23.0890000  38.7330000  32.8440000
  22.8640000  37.3870000  31.7160000  46.9560000  37.5320000  38.0070000
  47.1040000  36.1170000  35.8050000  47.0210000  36.9060000  37.0330000
  47.6180000  36.6750000  35.0170000  46.1050000  35.8580000  35.4410000
  47.6540000  35.1870000  35.9760000  31.0260000  51.4210000  25.2070000
  33.2620000  52.1120000  24.0240000  32.0150000  51.7260000  24.6840000
  34.1270000  51.8140000  24.6240000  33.3060000  53.1960000  23.8790000
  33.3470000  51.6350000  23.0440000  52.6140000  42.1320000  39.4860000
  52.9450000  41.4530000  36.9750000  52.7600000  41.8310000  38.3750000
  52.2010000  40.7100000  36.6710000  53.9390000  41.0230000  36.8150000
  52.8420000  42.3230000  36.3200000  59.4640000  48.3200000  44.4340000
  60.2870000  46.4660000  42.7720000  59.8280000  47.5000000  43.6990000
  61.2800000  46.1040000  43.0540000  60.3440000  46.8570000  41.7510000
  59.6020000  45.6130000  42.7710000  22.3050000  43.7310000  47.2930000
  22.6970000  45.6770000  45.5800000  22.4780000  44.5920000  46.5350000
  21.8470000  46.3650000  45.5720000  22.8250000  45.2830000  44.5670000
  23.5930000  46.2470000  45.8380000  36.8170000  59.4380000  60.8350000
  35.4340000  57.2130000  60.9590000  36.2050000  58.4540000  60.8900000
  35.8990000  56.5040000  61.6500000  35.3730000  56.7380000  59.9750000
  34.4150000  57.4080000  61.3060000  58.9590000  38.6170000  29.3850000
  60.4740000  40.6820000  29.9480000  59.6300000  39.5310000  29.6340000
  60.8290000  40.6330000  30.9820000  59.9200000  41.6170000  29.8230000
  61.3470000  40.7150000  29.2910000  59.6160000  55.8070000  54.8190000
  61.9180000  57.0120000  55.1700000  60.6340000  56.3400000  54.9740000
  61.7780000  57.9870000  55.6470000  62.4230000  57.1720000  54.2120000
  62.5770000  56.4140000  55.8060000  25.2570000  42.8850000  34.4960000
  23.0580000  41.4660000  34.3340000  24.2840000  42.2580000  34.4240000
  23.1800000  40.5010000  34.8330000  22.7930000  41.2770000  33.2890000
  22.2220000  41.9900000  34.8060000  26.8880000  48.9510000  55.2070000
  25.9840000  51.0840000  53.9780000  26.4880000  49.8950000  54.6630000
  25.0150000  51.3860000  54.3840000  25.8590000  50.8920000  52.9070000
  26.6770000  51.9220000  54.0930000  56.3210000  58.0680000  41.7900000
  56.3640000  58.4390000  44.3850000  56.3400000  58.2320000  42.9380000
  55.6150000  57.8140000  44.8800000  56.1510000  59.4840000  44.6320000
  57.3440000  58.1860000  44.7990000  62.6550000  61.6670000  37.3600000
  61.3090000  61.4550000  39.6000000  62.0590000  61.5730000  38.3510000
  60.4950000  60.7310000  39.4980000  60.8730000  62.4180000  39.8850000
  61.9590000  61.1220000  40.4140000  51.7020000  46.8210000  48.5090000
  52.9130000  48.4290000  46.8290000  52.2380000  47.5320000  47.7650000
  52.4230000  48.4110000  45.8510000  53.9580000  48.1320000  46.6910000
  52.8990000  49.4590000  47.1970000  48.2890000  35.2350000  38.3580000
  46.1310000  34.4410000  39.6170000  47.3340000  34.8840000  38.9150000
  45.9430000  35.0630000  40.4970000  46.2350000  33.4030000  39.9510000
  45.2550000  34.5010000  38.9650000  34.4850000  40.6970000  61.7170000
  33.9420000  38.4210000  60.5340000  34.2450000  39.6900000  61.1930000
  33.2970000  38.5780000  59.6650000  33.4290000  37.7390000  61.2190000
  34.8590000  37.9320000  60.1930000  28.0050000  49.2700000  48.2720000
  29.4760000  47.1000000  48.2180000  28.6560000  48.3100000  48.2480000
  28.9080000  46.2360000  48.5750000  30.3590000  47.2120000  48.8540000
  29.8160000  46.8850000  47.2000000  51.7350000  43.0550000  30.7830000
  53.1340000  44.6450000  32.3290000  52.3540000  43.7580000  31.4670000
  52.4830000  45.3540000  32.8490000  53.8600000  45.2170000  31.7430000
  53.6820000  44.0720000  33.0830000  48.2180000  43.5360000  34.9680000
  46.5820000  41.7930000  36.0440000  47.4940000  42.7650000  35.4440000
  47.1360000  41.0190000  36.5820000  45.9740000  41.3040000  35.2760000
  45.9050000  42.2800000  36.7520000  46.4670000  61.5460000  24.9010000
  45.0910000  60.7310000  26.9780000  45.8580000  61.1850000  25.8200000
  44.3810000  61.4990000  27.3000000  45.7530000  60.5060000  27.8200000
  44.5260000  59.8250000  26.7400000  40.7290000  52.2620000  51.1860000
  39.9570000  49.8670000  51.9230000  40.3880000  51.2030000  51.5120000
  38.9990000  49.9130000  52.4500000  40.6920000  49.4100000  52.5930000
  39.8360000  49.2130000  51.0550000  44.1760000  62.1230000  63.6110000
  46.2340000  60.5010000  63.6950000  45.0860000  61.4050000  63.6490000
  45.9470000  59.4920000  63.3840000  46.6400000  60.4400000  64.7100000
  47.0300000  60.8470000  63.0310000  50.3780000  45.7990000  26.6760000
  52.4310000  47.4260000  26.5670000  51.2860000  46.5190000  26.6280000
  52.5060000  48.0210000  27.4820000  52.3370000  48.1150000  25.7210000
  53.3640000  46.8680000  26.4470000  28.0930000  30.1240000  25.6660000
  28.8050000  32.1030000  24.1000000  28.4080000  31.0000000  24.9730000
  28.2640000  33.0180000  24.3580000  28.5930000  31.8660000  23.0530000
  29.8760000  32.3050000  24.1910000  36.3210000  45.6670000  62.1000000
  35.5240000  44.3880000  59.9540000  35.9690000  45.1010000  61.1500000
  35.0760000  45.0790000  59.2340000  34.7770000  43.6300000  60.2080000
  36.3640000  43.8860000  59.4650000  54.1490000  57.6730000  35.0040000
  53.3300000  57.1310000  32.5730000  53.7870000  57.4340000  33.9280000
  53.6450000  57.9110000  31.8730000  52.2380000  57.0630000  32.5360000
  53.7410000  56.1790000  32.2270000  51.1050000  46.1380000  28.8080000
  48.8390000  44.9210000  29.3170000  50.1020000  45.5990000  29.0330000
  47.9990000  45.6180000  29.2480000  48.8440000  44.4930000  30.3240000
  48.6650000  44.1090000  28.6040000  31.3980000  43.0240000  28.1610000
  30.0580000  41.3290000  29.6460000  30.8050000  42.2740000  28.8180000
  30.0710000  40.3290000  29.2030000  29.0140000  41.6420000  29.7470000
  30.4910000  41.2620000  30.6480000  25.2300000  36.9720000  27.1330000
  25.3060000  39.0270000  28.7600000  25.2630000  37.8810000  27.8530000
  24.6630000  38.8590000  29.6290000  24.9640000  39.9360000  28.2550000
  26.3240000  39.2010000  29.1190000  34.5800000  63.4930000  31.5170000
  32.0200000  62.9860000  31.2630000  33.4470000  63.2690000  31.4050000
  31.5450000  63.7080000  30.5920000  31.5140000  63.0400000  32.2330000
  31.8600000  61.9850000  30.8530000  37.0590000  31.8450000  61.5050000
  38.4610000  29.6300000  61.5700000  37.6790000  30.8650000  61.5340000
  39.4120000  29.7870000  62.0870000  38.6790000  29.2780000  60.5570000
  37.9160000  28.8400000  62.0940000  43.4630000  58.3890000  41.9450000
  41.8080000  58.6530000  43.9610000  42.7310000  58.5060000  42.8370000
  42.1080000  59.4850000  44.6050000  41.7870000  57.7440000  44.5690000
  40.7920000  58.8480000  43.6070000  52.1790000  54.0770000  62.6560000
  53.2660000  51.8650000  63.5500000  52.6600000  53.0980000  63.0510000
  54.2150000  52.0730000  64.0520000  53.4620000  51.1680000  62.7290000
  52.6050000  51.3680000  64.2660000  62.1340000  44.1500000  33.5340000
  61.8670000  45.3860000  31.2370000  62.0160000  44.6970000  32.5180000
  60.8570000  45.2520000  30.8380000  62.5770000  44.9960000  30.5000000
  62.0490000  46.4580000  31.3480000  56.9110000  24.9660000  29.5790000
  54.7500000  23.5050000  29.8470000  55.9550000  24.3200000  29.6970000
  53.9170000  23.9360000  29.2840000  54.4520000  23.4410000  30.8990000
  54.9190000  22.4890000  29.4800000  25.4260000  37.7740000  22.6160000
  24.3870000  40.1790000  22.7270000  24.9660000  38.8380000  22.6650000
  24.9800000  40.8870000  22.1410000  24.3510000  40.5390000  23.7600000
  23.3670000  40.1810000  22.3310000  41.2460000  58.7460000  57.1120000
  41.2650000  59.8750000  59.4780000  41.2540000  59.2450000  58.1590000
  42.2880000  60.1020000  59.7930000  40.8170000  59.2160000  60.2280000
  40.6980000  60.8110000  59.4670000  25.3390000  32.4910000  62.5750000
  25.1570000  34.7810000  63.8380000  25.2580000  33.5040000  63.1340000
  26.1490000  35.2000000  64.0300000  24.6490000  34.6560000  64.8000000
  24.5910000  35.5070000  63.2480000  55.4080000  30.3290000  47.5400000
  53.4310000  28.6900000  48.0670000  54.5330000  29.6040000  47.7730000
  53.6810000  28.0370000  48.9080000  53.2070000  28.0590000  47.2010000
  52.5240000  29.2450000  48.3260000  45.9110000  43.8290000  38.3290000
  43.4770000  44.0540000  37.3800000  44.8340000  43.9290000  37.9090000
  43.0260000  43.0690000  37.2290000  43.4810000  44.5770000  36.4190000
  42.8410000  44.6160000  38.0700000  35.7350000  25.6440000  30.6160000
  34.0700000  24.1600000  29.2390000  34.9990000  24.9880000  30.0070000
  33.7720000  23.2760000  29.8110000  34.5320000  23.8210000  28.3060000
  33.1660000  24.7220000  28.9850000  48.2290000  35.9380000  32.1680000
  48.1470000  38.4380000  31.3830000  48.1920000  37.0440000  31.8210000
  47.1150000  38.7570000  31.2080000  48.7070000  38.5720000  30.4520000
  48.5820000  39.0980000  32.1390000  61.5290000  57.3670000  48.8170000
  60.1480000  55.2080000  48.2660000  60.9180000  56.4120000  48.5730000
  60.6360000  54.3190000  48.6750000  60.0500000  55.0750000  47.1840000
  59.1420000  55.2700000  48.6930000  43.2650000  61.0590000  46.4660000
  43.7030000  63.3860000  47.5910000  43.4590000  62.0890000  46.9630000
  42.7600000  63.8920000  47.8180000  44.2850000  64.0350000  46.9290000
  44.2590000  63.2680000  48.5250000  57.7530000  30.4650000  47.9130000
  59.4130000  28.7350000  48.9750000  58.4880000  29.7000000  48.3830000
  59.3500000  28.7550000  50.0670000  60.4450000  28.9610000  48.6900000
  59.1830000  27.7200000  48.6400000  49.5170000  63.5900000  39.4880000
  47.3600000  62.5540000  38.4150000  48.5630000  63.1310000  39.0130000
  47.4570000  61.4680000  38.3190000  47.1850000  62.9680000  37.4170000
  46.4800000  62.7640000  39.0290000  36.7560000  46.5940000  59.2470000
  39.1500000  45.5320000  59.1090000  37.8150000  46.1240000  59.1860000
  39.3560000  44.9210000  59.9920000  39.9170000  46.3100000  59.0460000
  39.2410000  44.8940000  58.2250000  45.4160000  28.7370000  45.3270000
  43.0170000  28.3910000  44.3270000  44.3550000  28.5840000  44.8840000
  42.7360000  27.3340000  44.3490000  42.9760000  28.7320000  43.2880000
  42.2730000  28.9520000  44.8980000  33.5660000  27.9100000  40.8190000
  31.7150000  28.9560000  39.2830000  32.7470000  28.3730000  40.1400000
  32.0440000  29.9180000  38.8790000  30.7910000  29.1220000  39.8460000
  31.4870000  28.2940000  38.4430000  51.6060000  51.6750000  47.1680000
  53.2190000  52.5850000  49.0250000  52.3200000  52.0770000  47.9900000
  53.9290000  53.3040000  48.6050000  53.7900000  51.7680000  49.4780000
  52.6560000  53.0860000  49.8170000  40.1130000  29.3540000  55.6470000
  39.6350000  29.1170000  58.2140000  39.9020000  29.2490000  56.7830000
  40.2360000  28.3130000  58.6490000  38.5800000  28.8880000  58.3940000
  39.8750000  30.0440000  58.7420000  60.1500000  41.0610000  61.5940000
  59.2330000  42.7470000  63.3810000  59.7440000  41.8070000  62.3850000
  58.3470000  42.3420000  63.8790000  58.9560000  43.6970000  62.9130000
  59.9880000  42.9520000  64.1450000  29.5890000  61.9330000  56.5640000
  31.6990000  60.4230000  56.1860000  30.5220000  61.2650000  56.3970000
  31.5880000  59.4640000  56.7000000  32.6000000  60.9120000  56.5680000
  31.8480000  60.2230000  55.1210000  28.3670000  26.9000000  33.3470000
  29.4740000  29.1620000  34.0770000  28.8570000  27.9010000  33.6700000
  28.8350000  30.0110000  33.8140000  30.4410000  29.2990000  33.5820000
  29.6400000  29.1840000  35.1580000  38.2250000  26.5610000  52.3030000
  37.9030000  24.9380000  54.3370000  38.0820000  25.8430000  53.2030000
  37.1560000  24.1720000  54.1100000  37.5670000  25.4870000  55.2230000
  38.8410000  24.4350000  54.5860000  47.2460000  63.4080000  25.7730000
  45.4710000  63.8560000  27.6500000  46.4610000  63.6060000  26.6040000
  45.6760000  64.8000000  28.1630000  45.4820000  63.0550000  28.3960000
  44.4630000  63.9110000  27.2270000  27.4320000  33.6170000  34.7010000
  26.0190000  34.8570000  36.5290000  26.8070000  34.1660000  35.5100000
  25.9370000  35.9240000  36.3000000  26.4840000  34.7570000  37.5150000
  25.0090000  34.4430000  36.5870000  44.1720000  57.2300000  44.2190000
  43.4270000  57.4810000  46.7210000  43.8420000  57.3410000  45.3260000
  43.1170000  56.5160000  47.1330000  42.5840000  58.1730000  46.8080000
  44.2460000  57.8650000  47.3340000  30.3220000  55.7390000  51.9790000
  31.6820000  54.8120000  54.0210000  30.9240000  55.3290000  52.8820000
  32.0660000  55.6310000  54.6360000  32.5330000  54.2140000  53.6820000
  31.0520000  54.1790000  54.6520000  30.9590000  45.9620000  44.8300000
  28.3500000  45.7040000  44.8950000  29.8050000  45.8480000  44.8580000
  28.0580000  44.8660000  45.5340000  27.9520000  45.5220000  43.8920000
  27.8800000  46.6100000  45.2870000  53.3250000  59.1860000  39.0030000
  50.7590000  59.6950000  39.1840000  52.1890000  59.4110000  39.0830000
  50.3920000  60.1740000  38.2720000  50.5540000  60.3640000  40.0260000
  50.1890000  58.7740000  39.3360000  39.8740000  38.4470000  48.5370000
  42.1060000  37.9190000  49.8080000  40.8620000  38.2140000  49.0990000
  42.9400000  38.4820000  49.3790000  42.3470000  36.8540000  49.7440000
  42.0240000  38.1860000  50.8650000  54.9680000  61.6030000  44.9710000
  52.4650000  61.0160000  44.4560000  53.8610000  61.3440000  44.7430000
  51.9280000  61.8940000  44.0860000  51.9560000  60.6610000  45.3570000
  52.3980000  60.2320000  43.6970000  29.8060000  48.1940000  52.7980000
  27.4940000  47.4230000  51.8310000  28.7830000  47.8530000  52.3700000
  27.0130000  48.2350000  51.2780000  26.8190000  47.1130000  52.6350000
  27.6200000  46.5770000  51.1490000  57.9390000  30.1920000  22.3660000
  59.9500000  28.5800000  22.8470000  58.8290000  29.4790000  22.5790000
  60.6550000  29.0360000  23.5490000  60.4920000  28.3480000  21.9250000
  59.6000000  27.6390000  23.2810000  29.1070000  36.8050000  64.2650000
  30.6210000  38.0520000  62.5250000  29.7770000  37.3570000  63.4950000
  31.4590000  37.4210000  62.2160000  31.0290000  38.9730000  62.9540000
  30.0490000  38.3180000  61.6320000  32.0330000  47.2500000  50.4160000
  33.9610000  45.7250000  51.3280000  32.8860000  46.5760000  50.8200000
  34.4430000  46.1850000  52.1950000  34.7250000  45.5640000  50.5600000
  33.5740000  44.7490000  51.6320000  48.6600000  47.9870000  38.3280000
  47.1720000  46.0160000  37.4480000  48.0020000  47.1150000  37.9390000
  47.6270000  45.0500000  37.6850000  47.0480000  46.0770000  36.3620000
  46.1780000  46.0450000  37.9050000  52.8570000  32.7660000  53.2160000
  51.6230000  32.7350000  50.9030000  52.3110000  32.7520000  52.1930000
  51.5910000  31.7220000  50.4920000  52.1350000  33.3790000  50.1810000
  50.5940000  33.0920000  51.0070000  43.3990000  50.4590000  63.2610000
  42.9280000  47.9630000  62.6120000  43.1910000  49.3550000  62.9740000
  42.0870000  47.8940000  61.9160000  42.6850000  47.3690000  63.4990000
  43.8030000  47.5140000  62.1330000  30.7240000  34.2140000  41.2210000
  29.5310000  35.7270000  39.4420000  30.1960000  34.8840000  40.4340000
  28.9970000  35.1170000  38.7080000  30.2590000  36.3440000  38.9060000
  28.8080000  36.3940000  39.9200000  41.9370000  45.4430000  48.6060000
  43.1440000  43.8880000  46.8740000  42.4710000  44.7550000  47.8390000
  43.9040000  44.4430000  46.3160000  42.4280000  43.4770000  46.1550000
  43.6360000  43.0520000  47.3790000  31.5080000  42.6870000  56.1020000
  33.4560000  42.9490000  57.8370000  32.3700000  42.8030000  56.8690000
  34.4280000  42.8050000  57.3550000  33.3630000  42.2130000  58.6410000
  33.4450000  43.9460000  58.2870000  29.5410000  25.1330000  59.1580000
  31.4630000  24.3580000  57.5520000  30.3910000  24.7900000  58.4480000
  32.4110000  24.8320000  57.8220000  31.2340000  24.6240000  56.5150000
  31.5990000  23.2740000  57.6020000  44.8410000  40.8370000  60.0450000
  45.2650000  38.2880000  60.4850000  45.0290000  39.7090000  60.2400000
  46.2900000  38.1180000  60.8290000  45.1120000  37.7040000  59.5720000
  44.5830000  37.9060000  61.2500000  43.7190000  59.2140000  51.7690000
  45.4790000  60.0940000  53.5020000  44.4980000  59.6030000  52.5360000
  46.0450000  60.9340000  53.0890000  46.1890000  59.3050000  53.7700000
  44.9870000  60.4330000  54.4180000  26.6170000  41.4410000  27.9540000
  27.9210000  39.3330000  27.1010000  27.1940000  40.5080000  27.5770000
  27.2530000  38.6540000  26.5620000  28.3610000  38.7820000  27.9390000
  28.7300000  39.6230000  26.4240000  41.2810000  27.5900000  61.8680000
  43.0180000  27.6860000  63.8300000  42.0490000  27.6320000  62.7360000
  43.6070000  28.6070000  63.7830000  43.7080000  26.8380000  63.7810000
  42.5120000  27.6560000  64.8000000  46.2560000  31.8150000  35.9920000
  48.6520000  30.7870000  35.7160000  47.3160000  31.3600000  35.8700000
  49.4020000  31.4100000  36.2100000  48.9210000  30.7050000  34.6580000
  48.6990000  29.7860000  36.1550000  38.7810000  28.5820000  51.4450000
  37.2580000  30.5440000  50.6030000  38.1070000  29.4500000  51.0730000
  36.7410000  31.0220000  51.4410000  36.5020000  30.1760000  49.9030000
  37.8530000  31.3060000  50.0910000  24.3220000  36.5950000  56.2220000
  24.7920000  37.2160000  53.7180000  24.5300000  36.8700000  55.1140000
  25.8610000  37.1460000  53.4940000  24.4660000  38.2390000  53.5030000
  24.2590000  36.5410000  53.0430000  25.4680000  43.6800000  40.3260000
  23.9580000  44.8160000  38.5070000  24.8000000  44.1820000  39.5210000
  22.9330000  44.9350000  38.8720000  23.9260000  44.2110000  37.5950000
  24.3430000  45.8050000  38.2450000  46.0040000  48.5750000  28.7240000
  47.9520000  50.3250000  28.5860000  46.8660000  49.3490000  28.6630000
  47.6030000  51.3190000  28.8790000  48.3460000  50.3890000  27.5670000
  48.7750000  50.0440000  29.2510000  27.6210000  56.4030000  26.4680000
  25.1050000  56.5670000  27.1870000  26.5080000  56.4750000  26.7860000
  25.0170000  56.9210000  28.2180000  24.6170000  55.5890000  27.1210000
  24.5600000  57.2620000  26.5420000  47.9060000  30.0370000  56.0410000
  48.3750000  30.3360000  58.6030000  48.1140000  30.1690000  57.1740000
  49.2920000  30.9100000  58.7660000  48.4910000  29.3640000  59.0940000
  47.5520000  30.8660000  59.0900000  25.3810000  49.9760000  45.3880000
  24.2150000  52.2160000  46.0930000  24.8650000  50.9670000  45.7000000
  23.2900000  52.0170000  46.6410000  23.9660000  52.8180000  45.2130000
  24.8700000  52.8100000  46.7360000  39.0380000  47.0660000  35.3780000
  41.0580000  45.9270000  36.6000000  39.9320000  46.5620000  35.9190000
  41.3300000  44.9880000  36.1100000  40.8080000  45.7060000  37.6430000
  41.9360000  46.5800000  36.5930000  41.2830000  60.1330000  46.7140000
  39.0580000  60.3480000  45.3440000  40.2990000  60.2280000  46.1080000
  39.0310000  61.2910000  44.7910000  38.1880000  60.3180000  46.0080000
  38.9640000  59.5300000  44.6240000  48.8140000  53.4720000  52.8120000
  50.8770000  51.8720000  52.5690000  49.7270000  52.7640000  52.7050000
  51.5800000  52.0160000  53.3950000  51.4100000  52.0630000  51.6320000
  50.5600000  50.8250000  52.5720000  41.3260000  51.9680000  54.6840000
  42.7250000  53.6000000  53.1820000  41.9450000  52.6900000  54.0200000
  42.0950000  54.0600000  52.4160000  43.5370000  53.0650000  52.6790000
  43.1670000  54.3990000  53.7840000  22.3500000  39.8070000  54.8010000
  23.4850000  41.2140000  52.9020000  22.8520000  40.4290000  53.9610000
  22.7350000  41.7540000  52.3170000  24.0460000  40.5670000  52.2200000
  24.1800000  41.9470000  53.3230000  55.5600000  33.2390000  61.0500000
  53.9800000  33.0090000  63.1300000  54.8610000  33.1370000  61.9700000
  52.9600000  32.7660000  62.8180000  53.9470000  33.9440000  63.6990000
  54.3290000  32.2170000  63.7980000  37.8320000  51.9510000  52.8150000
  35.6890000  53.3600000  52.2700000  36.8840000  52.5740000  52.5740000
  34.8700000  53.0990000  52.9470000  35.3540000  53.1770000  51.2450000
  35.8900000  54.4300000  52.3760000  44.1550000  53.9290000  23.5750000
  44.1470000  56.3940000  22.6820000  44.1510000  55.0190000  23.1800000
  43.2520000  56.9260000  23.0180000  44.1620000  56.4120000  21.5880000
  45.0220000  56.9410000  23.0420000  62.5700000  48.8680000  54.1750000
  62.7380000  46.4020000  53.3010000  62.6450000  47.7770000  53.7880000
  63.7530000  46.0130000  53.4270000  62.4840000  46.3480000  52.2370000
  62.0530000  45.7480000  53.8470000  45.1660000  31.5390000  50.7900000
  42.8430000  32.6300000  50.2530000  44.1380000  32.0220000  50.5530000
  42.2210000  32.6840000  51.1520000  42.3030000  32.0460000  49.5020000
  42.9700000  33.6450000  49.8670000  38.6340000  48.8530000  59.0970000
  39.3590000  50.6100000  57.2910000  38.9540000  49.6310000  58.2980000
  40.2880000  51.1070000  57.5830000  38.5890000  51.3780000  57.1640000
  39.5210000  50.1280000  56.3230000  30.9210000  46.6680000  33.8950000
  30.6990000  48.4130000  35.8390000  30.8230000  47.4400000  34.7550000
  31.4160000  48.2000000  36.6370000  29.6940000  48.3890000  36.2710000
  30.8880000  49.4270000  35.4750000  49.2770000  23.5640000  58.8360000
  46.8690000  24.3910000  59.4630000  48.2110000  23.9300000  59.1130000
  46.6930000  25.4010000  59.0830000  46.7340000  24.4080000  60.5490000
  46.1080000  23.7300000  59.0370000  31.4990000  43.6490000  59.4760000
  31.6490000  41.1800000  60.3460000  31.5650000  42.5570000  59.8610000
  30.8800000  40.5570000  59.8810000  31.5100000  41.1410000  61.4310000
  32.6250000  40.7450000  60.1130000  33.2700000  59.4990000  53.6080000
  35.3370000  59.1360000  55.1800000  34.1850000  59.3380000  54.3030000
  36.2560000  59.0310000  54.5960000  35.2130000  58.2310000  55.7830000
  35.4620000  59.9830000  55.8600000  32.9100000  41.9020000  62.9480000
  34.4460000  43.8160000  63.8700000  33.5890000  42.7490000  63.3560000
  33.8620000  44.7190000  64.0740000  35.2250000  44.0720000  63.1460000
  34.9340000  43.5100000  64.7990000  61.9650000  21.8750000  46.2540000
  63.8260000  23.7200000  46.1850000  62.7880000  22.6920000  46.2240000
  63.5980000  24.5300000  46.8840000  63.9100000  24.1510000  45.1820000
  64.7990000  23.3020000  46.4570000  28.3330000  26.2630000  47.1090000
  29.7830000  27.9450000  48.5030000  28.9750000  27.0070000  47.7260000
  29.6990000  27.7370000  49.5730000  29.4560000  28.9760000  48.3300000
  30.8380000  27.8730000  48.2250000  45.7400000  40.4000000  51.2080000
  44.8710000  38.1420000  52.2170000  45.3560000  39.4010000  51.6540000
  43.7980000  38.1960000  52.4240000  45.3870000  37.9090000  53.1530000
  45.0410000  37.3140000  51.5220000  32.2600000  51.1830000  42.2930000
  33.2490000  53.5640000  42.7690000  32.6970000  52.2360000  42.5040000
  32.7860000  54.3140000  42.1220000  34.3290000  53.5790000  42.5890000
  33.0740000  53.8570000  43.8090000  51.3710000  25.3020000  39.3890000
  52.2690000  27.1930000  37.8100000  51.7690000  26.1390000  38.6900000
  53.3580000  27.1400000  37.7200000  52.0080000  28.1820000  38.1990000
  51.8410000  27.0980000  36.8080000  49.2970000  57.9570000  29.3940000
  48.1720000  55.6300000  29.8350000  48.7990000  56.9280000  29.5890000
  48.8040000  54.8170000  29.4680000  47.2040000  55.5640000  29.3270000
  48.0050000  55.4750000  30.9050000  56.7840000  46.8730000  61.6500000
  57.3380000  46.1780000  64.1170000  57.0300000  46.5660000  62.7420000
  58.3760000  45.8430000  64.2030000  56.6890000  45.3610000  64.4460000
  57.1960000  47.0210000  64.8000000  42.4120000  54.3130000  42.5540000
  41.3430000  54.0720000  40.1720000  41.9390000  54.2060000  41.5000000
  41.7040000  53.1670000  39.6740000  41.5980000  54.9310000  39.5430000
  40.2530000  54.0110000  40.2390000  23.6790000  38.4990000  37.8580000
  24.0500000  36.2920000  39.2250000  23.8430000  37.5230000  38.4630000
  24.8790000  35.7120000  38.8100000  23.1520000  35.6660000  39.2030000
  24.2820000  36.5160000  40.2700000  39.6420000  21.6000000  51.1300000
  38.6750000  23.7210000  49.9290000  39.2140000  22.5380000  50.5990000
  37.6030000  23.8220000  50.1220000  38.8210000  23.6540000  48.8460000
  39.1720000  24.6290000  50.2830000  57.6390000  25.2480000  33.2480000
  55.0240000  25.2690000  33.0580000  56.4820000  25.2570000  33.1640000
  54.5890000  25.9940000  33.7530000  54.6090000  24.2830000  33.2910000
  54.7100000  25.5380000  32.0450000  45.7090000  47.8440000  53.6810000
  47.5020000  49.2850000  52.4230000  46.5020000  48.4810000  53.1240000
  48.0250000  48.6860000  51.6720000  48.2460000  49.6780000  53.1230000
  47.0330000  50.1330000  51.9150000  31.1570000  48.8530000  28.4980000
  31.9350000  51.2010000  27.6290000  31.5010000  49.8920000  28.1130000
  31.0740000  51.8240000  27.3660000  32.5640000  51.0990000  26.7390000
  32.5130000  51.7270000  28.3940000  48.1170000  55.5460000  54.0010000
  47.1700000  55.1390000  51.5910000  47.6980000  55.3660000  52.9350000
  46.0800000  55.2280000  51.5810000  47.4330000  54.1390000  51.2330000
  47.5760000  55.8690000  50.8850000  60.8200000  59.7750000  44.6010000
  59.5910000  59.0100000  46.7870000  60.2760000  59.4370000  45.5680000
  60.1830000  58.2660000  47.3270000  58.6190000  58.5650000  46.5510000
  59.4210000  59.8590000  47.4560000  34.2840000  61.5700000  44.7520000
  35.9190000  60.1760000  43.2480000  35.0070000  60.9530000  44.0870000
  35.3720000  59.6650000  42.4500000  36.4420000  59.4190000  43.8410000
  36.6690000  60.8240000  42.7850000  51.9530000  24.9680000  45.6130000
  54.4960000  24.6320000  45.0660000  53.0780000  24.8200000  45.3710000
  54.7330000  23.5700000  44.9530000  55.1230000  25.0370000  45.8670000
  54.7640000  25.1410000  44.1360000  40.5140000  25.5320000  58.9520000
  38.2250000  26.2770000  57.9120000  39.5020000  25.8610000  58.4920000
  38.3740000  27.0670000  57.1710000  37.5520000  26.6580000  58.6860000
  37.7310000  25.4360000  57.4170000  37.7550000  33.6670000  33.7610000
  38.1440000  35.4980000  31.9260000  37.9270000  34.4770000  32.9490000
  37.2050000  35.7580000  31.4300000  38.8440000  35.1420000  31.1630000
  38.5580000  36.4090000  32.3670000  53.3660000  34.3770000  55.7980000
  53.5000000  32.2670000  57.3490000  53.4250000  33.4430000  56.4840000
  52.5350000  31.7530000  57.3900000  53.7780000  32.5510000  58.3690000
  54.2470000  31.5590000  56.9790000  38.7840000  43.5030000  51.0150000
  36.6520000  42.0320000  51.4250000  37.8410000  42.8520000  51.1960000
  35.7540000  42.5380000  51.0570000  36.5170000  41.8320000  52.4920000
  36.7370000  41.0720000  50.9070000  27.0720000  44.6950000  53.0820000
  24.8370000  45.4760000  51.9550000  26.0830000  45.0400000  52.5830000
  24.2010000  46.0000000  52.6750000  24.2760000  44.6190000  51.5680000
  25.0380000  46.1550000  51.1220000  51.5930000  58.3150000  41.4160000
  52.5210000  60.7670000  41.4010000  52.0040000  59.3990000  41.4090000
  53.5010000  60.8150000  41.8850000  51.8450000  61.4420000  41.9350000
  52.6300000  61.1350000  40.3770000  53.6550000  51.5920000  30.2410000
  56.1420000  51.1060000  29.5670000  54.7550000  51.3770000  29.9430000
  56.2870000  50.0430000  29.3570000  56.8260000  51.3900000  30.3720000
  56.4190000  51.6700000  28.6720000  45.8820000  36.8150000  25.0270000
  43.4080000  35.9460000  25.0630000  44.7880000  36.4310000  25.0430000
  43.2520000  35.2520000  25.8930000  43.1660000  35.4240000  24.1320000
  42.7060000  36.7770000  25.1780000  26.1530000  61.5480000  40.9670000
  24.1470000  61.2000000  42.6190000  25.2660000  61.3940000  41.6980000
  24.0930000  60.1590000  42.9510000  23.1980000  61.4540000  42.1380000
  24.2580000  61.8330000  43.5050000  60.6860000  52.9690000  45.7460000
  60.4370000  50.8160000  47.2210000  60.5760000  52.0160000  46.3980000
  59.7960000  50.0790000  46.7280000  59.9920000  51.0580000  48.1910000
  61.4110000  50.3520000  47.4000000  24.0200000  41.1900000  30.6340000
  22.2630000  43.1200000  30.8880000  23.2430000  42.0440000  30.7460000
  21.6460000  43.2050000  29.9890000  22.7610000  44.0810000  31.0510000
  21.6010000  42.9330000  31.7390000  36.9320000  36.5410000  50.4950000
  35.1100000  38.0060000  51.6830000  36.1260000  37.1890000  51.0210000
  35.0530000  37.7670000  52.7490000  34.1230000  37.8320000  51.2430000
  35.3420000  39.0700000  51.5850000  25.3870000  33.2210000  55.0080000
  25.4030000  32.7430000  57.5860000  25.3940000  33.0100000  56.1490000
  26.4170000  32.5290000  57.9360000  24.7720000  31.8820000  57.8260000
  25.0260000  33.6050000  58.1440000  60.9740000  24.3330000  63.4510000
  61.0810000  24.8820000  60.8900000  61.0220000  24.5760000  62.3180000
  61.9030000  25.5710000  60.6730000  60.1500000  25.3480000  60.5520000
  61.2380000  23.9730000  60.3030000  61.0700000  40.5730000  50.0370000
  62.9760000  39.9840000  51.7390000  61.9130000  40.3120000  50.7900000
  63.2140000  38.9160000  51.7020000  62.6730000  40.2300000  52.7610000
  63.8880000  40.5430000  51.5110000  53.6350000  58.2940000  42.4410000
  53.2300000  58.3200000  45.0310000  53.4560000  58.3060000  43.5870000
  53.5410000  57.3740000  45.4830000  52.1700000  58.4730000  45.2580000
  53.7980000  59.1260000  45.5050000  55.7350000  26.7010000  51.1250000
  54.0370000  25.1890000  52.4310000  54.9840000  26.0320000  51.7030000
  53.7110000  24.3470000  51.8140000  53.1500000  25.7610000  52.7210000
  54.4930000  24.7870000  53.3410000  27.5100000  51.7380000  57.9000000
  27.0800000  52.1470000  60.4540000  27.3200000  51.9190000  59.0300000
  27.2530000  51.2330000  61.0290000  26.0480000  52.4680000  60.6290000
  27.7470000  52.9230000  60.8420000  61.3230000  54.8090000  61.4390000
  59.0040000  54.7110000  60.2200000  60.2970000  54.7660000  60.9000000
  59.0610000  55.1860000  59.2370000  58.2350000  55.2280000  60.8040000
  58.6820000  53.6750000  60.0790000  32.3920000  57.0750000  29.9620000
  34.0810000  55.2120000  29.2180000  33.1400000  56.2510000  29.6330000
  34.8310000  55.0340000  29.9950000  34.6040000  55.5050000  28.3020000
  33.5610000  54.2700000  29.0250000  56.8980000  63.4200000  45.5210000
  57.0120000  61.2960000  47.0550000  56.9480000  62.4800000  46.1990000
  57.5900000  61.5020000  47.9610000  57.4890000  60.4620000  46.5300000
  56.0100000  60.9800000  47.3560000  60.7110000  22.3120000  53.1240000
  58.3130000  22.5790000  54.1510000  59.6500000  22.4300000  53.5780000
  57.6590000  23.1320000  53.4710000  58.3550000  23.1210000  55.1000000
  57.8600000  21.6010000  54.3380000  56.0080000  56.0380000  46.2380000
  53.7620000  54.7840000  45.7310000  55.0140000  55.4840000  46.0140000
  52.9050000  55.3590000  46.0950000  53.7450000  53.8040000  46.2170000
  53.6360000  54.6310000  44.6550000  58.3700000  49.7240000  58.6040000
  58.7870000  47.1380000  58.7290000  58.5550000  48.5800000  58.6590000
  59.7180000  46.9200000  59.2580000  58.8570000  46.7070000  57.7250000
  57.9700000  46.6380000  59.2570000  43.6510000  50.8070000  55.1370000
  42.7500000  52.8780000  56.4680000  43.2530000  51.7230000  55.7260000
  41.6900000  52.7560000  56.7070000  42.8630000  53.7960000  55.8820000
  43.2970000  53.0060000  57.4060000  42.2760000  46.3100000  59.2840000
  41.4000000  48.3630000  57.9080000  41.8880000  47.2180000  58.6750000
  40.3980000  48.1670000  57.5130000  42.0630000  48.5760000  57.0630000
  41.3490000  49.2580000  58.5340000  33.1280000  32.7820000  26.2140000
  30.9270000  32.9090000  27.6330000  32.1540000  32.8380000  26.8420000
  30.9220000  32.1420000  28.4130000  30.0470000  32.7560000  27.0000000
  30.8310000  33.8850000  28.1160000  25.7430000  54.0920000  36.2370000
  25.4370000  53.2690000  38.7080000  25.6080000  53.7280000  37.3300000
  25.2200000  52.1970000  38.7360000  24.6090000  53.7960000  39.1940000
  26.3430000  53.4480000  39.2930000  42.6660000  30.6180000  55.1040000
  42.3250000  33.1090000  54.3620000  42.5150000  31.7200000  54.7760000
  41.5030000  33.5710000  54.9160000  42.0910000  33.1680000  53.2940000
  43.2300000  33.6970000  54.5430000  25.5160000  64.3410000  31.3190000
  23.5370000  62.6200000  31.2810000  24.6400000  63.5800000  31.3020000
  23.7840000  61.7300000  31.8680000  23.3180000  62.3020000  30.2570000
  22.6290000  63.0620000  31.7020000  28.2060000  54.6170000  42.8250000
  25.6790000  54.0880000  43.2850000  27.0880000  54.3830000  43.0290000
  25.5640000  53.0940000  43.7270000  25.1010000  54.1170000  42.3570000
  25.2490000  54.8190000  43.9770000  37.9890000  64.3180000  24.7200000
  35.8620000  63.9730000  26.2130000  37.0480000  64.1660000  25.3800000
  35.0960000  64.7170000  25.9770000  36.1120000  64.0690000  27.2750000
  35.4320000  62.9800000  26.0540000  24.6310000  34.0850000  43.3890000
  25.1300000  36.5590000  44.1020000  24.8520000  35.1800000  43.7040000
  25.7110000  36.5870000  45.0280000  24.1990000  37.1110000  44.2680000
  25.6990000  37.0800000  43.3270000  59.8630000  22.3870000  46.6540000
  57.5830000  22.7830000  47.8860000  58.8550000  22.5620000  47.1990000
  57.1670000  23.7610000  47.6290000  57.7150000  22.7440000  48.9720000
  56.8520000  22.0190000  47.6060000  55.5880000  60.9920000  24.4310000
  55.6150000  58.5770000  23.4100000  55.6000000  59.9240000  23.9800000
  55.8730000  58.6070000  22.3480000  54.6340000  58.1030000  23.5090000
  56.3490000  57.9480000  23.9210000  56.0880000  47.3150000  46.3450000
  56.2590000  49.9220000  46.5650000  56.1640000  48.4690000  46.4420000
  55.3930000  50.4090000  46.1060000  57.1600000  50.2970000  46.0700000
  56.3000000  50.2220000  47.6160000  22.6810000  60.4950000  34.6390000
  23.2110000  63.0630000  34.7010000  22.9150000  61.6310000  34.6660000
  24.0910000  63.2930000  34.0940000  23.4080000  63.3950000  35.7250000
  22.3690000  63.6430000  34.3130000  56.5560000  21.7810000  61.7870000
  58.8010000  23.0130000  62.3500000  57.5490000  22.3260000  62.0360000
  58.7100000  23.5820000  63.2800000  59.0730000  23.7100000  61.5510000
  59.6180000  22.2960000  62.4690000  51.0880000  54.0700000  26.9300000
  48.5410000  54.0940000  26.3060000  49.9610000  54.0810000  26.6540000
  48.0340000  54.9430000  26.7730000  48.0490000  53.1770000  26.6450000
  48.4060000  54.1710000  25.2240000  29.2250000  63.8880000  62.5950000
  31.0920000  63.8540000  60.7530000  30.0510000  63.8730000  61.7800000
  30.6570000  63.6970000  59.7620000  31.8090000  63.0480000  60.9410000
  31.6400000  64.8000000  60.7380000  32.1920000  27.8320000  23.8350000
  31.1170000  29.8980000  22.6300000  31.7170000  28.7460000  23.3020000
  31.6240000  30.1030000  21.6830000  31.1890000  30.7940000  23.2550000
  30.0600000  29.7170000  22.4170000  25.2860000  43.6530000  59.9440000
  24.5310000  43.6420000  62.4550000  24.9520000  43.6480000  61.0550000
  24.7760000  42.6880000  62.9310000  23.4500000  43.7950000  62.5370000
  25.0300000  44.4380000  63.0150000  28.8860000  44.7340000  28.1220000
  26.5200000  45.7670000  27.6630000  27.8390000  45.1910000  27.9190000
  26.5340000  46.3840000  26.7600000  26.2020000  46.3970000  28.5000000
  25.7720000  44.9810000  27.5270000  50.8970000  29.5120000  43.1770000
  52.0650000  27.2070000  42.7350000  51.4140000  28.4920000  42.9820000
  53.1380000  27.2700000  42.9360000  51.9320000  26.8970000  41.6940000
  51.6440000  26.4280000  43.3770000  56.4550000  47.6750000  30.2700000
  56.7610000  45.0760000  30.4210000  56.5900000  46.5250000  30.3370000
  57.7190000  44.8230000  30.8850000  56.7350000  44.6230000  29.4250000
  55.9640000  44.6240000  31.0190000  61.7950000  47.5400000  58.2010000
  60.3360000  48.1900000  56.1210000  61.1500000  47.8280000  57.2810000
  59.3410000  48.5210000  56.4320000  60.2160000  47.3360000  55.4480000
  60.8030000  49.0030000  55.5570000  23.3400000  40.4910000  40.6430000
  25.4020000  39.9290000  39.1240000  24.2520000  40.2420000  39.9710000
  26.3180000  40.3620000  39.5360000  25.2620000  40.3280000  38.1140000
  25.5440000  38.8470000  39.0450000  31.6260000  56.2200000  40.6900000
  31.0300000  53.7270000  40.1410000  31.3620000  55.1170000  40.4470000
  31.6040000  53.0410000  40.7710000  31.2530000  53.4950000  39.0950000
  29.9670000  53.5340000  40.3110000  38.7730000  32.6940000  47.5800000
  37.2100000  30.5950000  47.4290000  38.0820000  31.7660000  47.5130000
  37.6170000  29.7640000  48.0120000  37.1050000  30.2620000  46.3920000
  36.2130000  30.8240000  47.8150000  59.9910000  41.8640000  46.2500000
  60.3750000  44.3910000  45.6670000  60.1610000  42.9820000  45.9920000
  59.5280000  45.0000000  45.9960000  60.4930000  44.5280000  44.5870000
  61.2770000  44.7710000  46.1560000  63.1320000  55.6740000  41.1190000
  63.7760000  56.0610000  43.6310000  63.4170000  55.8450000  42.2310000
  63.1040000  56.7880000  44.0980000  64.7990000  56.4400000  43.7170000
  63.7120000  55.1270000  44.1980000  55.0430000  33.9750000  53.9920000
  54.3260000  36.4970000  54.0390000  54.7260000  35.0910000  54.0120000
  53.3530000  36.6160000  54.5250000  54.2490000  36.8980000  53.0230000
  55.0560000  37.0990000  54.5870000  29.4200000  50.3420000  24.1630000
  28.3690000  48.4670000  22.6610000  28.9550000  49.5120000  23.4980000
  28.2850000  47.5270000  23.2140000  28.9870000  48.2860000  21.7760000
  27.3690000  48.7540000  22.3240000  60.8400000  43.2670000  51.2970000
  60.5310000  43.8070000  48.7500000  60.7030000  43.5060000  50.1710000
  60.5830000  42.8950000  48.1500000  61.3120000  44.4900000  48.4000000
  59.5610000  44.2790000  48.5680000  40.8080000  56.2990000  33.6230000
  38.2540000  55.7060000  33.6840000  39.6780000  56.0370000  33.6500000
  37.8440000  55.6470000  32.6710000  37.6910000  56.4670000  34.2340000
  38.0900000  54.7420000  34.1740000  35.6560000  33.3500000  59.6360000
  37.5000000  34.8030000  58.4690000  36.4720000  33.9930000  59.1200000
  37.4830000  35.8300000  58.8470000  37.3420000  34.8370000  57.3870000
  38.4960000  34.3900000  58.6540000  24.0410000  29.7630000  44.2870000
  22.6720000  31.8980000  43.6220000  23.4360000  30.7080000  43.9930000
  22.8420000  32.1580000  42.5730000  22.9660000  32.7550000  44.2360000
  21.6000000  31.7320000  43.7620000  61.6730000  36.8600000  58.3010000
  59.1030000  36.3750000  58.4970000  60.5360000  36.6450000  58.3880000
  58.6590000  36.2290000  57.5080000  58.5860000  37.2090000  58.9820000
  58.9210000  35.4730000  59.0880000  28.3810000  39.2480000  63.1980000
  27.6030000  37.1860000  61.7790000  28.0370000  38.3360000  62.5700000
  28.0750000  36.2660000  62.1370000  27.8690000  37.3160000  60.7250000
  26.5180000  37.0570000  61.8420000  58.7870000  49.2420000  48.5230000
  56.4840000  49.1990000  49.7740000  57.7680000  49.2230000  49.0770000
  55.7240000  48.6920000  49.1730000  56.1330000  50.2150000  49.9790000
  56.5690000  48.6710000  50.7290000  38.8610000  34.0020000  28.8500000
  36.9590000  34.6430000  27.1630000  38.0190000  34.2850000  28.1040000
  37.3770000  35.1000000  26.2610000  36.2630000  35.3580000  27.6140000
  36.3900000  33.7580000  26.8640000  61.9440000  54.3390000  27.3980000
  61.4770000  51.7730000  27.1360000  61.7380000  53.2040000  27.2820000
  62.3320000  51.1840000  27.4820000  61.2900000  51.5170000  26.0880000
  60.6010000  51.4750000  27.7190000  21.6000000  57.6350000  30.5150000
  22.8240000  59.7220000  29.5040000  22.1420000  58.5580000  30.0680000
  23.5640000  60.1170000  30.2070000  22.1100000  60.5200000  29.2790000
  23.3420000  59.4580000  28.5780000  60.7330000  47.0300000  45.6900000
  62.9410000  48.3670000  46.1510000  61.7100000  47.6220000  45.8940000
  62.9380000  48.7860000  47.1620000  63.0510000  49.1930000  45.4410000
  63.8160000  47.7180000  46.0550000  53.6740000  37.0750000  24.4170000
  52.1220000  38.0710000  22.5530000  52.9870000  37.5150000  23.5920000
  52.6540000  38.1410000  21.6000000  51.7810000  39.0740000  22.8270000
  51.2390000  37.4420000  22.4050000  42.5250000  38.5610000  59.7330000
  43.5810000  37.6950000  57.4950000  42.9920000  38.1780000  58.7430000
  43.0480000  38.1010000  56.6310000  43.5350000  36.6030000  57.4400000
  44.6300000  37.9950000  57.4180000  44.1770000  42.8130000  34.6070000
  46.2330000  42.7040000  32.9820000  45.0870000  42.7650000  33.8880000
  45.9380000  42.3010000  32.0090000  47.0190000  42.0620000  33.3920000
  46.6570000  43.7000000  32.8240000  32.2800000  46.3530000  59.1310000
  32.2310000  44.9930000  61.3720000  32.2580000  45.7510000  60.1220000
  31.2700000  44.4860000  61.4980000  32.3820000  45.6540000  62.2310000
  33.0190000  44.2350000  61.3840000  35.7900000  58.3490000  22.9360000
  33.3540000  57.3820000  22.8920000  34.7120000  57.9210000  22.9160000
  32.6930000  58.0170000  22.2950000  32.9420000  57.3190000  23.9040000
  33.3420000  56.3780000  22.4580000  61.0370000  53.6330000  35.0940000
  60.9780000  51.3780000  36.4300000  61.0110000  52.6360000  35.6850000
  61.2890000  51.5320000  37.4670000  61.6510000  50.6410000  35.9800000
  59.9690000  50.9560000  36.4370000  34.4300000  23.1140000  43.0670000
  32.0710000  24.1690000  42.6260000  33.3860000  23.5810000  42.8720000
  31.7250000  24.7280000  43.5000000  31.3320000  23.3920000  42.4050000
  32.1040000  24.8560000  41.7750000  31.6720000  36.3290000  34.8550000
  32.9980000  34.0780000  35.0760000  32.2590000  35.3330000  34.9530000
  33.8810000  34.2070000  35.7080000  33.3320000  33.7250000  34.0950000
  32.3720000  33.2990000  35.5220000  57.0550000  43.6700000  49.0830000
  57.7010000  46.2090000  48.9790000  57.3410000  44.7930000  49.0370000
  58.7800000  46.3310000  48.8440000  57.4140000  46.7220000  49.9030000
  57.1960000  46.7050000  48.1450000  55.1910000  64.7130000  25.5160000
  52.8510000  63.7890000  26.2530000  54.1560000  64.3040000  25.8420000
  52.8610000  62.6960000  26.2990000  52.0720000  64.0920000  25.5450000
  52.5760000  64.1680000  27.2420000  34.1980000  53.0610000  46.4750000
  36.5850000  52.4200000  47.3500000  35.2540000  52.7770000  46.8620000
  36.9310000  53.1400000  48.0970000  37.3090000  52.4060000  46.5300000
  36.5760000  51.4290000  47.8130000  60.1270000  61.3350000  33.3360000
  58.4060000  60.2240000  31.6990000  59.3660000  60.8440000  32.6120000
  58.9200000  59.6120000  30.9520000  57.8230000  60.9860000  31.1720000
  57.7100000  59.5810000  32.2440000  54.0140000  39.7900000  53.5760000
  51.6750000  39.0640000  54.5110000  52.9790000  39.4690000  53.9900000
  50.9060000  39.1390000  53.7370000  51.3760000  39.7020000  55.3500000
  51.7020000  38.0300000  54.8650000  64.6480000  44.3140000  32.5450000
  63.1890000  42.2120000  31.9730000  64.0030000  43.3840000  32.2920000
  62.1290000  42.4130000  32.1520000  63.4820000  41.3560000  32.5900000
  63.3080000  41.9290000  30.9230000  35.3870000  25.4030000  54.8400000
  33.7240000  26.4030000  53.0760000  34.6510000  25.8460000  54.0590000
  33.4840000  25.6650000  52.3050000  34.1590000  27.2790000  52.5840000
  32.7900000  26.7110000  53.5540000  21.9800000  60.9630000  44.4900000
  23.2990000  60.7230000  46.7430000  22.5640000  60.8570000  45.4870000
  22.6980000  61.0780000  47.5850000  24.2250000  61.3070000  46.7160000
  23.5630000  59.6780000  46.9300000  40.4110000  64.6190000  46.7790000
  38.4550000  63.0710000  47.5880000  39.5450000  63.9340000  47.1370000
  37.5070000  63.3720000  47.1320000  38.3400000  63.1250000  48.6750000
  38.6460000  62.0290000  47.3190000  51.9040000  34.5860000  28.5760000
  50.4970000  32.6150000  29.5810000  51.2820000  33.7140000  29.0210000
  51.0870000  32.0450000  30.3040000  50.1700000  31.9300000  28.7930000
  49.6070000  32.9940000  30.0920000  34.4400000  29.1350000  38.8800000
  33.7760000  27.5780000  36.8780000  34.1460000  28.4460000  37.9940000
  32.6890000  27.5300000  36.7660000  34.1470000  26.5600000  37.0370000
  34.1970000  27.9500000  35.9400000  57.5530000  47.7190000  43.4160000
  57.1890000  45.2240000  44.1340000  57.3920000  46.6150000  43.7340000
  56.7870000  45.1660000  45.1500000  58.1330000  44.6710000  44.1100000
  56.4850000  44.7250000  43.4620000  64.1060000  56.7760000  38.3910000
  63.1870000  59.2290000  38.2750000  63.6990000  57.8620000  38.3390000
  62.3230000  59.3530000  38.9340000  62.8750000  59.4800000  37.2560000
  63.9540000  59.9470000  38.5810000  33.8040000  31.3180000  39.8660000
  36.0900000  32.3350000  39.0810000  34.8150000  31.7680000  39.5180000
  35.9410000  33.3160000  38.6190000  36.5740000  31.6840000  38.3470000
  36.7720000  32.4580000  39.9270000  53.9440000  28.0430000  40.8080000
  55.7310000  26.7520000  42.2270000  54.7340000  27.4720000  41.4360000
  55.5830000  25.6710000  42.1490000  55.6630000  27.0290000  43.2840000
  56.7430000  26.9820000  41.8810000  60.0370000  28.4430000  29.0150000
  60.6490000  29.8660000  26.9000000  60.3080000  29.0730000  28.0790000
  60.8510000  30.9060000  27.1750000  59.8280000  29.8600000  26.1760000
  61.5400000  29.4670000  26.4070000  57.5400000  26.4320000  52.3540000
  57.3710000  25.5430000  54.8150000  57.4650000  26.0390000  53.4420000
  58.3630000  25.3180000  55.2160000  56.7710000  24.6280000  54.8580000
  56.9020000  26.2870000  55.4650000  24.7480000  64.3230000  46.8810000
  22.2120000  63.9880000  46.3080000  23.6260000  64.1750000  46.6280000
  21.6000000  64.0210000  47.2150000  22.0470000  63.0210000  45.8220000
  21.8580000  64.7720000  45.6320000  44.7260000  26.8590000  42.8490000
  42.4300000  25.7380000  42.2620000  43.7100000  26.3630000  42.5890000
  41.6170000  26.1920000  42.8370000  42.4500000  24.6670000  42.4890000
  42.2000000  25.8550000  41.1990000  48.7990000  37.0370000  28.0940000
  47.3200000  39.1980000  28.2350000  48.1440000  37.9930000  28.1560000
  46.4480000  39.0320000  28.8750000  46.9620000  39.4900000  27.2430000
  47.8910000  40.0340000  28.6490000  63.6450000  34.9730000  52.9170000
  62.5880000  35.1430000  50.5240000  63.1770000  35.0480000  51.8580000
  62.3590000  36.1830000  50.2720000  61.6590000  34.5670000  50.4670000
  63.2750000  34.7540000  49.7670000  51.7280000  39.1200000  25.4770000
  50.8830000  41.5630000  25.9120000  51.3540000  40.2010000  25.6690000
  50.0020000  41.5610000  26.5590000  50.6130000  42.0540000  24.9720000
  51.6590000  42.1630000  26.3970000  39.2490000  30.5350000  28.9610000
  38.8840000  32.0570000  31.0650000  39.0880000  31.2090000  29.8910000
  38.3760000  32.9860000  30.7890000  39.8410000  32.3180000  31.5270000
  38.2740000  31.5450000  31.8140000  39.9980000  30.1780000  40.0450000
  41.3120000  32.4400000  39.8720000  40.5790000  31.1790000  39.9690000
  42.2090000  32.3230000  39.2560000  41.6230000  32.7860000  40.8630000
  40.6890000  33.2180000  39.4210000  41.2320000  29.9720000  60.8650000
  42.4700000  30.8030000  63.0220000  41.7800000  30.3400000  61.8190000
  43.5520000  30.6760000  62.9230000  42.1400000  30.2400000  63.9010000
  42.2670000  31.8630000  63.2020000  51.6030000  61.1160000  52.4570000
  52.6960000  63.1730000  51.2530000  52.0860000  62.0260000  51.9240000
  53.7700000  63.0170000  51.1150000  52.5580000  64.0860000  51.8410000
  52.2460000  63.3320000  50.2690000  41.1380000  41.6010000  37.4080000
  42.9100000  39.9100000  36.4730000  41.9220000  40.8530000  36.9940000
  43.7510000  39.8050000  37.1650000  43.3040000  40.2520000  35.5100000
  42.4650000  38.9220000  36.3250000  22.9090000  49.2260000  59.3660000
  24.0960000  50.7080000  61.1750000  23.4340000  49.8820000  60.1660000
  25.1740000  50.5230000  61.1830000  23.7060000  50.4900000  62.1740000
  23.9360000  51.7710000  60.9730000  31.3430000  61.7590000  63.9180000
  32.6930000  63.9980000  63.7230000  31.9410000  62.7490000  63.8320000
  32.2010000  64.7990000  64.2830000  32.7730000  64.3140000  62.6780000
  33.7050000  63.8780000  64.1200000  32.0570000  36.8090000  53.2800000
  33.1720000  39.1060000  53.8760000  32.5510000  37.8250000  53.5440000
  32.5380000  39.6820000  54.5560000  33.3350000  39.7050000  52.9750000
  34.1410000  38.9540000  54.3620000  26.8820000  21.6000000  47.0850000
  26.8800000  24.1470000  46.4620000  26.8810000  22.7270000  46.8090000
  26.7400000  24.7650000  47.3530000  26.0730000  24.3750000  45.7590000
  27.8270000  24.4340000  45.9960000  41.8100000  28.3850000  41.2960000
  40.6960000  30.2980000  42.7020000  41.3170000  29.2310000  41.9180000
  39.6470000  30.0680000  42.9090000  40.7360000  31.2500000  42.1640000
  41.2110000  30.4270000  43.6590000  57.6910000  28.5080000  64.7950000
  56.6200000  30.0770000  62.9880000  57.2170000  29.2020000  63.9950000
  57.3170000  30.8680000  62.6970000  55.7110000  30.5500000  63.3730000
  56.3540000  29.5120000  62.0900000  61.2710000  28.4200000  32.0890000
  59.9630000  30.5320000  32.9300000  60.6930000  29.3540000  32.4610000
  60.6340000  31.3900000  33.0300000  59.5060000  30.3420000  33.9060000
  59.1680000  30.8010000  32.2290000  21.6000000  57.0070000  35.8920000
  22.7170000  58.0550000  38.0200000  22.0940000  57.4700000  36.8330000
  22.1710000  57.7710000  38.9250000  22.7250000  59.1470000  37.9570000
  23.7500000  57.7130000  38.1250000  47.8670000  62.3430000  57.6220000
  49.3220000  60.7220000  56.1610000  48.5110000  61.6260000  56.9760000
  48.8710000  59.7260000  56.1200000  50.3290000  60.6230000  56.5770000
  49.4120000  61.0970000  55.1380000  57.5670000  29.4760000  27.3690000
  57.8810000  31.8850000  26.3820000  57.7060000  30.5420000  26.9320000
  58.8330000  31.9670000  25.8500000  57.8700000  32.6360000  27.1780000
  57.0780000  32.1250000  25.6790000  55.5920000  57.8450000  37.1670000
  57.4840000  56.7240000  35.7390000  56.4290000  57.3490000  36.5350000
  57.5160000  55.6450000  35.9150000  58.4630000  57.1390000  35.9960000
  57.3150000  56.8890000  34.6710000  40.0380000  24.5240000  41.9730000
  41.3990000  22.4870000  41.0380000  40.6400000  23.6230000  41.5590000
  40.7630000  21.6000000  40.9530000  42.2360000  22.2420000  41.6980000
  41.8020000  22.7110000  40.0460000  49.3420000  22.8300000  36.6660000
  51.8250000  23.0760000  37.4700000  50.4400000  22.9390000  37.0210000
  52.3880000  22.1580000  37.2800000  51.8680000  23.2860000  38.5430000
  52.3250000  23.8950000  36.9440000  31.9800000  58.7520000  35.5370000
  32.3870000  60.5670000  33.6880000  32.1600000  59.5550000  34.7190000
  31.6140000  61.3400000  33.7260000  32.3690000  60.1170000  32.6910000
  33.3580000  61.0500000  33.8250000  32.8550000  55.6640000  26.8920000
  31.0770000  57.4720000  26.2250000  32.0690000  56.4640000  26.5970000
  31.2100000  57.7830000  25.1840000  31.1680000  58.3590000  26.8590000
  30.0620000  57.0790000  26.3350000  47.2900000  26.9870000  53.4800000
  45.8000000  24.8930000  52.9630000  46.6310000  26.0600000  53.2510000
  45.5930000  24.8180000  51.8910000  44.8430000  24.9570000  53.4900000
  46.2990000  23.9720000  53.2780000  59.6640000  35.9440000  53.0970000
  60.4570000  33.5450000  52.3970000  60.0150000  34.8830000  52.7870000
  60.0630000  32.7890000  53.0820000  61.5500000  33.4770000  52.4090000
  60.1140000  33.3010000  51.3870000  34.1350000  40.0760000  24.6410000
  31.8130000  39.0560000  23.9740000  33.1080000  39.6250000  24.3460000
  31.8040000  38.7670000  22.9200000  31.0090000  39.7820000  24.1350000
  31.5930000  38.1670000  24.5720000  43.5600000  27.9080000  60.5710000
  45.7460000  28.6890000  61.7890000  44.5270000  28.2530000  61.1100000
  45.6080000  28.6910000  62.8740000  46.0220000  29.7030000  61.4810000
  46.5820000  28.0240000  61.5540000  34.9440000  55.4300000  50.2400000
  32.8850000  53.8490000  50.6100000  34.0330000  54.7310000  50.4030000
  33.2130000  52.8350000  50.8580000  32.2680000  53.7960000  49.7070000
  32.2580000  54.2130000  51.4280000  57.1020000  59.4770000  63.4010000
  59.6320000  59.0240000  62.8810000  58.2220000  59.2770000  63.1710000
  59.8830000  57.9740000  63.0550000  60.2760000  59.6380000  63.5190000
  59.8630000  59.2610000  61.8390000  34.7520000  24.7530000  38.4290000
  36.0090000  22.5240000  39.0000000  35.3080000  23.7670000  38.6810000
  36.6380000  22.6480000  39.8860000  36.6500000  22.2150000  38.1680000
  35.2980000  21.7170000  39.1980000  49.5280000  36.2740000  41.3360000
  49.0190000  33.7020000  41.3380000  49.3030000  35.1360000  41.3370000
  49.8330000  33.1450000  41.8110000  48.8990000  33.3280000  40.3170000
  48.0970000  33.4890000  41.8880000  44.2710000  46.9970000  60.0220000
  46.5180000  45.8660000  59.2820000  45.2650000  46.4960000  59.6950000
  46.6710000  44.9210000  59.8110000  47.3710000  46.5180000  59.4970000
  46.5130000  45.6570000  58.2080000  33.8000000  50.8790000  32.5730000
  35.8140000  50.1220000  31.0740000  34.6910000  50.5440000  31.9100000
  35.6790000  50.4590000  30.0420000  35.9050000  49.0310000  31.0670000
  36.7540000  50.5380000  31.4470000  30.3660000  31.6260000  40.5050000
  29.8740000  32.4860000  42.9320000  30.1480000  32.0060000  41.5790000
  30.8030000  32.7310000  43.4540000  29.3470000  31.7250000  43.5160000
  29.2510000  33.3850000  42.9070000  46.2950000  50.9090000  61.7910000
  47.7910000  48.7570000  61.7230000  46.9570000  49.9570000  61.7610000
  48.7250000  48.9490000  61.1870000  47.2700000  47.9370000  61.2170000
  48.0420000  48.4250000  62.7350000  38.9490000  40.0080000  26.0630000
  40.8450000  38.3060000  25.4470000  39.7880000  39.2550000  25.7900000
  40.7130000  37.9280000  24.4290000  40.8370000  37.4500000  26.1300000
  41.8290000  38.7800000  25.5090000  44.4190000  48.5950000  25.4450000
  44.0180000  49.6890000  23.0960000  44.2410000  49.0790000  24.4060000
  44.8910000  50.2700000  22.7840000  43.1550000  50.3620000  23.1230000
  43.8290000  48.9240000  22.3380000  39.8810000  24.8070000  23.6770000
  42.3420000  25.1410000  24.5170000  40.9700000  24.9540000  24.0490000
  42.4810000  26.1460000  24.9270000  43.0550000  25.0070000  23.6980000
  42.5870000  24.4180000  25.3010000  42.8790000  60.4820000  41.0440000
  40.2580000  60.4750000  40.9780000  41.7190000  60.4790000  41.0150000
  39.8550000  59.6920000  41.6270000  39.8950000  60.2950000  39.9620000
  39.8580000  61.4350000  41.3160000  29.3030000  44.7730000  51.5270000
  29.1540000  44.0870000  54.0530000  29.2370000  44.4700000  52.6440000
  30.1090000  43.6840000  54.4030000  28.3860000  43.3220000  54.2030000
  28.9010000  44.9490000  54.6760000  35.5970000  35.4820000  37.4710000
  35.9770000  33.3690000  35.9660000  35.7650000  34.5470000  36.8050000
  35.2670000  32.5770000  36.2210000  36.9890000  32.9740000  36.0980000
  35.8440000  33.6160000  34.9080000  48.4900000  34.0690000  47.4660000
  49.5480000  35.1720000  45.3350000  48.9580000  34.5570000  46.5230000
  49.0520000  34.8180000  44.4270000  50.6120000  34.9290000  45.2590000
  49.4510000  36.2610000  45.3730000  53.5240000  52.5490000  26.5440000
  53.8940000  55.0930000  27.0630000  53.6880000  53.6750000  26.7740000
  54.7970000  55.4630000  26.5680000  54.0040000  55.2580000  28.1390000
  53.0470000  55.6890000  26.7120000  36.6030000  25.5210000  40.2930000
  38.7210000  27.0380000  40.5900000  37.5400000  26.1920000  40.4240000
  39.0150000  27.4870000  39.6370000  39.5670000  26.4550000  40.9670000
  38.5240000  27.8470000  41.2990000  37.4690000  61.4750000  59.8380000
  39.3830000  62.6490000  58.4840000  38.3160000  61.9950000  59.2390000
  39.0140000  63.5550000  57.9940000  39.7780000  61.9820000  57.7110000
  40.2090000  62.9320000  59.1420000  56.4340000  44.7300000  33.1670000
  57.5530000  47.0420000  32.6400000  56.9290000  45.7530000  32.9340000
  58.2040000  46.9680000  31.7630000  58.1590000  47.3820000  33.4850000
  56.7950000  47.8040000  32.4370000  23.4130000  24.8960000  32.7880000
  25.8270000  25.4710000  33.6360000  24.4810000  25.1510000  33.1630000
  26.0870000  26.5060000  33.3950000  26.5690000  24.8170000  33.1690000
  25.8980000  25.3460000  34.7200000  29.2120000  46.2800000  25.8710000
  28.8500000  48.7460000  26.6840000  29.0520000  47.3710000  26.2310000
  27.8880000  49.1330000  26.3370000  29.6380000  49.4020000  26.3000000
  28.8640000  48.8020000  27.7760000  39.6320000  42.2530000  59.5220000
  41.8920000  43.5580000  59.2700000  40.6320000  42.8300000  59.4110000
  42.1460000  44.0770000  60.1990000  41.8240000  44.3030000  58.4710000
  42.7110000  42.8740000  59.0290000  46.3800000  31.6630000  23.4400000
  44.7010000  33.6470000  23.7850000  45.6370000  32.5410000  23.5920000
  43.6850000  33.3490000  23.5090000  44.9820000  34.5060000  23.1680000
  44.6890000  33.9690000  24.8300000  25.0430000  52.7200000  28.0470000
  26.8700000  52.4270000  26.1900000  25.8510000  52.5900000  27.2260000
  27.2050000  51.3870000  26.1340000  27.7420000  53.0540000  26.4010000
  26.4770000  52.7110000  25.2100000  52.8720000  50.5080000  41.5280000
  55.4040000  49.8970000  41.2310000  53.9920000  50.2380000  41.3960000
  55.9920000  50.7850000  40.9810000  55.5360000  49.1650000  40.4270000
  55.8110000  49.4680000  42.1510000  37.3440000  47.1170000  51.8950000
  39.6690000  46.3290000  50.9730000  38.3730000  46.7690000  51.4870000
  39.5540000  45.4600000  50.3190000  40.3390000  46.0520000  51.7930000
  40.1490000  47.1260000  50.3970000  54.1110000  55.3780000  35.4290000
  55.8830000  54.5970000  33.6620000  54.8950000  55.0320000  34.6480000
  55.4800000  53.7980000  33.0330000  56.7840000  54.2180000  34.1560000
  56.1760000  55.4270000  33.0120000  30.8980000  38.6710000  52.3150000
  31.7660000  38.6220000  49.8420000  31.2820000  38.6490000  51.2210000
  32.8300000  38.8720000  49.7980000  31.2220000  39.3430000  49.2240000
  31.6320000  37.6290000  49.4020000  57.6430000  36.5900000  49.4550000
  57.6240000  38.4060000  51.3460000  57.6350000  37.3930000  50.2920000
  56.9300000  38.1300000  52.1440000  57.3150000  39.3780000  50.9480000
  58.6190000  38.5210000  51.7850000  25.8730000  33.2560000  52.1780000
  27.8560000  34.9710000  52.1360000  26.7500000  34.0150000  52.1590000
  28.6900000  34.5860000  51.5410000  28.2230000  35.1660000  53.1480000
  27.5390000  35.9220000  51.7000000  62.0050000  46.5500000  28.5940000
  59.9630000  47.6010000  29.8580000  61.1010000  47.0150000  29.1530000
  60.1370000  47.6110000  30.9380000  59.0500000  47.0290000  29.6660000
  59.7920000  48.6310000  29.5320000  48.9790000  63.0010000  52.7320000
  48.1420000  60.7080000  51.7740000  48.6090000  61.9860000  52.3080000
  47.2050000  60.8350000  51.2230000  47.9660000  59.9900000  52.5820000
  48.8810000  60.2770000  51.0930000  54.9150000  55.9400000  23.2370000
  52.4840000  55.0650000  23.6850000  53.8390000  55.5530000  23.4350000
  51.7400000  55.7740000  23.3100000  52.3120000  54.9260000  24.7560000
  52.3180000  54.1050000  23.1870000  26.9230000  55.6290000  64.8000000
  28.7390000  54.6650000  63.1730000  27.7270000  55.2020000  64.0800000
  29.0610000  53.6710000  63.4940000  29.6200000  55.3150000  63.1440000
  28.3460000  54.5830000  62.1560000  44.1510000  25.4950000  45.7510000
  46.5880000  26.1040000  45.0010000  45.2290000  25.7650000  45.4200000
  46.9760000  25.3600000  44.2990000  47.2620000  26.1410000  45.8630000
  46.6120000  27.0800000  44.5090000  36.5950000  31.4690000  44.6240000
  38.9290000  32.6480000  44.4350000  37.6280000  31.9900000  44.5410000
  39.7300000  31.9100000  44.3280000  39.1360000  33.2470000  45.3280000
  38.9610000  33.3120000  43.5670000  43.6750000  23.5400000  55.9730000
  45.6700000  25.2410000  56.0140000  44.5580000  24.2920000  55.9910000
  46.3590000  25.0520000  55.1860000  46.2330000  25.1580000  56.9490000
  45.3070000  26.2680000  55.9260000  56.8650000  34.6910000  25.7430000
  56.6080000  35.5460000  28.2080000  56.7520000  35.0690000  26.8330000
  57.0800000  34.8530000  28.9110000  55.5520000  35.6380000  28.4790000
  57.0770000  36.5260000  28.3310000  26.6330000  29.9180000  35.8160000
  24.2910000  30.7130000  34.9440000  25.5970000  30.2690000  35.4300000
  23.5050000  30.4700000  35.6650000  24.0440000  30.2260000  33.9950000
  24.2830000  31.7940000  34.7830000  25.7110000  24.1260000  43.1890000
  28.3190000  24.2540000  42.9450000  26.8650000  24.1830000  43.0810000
  28.8080000  23.5390000  43.6130000  28.6840000  25.2560000  43.1930000
  28.6250000  24.0250000  41.9200000  39.6260000  45.8080000  55.1420000
  37.9170000  47.5640000  56.0750000  38.8700000  46.5850000  55.5550000
  38.0090000  48.5160000  55.5450000  38.0930000  47.7500000  57.1400000
  36.8900000  47.2070000  55.9580000  25.0710000  27.9690000  34.9150000
  22.9000000  28.0770000  33.4490000  24.1100000  28.0160000  34.2670000
  22.3400000  27.1390000  33.5140000  23.1480000  28.2520000  32.3980000
  22.2450000  28.8870000  33.7830000  47.1940000  49.9490000  22.6680000
  46.4710000  50.3760000  25.1510000  46.8740000  50.1380000  23.7660000
  46.4450000  49.4390000  25.7150000  45.4740000  50.8270000  25.1940000
  47.1710000  51.0530000  25.6500000  43.0380000  50.8650000  57.8460000
  43.3890000  50.4980000  60.4180000  43.1930000  50.7030000  58.9840000
  42.9450000  49.5510000  60.7400000  42.9250000  51.3050000  60.9940000
  44.4540000  50.4740000  60.6660000  60.7130000  53.1530000  43.5070000
  63.0830000  52.7860000  42.4460000  61.7620000  52.9910000  43.0370000
  62.9990000  52.5390000  41.3830000  63.6100000  51.9670000  42.9450000
  63.6940000  53.6880000  42.5370000  56.9620000  59.6640000  39.3650000
  58.4900000  60.2600000  37.3180000  57.6380000  59.9280000  38.4590000
  57.8860000  60.4910000  36.4360000  59.1490000  59.4230000  37.0690000
  59.1150000  61.1300000  37.5400000  59.8030000  27.0160000  31.2090000
  57.8300000  27.7690000  32.7620000  58.9300000  27.3490000  31.8960000
  56.8710000  27.4160000  32.3720000  57.7860000  28.8600000  32.8340000
  57.9540000  27.3670000  33.7720000  47.5810000  34.1270000  30.7130000
  48.1770000  33.2630000  33.1160000  47.8450000  33.7440000  31.7760000
  48.8470000  33.9620000  33.6250000  48.6760000  32.2890000  33.0670000
  47.2750000  33.1520000  33.7250000  48.9440000  37.9800000  56.1230000
  49.2440000  39.5660000  58.1900000  49.0770000  38.6810000  57.0370000
  50.1690000  40.1440000  58.1050000  49.2880000  38.9890000  59.1190000
  48.4100000  40.2690000  58.2650000  32.1230000  57.9300000  61.3290000
  33.0010000  57.2890000  63.7150000  32.5110000  57.6470000  62.3850000
  32.5040000  56.3870000  64.0830000  32.8110000  58.0970000  64.4290000
  34.0780000  57.1000000  63.6950000  53.2630000  60.4900000  26.3450000
  55.3690000  58.9330000  26.4660000  54.1950000  59.8010000  26.3990000
  55.2450000  58.0590000  25.8210000  55.5330000  58.5800000  27.4890000
  56.2670000  59.4690000  26.1440000  45.4350000  32.6010000  61.9500000
  44.4230000  31.0560000  60.0890000  44.9870000  31.9170000  61.1270000
  45.2090000  30.4800000  59.5910000  43.9040000  31.6500000  59.3300000
  43.7050000  30.3500000  60.5170000  51.7300000  29.6880000  33.7430000
  50.8140000  27.6760000  32.3340000  51.3250000  28.7980000  33.1190000
  51.6170000  26.9720000  32.0930000  50.3760000  28.0260000  31.3950000
  50.0420000  27.1330000  32.8870000  24.7560000  38.3580000  62.0710000
  25.4560000  40.2490000  63.7470000  25.0660000  39.1950000  62.8120000
  25.9860000  39.8300000  64.6070000  24.5770000  40.7860000  64.1170000
  26.1160000  40.9740000  63.2620000  44.9810000  61.7140000  35.2400000
  47.5730000  61.6350000  34.8490000  46.1280000  61.6790000  35.0670000
  47.9650000  60.6330000  35.0480000  48.0870000  62.3390000  35.5090000
  47.8180000  61.8970000  33.8160000  34.9580000  21.8170000  58.4900000
  35.4570000  24.3860000  58.3410000  35.1790000  22.9540000  58.4240000
  36.3300000  24.6490000  58.9460000  34.6050000  24.9700000  58.7040000
  35.6570000  24.6850000  57.3080000  64.1390000  45.2430000  27.6780000
  63.0770000  42.8740000  27.3050000  63.6690000  44.1950000  27.5130000
  63.8540000  42.1100000  27.2100000  62.4720000  42.8590000  26.3920000
  62.4320000  42.6010000  28.1440000  32.7670000  48.0110000  40.9200000
  34.1600000  48.4520000  38.7430000  33.3840000  48.2060000  39.9570000
  33.7910000  47.8400000  37.9150000  35.2160000  48.2090000  38.9010000
  34.0940000  49.5020000  38.4450000  21.6000000  52.6680000  32.1730000
  22.2400000  50.4130000  33.3470000  21.8830000  51.6710000  32.6920000
  22.1240000  50.4930000  34.4320000  23.2810000  50.1460000  33.1360000
  21.6030000  49.5970000  32.9960000  64.8000000  63.7790000  32.6570000
  63.3700000  63.1100000  34.7510000  64.1680000  63.4830000  33.5830000
  62.8050000  62.1940000  34.5590000  62.6590000  63.9020000  35.0050000
  64.0110000  62.9380000  35.6200000  36.1300000  39.4980000  53.5970000
  38.4650000  40.6600000  53.8700000  37.1630000  40.0120000  53.7170000
  39.0290000  40.6240000  52.9330000  39.0580000  40.1630000  54.6440000
  38.3460000  41.7090000  54.1550000  47.4750000  55.2190000  40.2980000
  48.5700000  54.4450000  38.0450000  47.9600000  54.8760000  39.3010000
  47.8390000  54.4610000  37.2310000  48.9600000  53.4260000  38.1310000
  49.3990000  55.1030000  37.7690000  27.4220000  29.7330000  37.8620000
  26.7120000  31.7850000  39.3300000  27.1080000  30.6410000  38.5120000
  26.1440000  31.4590000  40.2070000  26.0850000  32.4750000  38.7570000
  27.5890000  32.3360000  39.6810000  61.2970000  37.6270000  24.8760000
  63.8460000  38.1580000  24.5740000  62.4250000  37.8620000  24.7420000
  64.4610000  37.4520000  25.1400000  64.0780000  39.1680000  24.9270000
  64.1360000  38.0920000  23.5210000  28.9790000  41.8180000  23.3420000
  28.6240000  39.2220000  23.2490000  28.8220000  40.6700000  23.3010000
  27.7600000  38.9700000  22.6290000  28.4540000  38.8170000  24.2520000
  29.5020000  38.7240000  22.8270000  40.7690000  38.3120000  52.6680000
  38.6570000  38.8110000  51.1960000  39.8350000  38.5330000  52.0170000
  37.7480000  38.8010000  51.8040000  38.5470000  38.0600000  50.4070000
  38.7380000  39.7920000  50.7200000  22.8640000  61.2740000  49.7720000
  24.5820000  60.6580000  51.6540000  23.6240000  61.0020000  50.6050000
  24.2810000  61.0920000  52.6130000  25.5800000  61.0360000  51.4090000
  24.6510000  59.5740000  51.7790000  37.9020000  57.8140000  56.5780000
  38.6810000  56.5390000  58.7320000  38.2470000  57.2490000  57.5310000
  38.1770000  56.9310000  59.6200000  39.7600000  56.6470000  58.8790000
  38.4540000  55.4710000  58.6560000  27.1900000  51.4040000  35.3000000
  26.6150000  48.9110000  35.8740000  26.9360000  50.3010000  35.5540000
  26.2740000  48.3750000  34.9830000  25.8220000  48.8580000  36.6270000
  27.4930000  48.3900000  36.2680000  32.8010000  40.9050000  28.3210000
  34.5150000  41.3620000  30.2510000  33.5590000  41.1070000  29.1750000
  35.3800000  41.9200000  29.8790000  34.8770000  40.4230000  30.6810000
  34.0530000  41.9460000  31.0520000  54.1210000  39.7610000  28.1700000
  53.0260000  39.8890000  30.5480000  53.6360000  39.8180000  29.2220000
  52.4150000  40.7920000  30.6480000  53.7920000  39.9100000  31.3290000
  52.3820000  39.0230000  30.7280000  27.1720000  47.6890000  57.8180000
  24.7580000  46.9770000  57.0820000  26.1040000  47.3740000  57.4920000
  24.7240000  46.7680000  56.0090000  24.0360000  47.7710000  57.2970000
  24.4390000  46.0760000  57.6140000  24.5310000  50.3570000  56.7470000
  23.5520000  52.1560000  58.3850000  24.0980000  51.1530000  57.4720000
  23.0440000  52.9510000  57.8310000  24.3480000  52.6120000  58.9820000
  22.8300000  51.7050000  59.0710000  63.0460000  48.0830000  64.7990000
  60.8520000  46.7160000  64.3610000  62.0750000  47.4780000  64.6050000
  60.6720000  46.6030000  63.2870000  59.9850000  47.2190000  64.8000000
  60.9230000  45.7160000  64.8000000  61.6480000  40.6240000  45.5030000
  64.1620000  40.2530000  46.1480000  62.7600000  40.4600000  45.7880000
  64.2990000  40.3190000  47.2310000  64.8000000  41.0090000  45.6780000
  64.5060000  39.2680000  45.8210000  52.0100000  58.8520000  24.3360000
  53.1980000  60.0780000  22.3470000  52.5360000  59.3940000  23.4560000
  52.4670000  60.4230000  21.6100000  53.9010000  59.4090000  21.8410000
  53.7560000  60.9490000  22.7040000  32.0370000  63.4850000  44.5680000
  30.3660000  62.0310000  45.9710000  31.2980000  62.8420000  45.1890000
  30.7640000  61.0240000  46.1280000  29.4040000  61.9400000  45.4570000
  30.1860000  62.4820000  46.9510000  35.9890000  53.1510000  55.8830000
  35.4870000  50.5780000  55.8950000  35.7670000  52.0130000  55.8880000
  34.6280000  50.3460000  55.2590000  35.2640000  50.2300000  56.9080000
  36.3470000  50.0120000  55.5230000  21.6780000  49.2790000  42.5380000
  24.2580000  48.8350000  42.6820000  22.8190000  49.0820000  42.6020000
  24.7730000  49.6830000  43.1430000  24.6830000  48.6800000  41.6860000
  24.4670000  47.9450000  43.2820000  34.5460000  51.4020000  44.0400000
  32.6870000  50.8000000  45.7880000  33.7240000  51.1350000  44.8130000
  33.1320000  50.4880000  46.7370000  32.0590000  49.9810000  45.4220000
  32.0420000  51.6610000  45.9820000  48.2100000  37.3060000  62.5970000
  48.2090000  39.8260000  61.8730000  48.2100000  38.4210000  62.2770000
  47.3420000  40.3490000  62.2850000  48.1750000  39.9170000  60.7830000
  49.1120000  40.3330000  62.2270000  47.5520000  60.9310000  48.7410000
  50.1160000  61.0730000  49.2700000  48.6860000  60.9940000  48.9750000
  50.5000000  60.1020000  49.5970000  50.3100000  61.8000000  50.0650000
  50.6790000  61.3800000  48.3840000  41.9420000  48.5880000  27.3990000
  40.1260000  46.6980000  27.4730000  41.1390000  47.7520000  27.4320000
  39.3140000  46.9110000  26.7730000  39.6970000  46.6110000  28.4760000
  40.5610000  45.7310000  27.2050000  24.1390000  25.5030000  53.7280000
  22.4370000  27.4330000  54.2340000  23.3860000  26.3570000  53.9520000
  21.6000000  27.0660000  54.8350000  22.0320000  27.8480000  53.3050000
  22.9210000  28.2450000  54.7850000  33.3410000  29.7820000  26.0480000
  30.9270000  28.7620000  26.1150000  32.2730000  29.3310000  26.0780000
  30.2130000  29.4180000  25.6100000  30.5910000  28.6250000  27.1480000
  30.9020000  27.7870000  25.6190000  51.9160000  42.0580000  51.8650000
  49.6500000  41.4810000  50.6790000  50.9140000  41.8020000  51.3400000
  49.8280000  41.0580000  49.6850000  49.0330000  42.3770000  50.5610000
  49.0810000  40.7510000  51.2610000  26.4590000  23.1110000  22.9940000
  24.2320000  23.5410000  24.3090000  25.4740000  23.3010000  23.5760000
  23.7450000  24.4560000  23.9610000  24.4280000  23.6460000  25.3810000
  23.5330000  22.7110000  24.1720000  48.5430000  33.7300000  53.9780000
  50.2920000  34.9410000  55.5100000  49.3170000  34.2660000  54.6560000
  51.3080000  34.7990000  55.1290000  50.2540000  34.5480000  56.5310000
  50.0930000  36.0160000  55.5530000  57.9080000  29.9530000  35.4550000
  56.8490000  31.5260000  33.6440000  57.4400000  30.6490000  34.6540000
  56.8450000  31.0430000  32.6630000  57.4140000  32.4600000  33.5620000
  55.8160000  31.7760000  33.9030000  28.0710000  55.8040000  53.1000000
  29.9210000  57.4750000  53.9120000  28.8890000  56.5430000  53.4600000
  30.3940000  57.1150000  54.8310000  29.4920000  58.4620000  54.1150000
  30.6990000  57.5930000  53.1530000  63.1460000  49.1000000  37.0490000
  61.7960000  46.9280000  37.6270000  62.5490000  48.1390000  37.3050000
  60.7210000  47.0970000  37.5150000  61.9850000  46.6150000  38.6580000
  62.0810000  46.1050000  36.9650000  38.9430000  29.2480000  27.1950000
  41.4900000  28.6260000  27.1800000  40.0700000  28.9730000  27.1880000
  41.6680000  27.7310000  26.5760000  41.8480000  28.4280000  28.1950000
  42.0870000  29.4420000  26.7630000
  43.2000000  43.2000000  43.2000000  90.0000000  90.0000000  90.0000000
